<?xml version="1.0"?>
<VTKFile type="UnstructuredGrid"  version="0.1"  >
<UnstructuredGrid>
<Piece  NumberOfPoints="3879" NumberOfCells="6881">
<Points>
<DataArray  type="Float64"  NumberOfComponents="3"  format="ascii">0.207524190028372 0.2122422770132111 0  0 0 0  1 0 0  0 1 0  1 1 0  0.6249674373315121 0.2590146544375328 0  0.204663578893616 0.322657230836866 0  0.09605577522599912 0.4018360776629776 0  0.671351124618251 0.08738059142081528 0  0.7842102907526436 0.1666439122351055 0  0.8512483166984784 0.1985391006160637 0  0.6418797837909295 0.4423157172830166 0  0.9292488447973215 0.3869277868069776 0  0.3197896119137055 0.5509935221980964 0  0.3979283685568406 0.5079871620336583 0  0.1572503457993085 0.7345153245035532 0  0.3032914287999163 0.7872981443735918 0  0.3549464687598876 0.8870324161721976 0  0.9691791685505482 0.5159450047798622 0  0.9447564590470373 0.6146164845729313 0  0.7687603548175107 0.7176858127488035 0  0.8926159261971183 0.7422924070424508 0  0.2061587782631535 0.2217389244366831 0  0.2021731605082994 0.2304662099646423 0  0.1958902278109265 0.2377171008267789 0  0.1878189860121365 0.2429041729681512 0  0.1786133191209442 0.2456072006525708 0  0.1690190155206647 0.2456072006525708 0  0.1598133486294724 0.2429041729681512 0  0.1517421068306824 0.2377171008267789 0  0.1454591741333096 0.2304662099646422 0  0.1414735563784554 0.221738924436683 0  0.1401081446132369 0.212242277013211 0  0.1414735563784555 0.202745629589739 0  0.1454591741333096 0.1940183440617798 0  0.1517421068306825 0.1867674531996431 0  0.1598133486294725 0.1815803810582709 0  0.1690190155206649 0.1788773533738513 0  0.1786133191209443 0.1788773533738514 0  0.1878189860121367 0.181580381058271 0  0.1958902278109266 0.1867674531996433 0  0.2021731605082994 0.19401834406178 0  0.2061587782631535 0.2027456295897391 0  0.03333333333333333 0 0  0.06666666666666667 0 0  0.1 0 0  0.1333333333333333 0 0  0.1666666666666667 0 0  0.2 0 0  0.2333333333333333 0 0  0.2666666666666667 0 0  0.3 0 0  0.3333333333333333 0 0  0.3666666666666666 0 0  0.4 0 0  0.4333333333333333 0 0  0.4666666666666667 0 0  0.5 0 0  0.5333333333333333 0 0  0.5666666666666667 0 0  0.6 0 0  0.6333333333333333 0 0  0.6666666666666666 0 0  0.7 0 0  0.7333333333333333 0 0  0.7666666666666667 0 0  0.8 0 0  0.8333333333333334 0 0  0.8666666666666667 0 0  0.9 0 0  0.9333333333333333 0 0  0.9666666666666667 0 0  0 0.9666666666666667 0  0 0.9333333333333333 0  0 0.9 0  0 0.8666666666666667 0  0 0.8333333333333334 0  0 0.8 0  0 0.7666666666666666 0  0 0.7333333333333334 0  0 0.7 0  0 0.6666666666666667 0  0 0.6333333333333333 0  0 0.6 0  0 0.5666666666666667 0  0 0.5333333333333333 0  0 0.5 0  0 0.4666666666666667 0  0 0.4333333333333333 0  0 0.4 0  0 0.3666666666666667 0  0 0.3333333333333334 0  0 0.3 0  0 0.2666666666666667 0  0 0.2333333333333333 0  0 0.2 0  0 0.1666666666666666 0  0 0.1333333333333333 0  0 0.09999999999999998 0  0 0.06666666666666665 0  0 0.03333333333333333 0  1 0.03333333333333333 0  1 0.06666666666666667 0  1 0.1 0  1 0.1333333333333333 0  1 0.1666666666666667 0  1 0.2 0  1 0.2333333333333333 0  1 0.2666666666666667 0  1 0.3 0  1 0.3333333333333333 0  1 0.3666666666666666 0  1 0.4 0  1 0.4333333333333333 0  1 0.4666666666666667 0  1 0.5 0  1 0.5333333333333333 0  1 0.5666666666666667 0  1 0.6 0  1 0.6333333333333333 0  1 0.6666666666666666 0  1 0.7 0  1 0.7333333333333333 0  1 0.7666666666666667 0  1 0.8 0  1 0.8333333333333334 0  1 0.8666666666666667 0  1 0.9 0  1 0.9333333333333333 0  1 0.9666666666666667 0  0.9666666666666667 1 0  0.9333333333333333 1 0  0.9 1 0  0.8666666666666667 1 0  0.8333333333333334 1 0  0.8 1 0  0.7666666666666666 1 0  0.7333333333333334 1 0  0.7 1 0  0.6666666666666667 1 0  0.6333333333333333 1 0  0.6 1 0  0.5666666666666667 1 0  0.5333333333333333 1 0  0.5 1 0  0.4666666666666667 1 0  0.4333333333333333 1 0  0.4 1 0  0.3666666666666667 1 0  0.3333333333333334 1 0  0.3 1 0  0.2666666666666667 1 0  0.2333333333333333 1 0  0.2 1 0  0.1666666666666666 1 0  0.1333333333333333 1 0  0.09999999999999998 1 0  0.06666666666666665 1 0  0.03333333333333333 1 0  0.6247072676344306 0.2689501343248463 0  0.6239274716502419 0.2788583817523955 0  0.6226301867455355 0.2887122389026952 0  0.6208189686880621 0.2984846970382296 0  0.6184987819006211 0.3081489705305245 0  0.6156759858539226 0.317678570277693 0  0.6123583176357204 0.3270473763092224 0  0.6085548707439923 0.3362297093789981 0  0.6042760701622942 0.3452004013503318 0  0.5995336437856049 0.3539348641800754 0  0.5943405902749808 0.3624091573127375 0  0.5887111434291297 0.3706000532998825 0  0.582660733170558 0.3784851014649517 0  0.5762059432532257 0.3860426894390078 0  0.5693644658076293 0.3932521023987353 0  0.5621550528479018 0.4000935798443317 0  0.5545974648738458 0.4065483697616639 0  0.5467124167087765 0.4125987800202355 0  0.5385215207216315 0.4182282268660866 0  0.5300472275889694 0.4234212803767108 0  0.5213127647592257 0.4281637067534002 0  0.512342072787892 0.4324425073350981 0  0.5031597397181163 0.4362459542268262 0  0.493790933686587 0.4395636224450283 0  0.4842613339394185 0.4423864184917269 0  0.4745970604471235 0.4447066052791678 0  0.4648246023115891 0.4465178233366412 0  0.4549707451612894 0.4478151082413475 0  0.4450624977337403 0.4485949042255363 0  0.4351270178464268 0.4488550739226177 0  0.4251915379591132 0.4485949042255363 0  0.4152832905315641 0.4478151082413475 0  0.4054294333812644 0.4465178233366411 0  0.39565697524573 0.4447066052791677 0  0.385992701753435 0.4423864184917267 0  0.3764631020062665 0.4395636224450281 0  0.3670942959747371 0.4362459542268259 0  0.3579119629049616 0.4324425073350978 0  0.3489412709336278 0.4281637067533998 0  0.3402068081038843 0.4234212803767103 0  0.3317325149712221 0.4182282268660862 0  0.3235416189840771 0.412598780020235 0  0.3156565708190078 0.4065483697616634 0  0.3080989828449519 0.4000935798443311 0  0.3008895698852244 0.3932521023987346 0  0.2940480924396279 0.3860426894390071 0  0.2875933025222958 0.3784851014649511 0  0.2815428922637242 0.3706000532998818 0  0.2759134454178731 0.3624091573127368 0  0.2707203919072489 0.3539348641800746 0  0.2659779655305596 0.3452004013503309 0  0.2616991649488616 0.3362297093789972 0  0.2578957180571336 0.3270473763092215 0  0.2545780498389315 0.3176785702776921 0  0.251755253792233 0.3081489705305236 0  0.249435067004792 0.2984846970382286 0  0.2476238489473186 0.2887122389026941 0  0.2463265640426123 0.2788583817523945 0  0.2455467680584236 0.2689501343248454 0  0.2452865983613423 0.2590146544375318 0  0.2455467680584237 0.2490791745502182 0  0.2463265640426126 0.2391709271226692 0  0.247623848947319 0.2293170699723696 0  0.2494350670047924 0.2195446118368351 0  0.2517552537922335 0.2098803383445402 0  0.2545780498389321 0.2003507385973717 0  0.2578957180571343 0.1909819325658423 0  0.2616991649488624 0.1817995994960667 0  0.2659779655305604 0.172828907524733 0  0.2707203919072498 0.1640944446949895 0  0.2759134454178741 0.1556201515623273 0  0.2815428922637251 0.1474292555751825 0  0.2875933025222969 0.1395442074101132 0  0.2940480924396291 0.1319866194360571 0  0.3008895698852256 0.1247772064763297 0  0.3080989828449531 0.1179357290307334 0  0.3156565708190092 0.1114809391134012 0  0.3235416189840785 0.1054305288548295 0  0.3317325149712236 0.09980108200897844 0  0.3402068081038856 0.0946080284983544 0  0.3489412709336291 0.08986560212166514 0  0.357911962904963 0.08558680153996717 0  0.3670942959747386 0.08178335464823916 0  0.3764631020062678 0.07846568643003712 0  0.3859927017534364 0.0756428903833386 0  0.3956569752457313 0.0733227035958976 0  0.4054294333812659 0.07151148553842429 0  0.4152832905315654 0.07021420063371797 0  0.4251915379591144 0.0694344046495293 0  0.435127017846428 0.0691742349524479 0  0.4450624977337415 0.06943440464952938 0  0.4549707451612905 0.07021420063371814 0  0.4648246023115901 0.07151148553842454 0  0.4745970604471245 0.07332270359589793 0  0.4842613339394195 0.07564289038333902 0  0.4937909336865879 0.07846568643003757 0  0.5031597397181173 0.0817833546482398 0  0.5123420727878929 0.08558680153996781 0  0.5213127647592265 0.08986560212166581 0  0.53004722758897 0.0946080284983552 0  0.5385215207216321 0.09980108200897933 0  0.5467124167087771 0.1054305288548305 0  0.5545974648738462 0.1114809391134021 0  0.5621550528479023 0.1179357290307343 0  0.5693644658076298 0.1247772064763308 0  0.576205943253226 0.1319866194360582 0  0.5826607331705582 0.1395442074101142 0  0.5887111434291299 0.1474292555751835 0  0.594340590274981 0.1556201515623285 0  0.5995336437856051 0.1640944446949906 0  0.6042760701622945 0.172828907524734 0  0.6085548707439925 0.1817995994960678 0  0.6123583176357205 0.1909819325658435 0  0.6156759858539227 0.2003507385973728 0  0.6184987819006211 0.2098803383445412 0  0.6208189686880622 0.2195446118368362 0  0.6226301867455355 0.2293170699723706 0  0.6239274716502419 0.2391709271226702 0  0.6247072676344306 0.2490791745502192 0  0.203885768735257 0.3325402459548524 0  0.2015714905276826 0.3421799084407872 0  0.1977777294810124 0.3513388578120612 0  0.1925979005829864 0.3597915703383434 0  0.1861595484119405 0.3673299121842922 0  0.1786212065659918 0.373768264355338 0  0.1701684940397096 0.378948093253364 0  0.1610095446684356 0.3827418543000342 0  0.1513698821825007 0.3850561325076086 0  0.1414868670645144 0.3858339426659677 0  0.1316038519465281 0.3850561325076086 0  0.1219641894605933 0.3827418543000343 0  0.1128052400893193 0.378948093253364 0  0.1043525275630371 0.3737682643553381 0  0.09681418571708833 0.3673299121842922 0  0.09037583354604248 0.3597915703383434 0  0.08519600464801645 0.3513388578120612 0  0.08140224360134621 0.3421799084407872 0  0.07908796539377183 0.3325402459548523 0  0.07831015523541281 0.3226572308368659 0  0.07908796539377186 0.3127742157188796 0  0.08140224360134626 0.3031345532329447 0  0.08519600464801655 0.2939756038616707 0  0.0903758335460426 0.2855228913353884 0  0.0968141857
[...]
<PointData  Tensors="$\sigma$"> 
<DataArray  type="Float64"  Name="$\sigma$"  NumberOfComponents="9" format="ascii">1.0160529428819304e+07 9.0061837867239229e+06 0.0000000000000000e+00 9.0061837867239229e+06 3.3112064570345128e+08 0.0000000000000000e+00 0.0000000000000000e+00 0.0000000000000000e+00 0.0000000000000000e+00  4.2493690787591768e+05 4.6638002374675300e+05 0.0000000000000000e+00 4.6638002374675300e+05 1.6377029225858155e+08 0.0000000000000000e+00 0.0000000000000000e+00 0.0000000000000000e+00 0.0000000000000000e+00  -4.0477992387712482e+04 -7.3958186453435908e+05 0.0000000000000000e+00 -7.3958186453435908e+05 1.8017104777284858e+08 0.0000000000000000e+00 0.0000000000000000e+00 0.0000000000000000e+00 0.0000000000000000e+00  1.0393182478624330e+06 -5.4755033889212436e+05 0.0000000000000000e+00 -5.4755033889212436e+05 1.7272206212789413e+08 0.0000000000000000e+00 0.0000000000000000e+00 0.0000000000000000e+00 0.0000000000000000e+00  7.0512960997169558e+05 5.9404220093154721e+05 0.0000000000000000e+00 5.9404220093154721e+05 1.6466190381966823e+08 0.0000000000000000e+00 0.0000000000000000e+00 0.0000000000000000e+00 0.0000000000000000e+00  5.8795117761994209e+06 5.9826986841798397e+06 0.0000000000000000e+00 5.9826986841798397e+06 3.3624643541534901e+08 0.0000000000000000e+00 0.0000000000000000e+00 0.0000000000000000e+00 0.0000000000000000e+00  -1.6961449588672239e+06 1.3102906595889220e+07 0.0000000000000000e+00 1.3102906595889220e+07 1.8714098070784744e+07 0.0000000000000000e+00 0.0000000000000000e+00 0.0000000000000000e+00 0.0000000000000000e+00  3.4486404697860032e+07 2.2113063998327903e+07 0.0000000000000000e+00 2.2113063998327903e+07 3.5032928443596345e+08 0.0000000000000000e+00 0.0000000000000000e+00 0.0000000000000000e+00 0.0000000000000000e+00  2.1574111412363429e+07 -2.7396279375620954e+07 0.0000000000000000e+00 -2.7396279375620954e+07 3.2808623168593347e+08 0.0000000000000000e+00 0.0000000000000000e+00 0.0000000000000000e+00 0.0000000000000000e+00  2.8111836431525364e+06 -4.1318192444952540e+06 0.0000000000000000e+00 -4.1318192444952540e+06 1.1657110409382470e+06 0.0000000000000000e+00 0.0000000000000000e+00 0.0000000000000000e+00 0.0000000000000000e+00  -1.4155512147545731e+04 -2.2855861627016342e+06 0.0000000000000000e+00 -2.2855861627016342e+06 1.0816860018375777e+06 0.0000000000000000e+00 0.0000000000000000e+00 0.0000000000000000e+00 0.0000000000000000e+00  1.2153882128500758e+07 2.4457346769211628e+07 0.0000000000000000e+00 2.4457346769211628e+07 1.9208849974310204e+08 0.0000000000000000e+00 0.0000000000000000e+00 0.0000000000000000e+00 0.0000000000000000e+00  3.5583034094608198e+06 4.6121803862658031e+06 0.0000000000000000e+00 4.6121803862658031e+06 4.2829484971244752e+08 0.0000000000000000e+00 0.0000000000000000e+00 0.0000000000000000e+00 0.0000000000000000e+00  6.5297074999072291e+06 3.7104228331092349e+06 0.0000000000000000e+00 3.7104228331092349e+06 3.4812321438278651e+08 0.0000000000000000e+00 0.0000000000000000e+00 0.0000000000000000e+00 0.0000000000000000e+00  -1.1651856851528098e+06 -1.3471125620735347e+07 0.0000000000000000e+00 -1.3471125620735347e+07 -3.5486313281992480e+07 0.0000000000000000e+00 0.0000000000000000e+00 0.0000000000000000e+00 0.0000000000000000e+00  2.9740187059640912e+06 -9.3831943702352829e+06 0.0000000000000000e+00 -9.3831943702352829e+06 -3.1865690403091500e+05 0.0000000000000000e+00 0.0000000000000000e+00 0.0000000000000000e+00 0.0000000000000000e+00  3.9551488368016616e+06 -1.4821434552798934e+07 0.0000000000000000e+00 -1.4821434552798934e+07 2.2097638470943436e+08 0.0000000000000000e+00 0.0000000000000000e+00 0.0000000000000000e+00 0.0000000000000000e+00  1.2492422845922288e+07 1.0220347654764093e+07 0.0000000000000000e+00 1.0220347654764093e+07 2.6273743711162740e+08 0.0000000000000000e+00 0.0000000000000000e+00 0.0000000000000000e+00 0.0000000000000000e+00  1.8392108007966673e+08 4.3158994532394327e+07 0.0000000000000000e+00 4.3158994532394327e+07 6.2276976128637040e+08 0.0000000000000000e+00 0.0000000000000000e+00 0.0000000000000000e+00 0.0000000000000000e+00  1.4532177553804856e+07 -1.2215693578705803e+07 0.0000000000000000e+00 -1.2215693578705803e+07 4.1181643099853897e+08 0.0000000000000000e+00 0.0000000000000000e+00 0.0000000000000000e+00 0.0000000000000000e+00  2.8189387684215554e+06 8.9224830034587923e+06 0.0000000000000000e+00 8.9224830034587923e+06 2.5842360877607492e+08 0.0000000000000000e+00 0.0000000000000000e+00 0.0000000000000000e+00 0.0000000000000000e+00  8.8403790550565198e+06 -9.2174115618732521e+03 0.0000000000000000e+00 -9.2174115618732521e+03 1.4109202121687451e+08 0.0000000000000000e+00 0.0000000000000000e+00 0.0000000000000000e+00 0.0000000000000000e+00  9.7724085258417577e+06 -2.6234112377224635e+07 0.0000000000000000e+00 -2.6234112377224635e+07 2.1708243749734971e+08 0.0000000000000000e+00 0.0000000000000000e+00 0.0000000000000000e+00 0.0000000000000000e+00  -1.9014399174460936e+07 -5.4779789921967266e+06 0.0000000000000000e+00 -5.4779789921967266e+06 7.6848893152928665e+07 0.0000000000000000e+00 0.0000000000000000e+00 0.0000000000000000e+00 0.0000000000000000e+00  -7.7494498303750262e+07 4.0339630257770538e+07 0.0000000000000000e+00 4.0339630257770538e+07 -1.3437516511959787e+07 0.0000000000000000e+00 0.0000000000000000e+00 0.0000000000000000e+00 0.0000000000000000e+00  -1.0998859963922611e+08 4.0201076107829720e+07 0.0000000000000000e+00 4.0201076107829720e+07 -2.5858570218891684e+07 0.0000000000000000e+00 0.0000000000000000e+00 0.0000000000000000e+00 0.0000000000000000e+00  -8.9222553382782385e+07 3.9689242356562801e+07 0.0000000000000000e+00 3.9689242356562801e+07 -1.2606140003512749e+07 0.0000000000000000e+00 0.0000000000000000e+00 0.0000000000000000e+00 0.0000000000000000e+00  5.7516963926396891e+07 7.8870800223242462e+07 0.0000000000000000e+00 7.8870800223242462e+07 4.6273215456530817e+07 0.0000000000000000e+00 0.0000000000000000e+00 0.0000000000000000e+00 0.0000000000000000e+00  1.9478576827633661e+08 1.3511610966926566e+08 0.0000000000000000e+00 1.3511610966926566e+08 9.2139331547214061e+07 0.0000000000000000e+00 0.0000000000000000e+00 0.0000000000000000e+00 0.0000000000000000e+00  2.0690583663232967e+08 1.6514690204016563e+08 0.0000000000000000e+00 1.6514690204016563e+08 1.5487465349983343e+08 0.0000000000000000e+00 0.0000000000000000e+00 0.0000000000000000e+00 0.0000000000000000e+00  1.1413693603902818e+08 1.2966946114539336e+08 0.0000000000000000e+00 1.2966946114539336e+08 1.7527231037843686e+08 0.0000000000000000e+00 0.0000000000000000e+00 0.0000000000000000e+00 0.0000000000000000e+00  4.9068077510805875e+07 6.3182787191347562e+07 0.0000000000000000e+00 6.3182787191347562e+07 1.5164485835376742e+08 0.0000000000000000e+00 0.0000000000000000e+00 0.0000000000000000e+00 0.0000000000000000e+00  9.9092399652623460e+06 1.5648071389543183e+07 0.0000000000000000e+00 1.5648071389543183e+07 1.3302764527835359e+08 0.0000000000000000e+00 0.0000000000000000e+00 0.0000000000000000e+00 0.0000000000000000e+00  4.4392217838730244e+06 -6.2454519268036420e+06 0.0000000000000000e+00 -6.2454519268036420e+06 7.2687821238878682e+07 0.0000000000000000e+00 0.0000000000000000e+00 0.0000000000000000e+00 0.0000000000000000e+00  -8.4411865818292387e+06 4.6332891106094103e+06 0.0000000000000000e+00 4.6332891106094103e+06 1.6563135877074329e+07 0.0000000000000000e+00 0.0000000000000000e+00 0.0000000000000000e+00 0.0000000000000000e+00  -4.5623754775919847e+07 2.6442118883525237e+07 0.0000000000000000e+00 2.6442118883525237e+07 -1.4015829905879980e+07 0.0000000000000000e+00 0.0000000000000000e+00 0.0000000000000000e+00 0.0000000000000000e+00  -7.8710487156279489e+07 2.7692439640164625e+07 0.0000000000000000e+00 2.7692439640164625e+07 -1.6016253543889493e+07 0.0000000000000000e+00 0.0000000000000000e+00 0.0000000000000000e+00 0.0000000000000000e+00  -7.7499745877171651e+07 2.0096832981376026e+07 0.0000000000000000e+00 2.0096832981376026e+07 -1.3296372609741440e+07 0.0000000000000000e+00 0.0000000000000000e+00 0.0000000000000000e+00 0.0000000000000000e+00  -3.6214525837566495e+07 1.0526858135829331e+07 0.0000000000000000e+00 1.0526858135829331e+07 4.4571656554034678e+06 0.0000000000000000e+00 0.0000000000000000e+00 0.0000000000000000e+00 0.0000000000000000e+00  3.6136672708894342e+07 3.8293556446311943e+07 0.0000000000000000e+00 3.8293556446311943e+07 3.1171467958041463e+07 0.0000000000000000e+00 0.0000000000000000e+00 0.0000000000000000e+00 0.0000000000000000e+00  7.6485003470988318e+07 7.7372126508040026e+07 0.0000000000000000e+00 7.7372126508040026e+07 1.0699549771890500e+08 0.0000000000000000e+00 0.0000000000000000e+00 0.0000000000000000e+00 0.0000000000000000e+00  7.2673863191505015e+07 1.1505527291407903e+08 0.0000000000000000e+00 1.1505527291407903e+08 2.2004879849241355e+08 0.0000000000000000e+00 0.0000000000000000e+00 0.0000000000000000e+00 0.0000000000000000e+00  5.4506232818404302e+07 6.9057019442148983e+07 0.0000000000000000e+00 6.9057019442148983e+07 2.9496354881399405e+08 0.0000000000000000e+00 0.0000000000000000e+00 0.0000000000000000e+00 0.0000000000000000e+00  5.2394117032631126e+05 1.3014581311536471e+06 0.0000000000000000e+00 1.3014581311536471e+06 1.4451137853262877e+08 0.0000000000000000e+00 0.0000000000000000e+00 0.0000000000000000e+00 0.0000000000000000e+00  1.9961802852654497e+06 1.0935645861531985e+06 0.0000000000000000e+00 1.0935645861531985e+06 1.2017987538155665e+08 0.0000000000000000e+00 0.0000000000000000e+00 0.0000000000000000e+00 0.0000000000000000e+00  4.7356014756174404e+06 1.0878422062256648e+06 0.0000000000000000e+00 1.0878422062256648e+06 9.6394824509454444e+07 0.0000000000000000e+00 0.0000000000000000e+00 0.0000000000000000e+00 0.0000000000000000e+00  1.9337869718922356e+06 1.3225812996346126e+06 0.0000000000000000e+00 1.3225812996346126e+06 8.2397407382022440e+07 0.0000000000000000e+00 0.0000000000000000e+00 0.0000000000000000e+00 0.0000000000000000e+00  1.8613513852344463e+06 1.9157406582618628e+06 0.0000000000000000e+00 1.9157406582618628e+06 6.4623535803852737e+07 0.0000000000000000e+00 0.0000000000000000e+00 0.0000000000000000e+00 0.0000000000000000e+00  -1.1223379539596266e+06 1.3972430529010640e+06 0.0000000000000000e+00 1.3972430529010640e+06 4.8775759487154491e+07 0.0000000000000000e+00 0.0000000000000000e+00 0.0000000000000000e+00 0.0000000000000000e+00  -2.7970687555213878e+06 8.3565709189132904e+05 0.0000000000000000e+00 8.3565709189132904e+05 3.5075500143931597e+07 0.0000000000000000e+00 0.0000000000000000e+00 0.0000000000000000e+00 0.0000000000000000e+00  -5.0747019194233567e+06 6.9097667060283863e+05 0.0000000000000000e+00 6.9097667060283863e+05 2.2988962689510807e+07 0.0000000000000000e+00 0.0000000000000000e+00 0.0000000000000000e+00 0.0000000000000000e+00  -5.2278363384583350e+06 7.3586925720588700e+05 0.0000000000000000e+00 7.3586925720588700e+05 9.7927264206500426e+06 0.0000000000000000e+00 0.0000000000000000e+00 0.0000000000000000e+00 0.0000000000000000e+00  -6.0802604119239841e+06 9.1973217523344920e+05 0.0000000000000000e+00 9.1973217523344920e+05 -1.1404418358702776e+06 0.0000000000000000e+00 0.0000000000000000e+00 0.0000000000000000e+00 0.0000000000000000e+00  -8.7973546808747016e+06 6.6458943469839718e+05 0.0000000000000000e+00 6.6458943469839718e+05 -5.0535343237290224e+06 0.0000000000000000e+00 0.0000000000000000e+00 0.0000000000000000e+00 0.0000000000000000e+00  -1.0867733581181886e+07 6.8553531268906227e+04 0.0000000000000000e+00 6.8553531268906227e+04 -5.0895977163647506e+06 0.0000000000000000e+00 0.0000000000000000e+00 0.0000000000000000e+00 0.0000000000000000e+00  -1.2790168134280037e+07 2.2825660633391220e+04 0.0000000000000000e+00 2.2825660633391220e+04 -2.5048590387405874e+06 0.0000000000000000e+00 0.0000000000000000e+00 0.0000000000000000e+00 0.0000000000000000e+00  -1.3450544044259125e+07 -1.9861477391309067e+05 0.0000000000000000e+00 -1.9861477391309067e+05 2.2659376593439472e+06 0.0000000000000000e+00 0.0000000000000000e+00 0.0000000000000000e+00 0.0000000000000000e+00  -1.7462578815748435e+07 4.9920896516663220e+05 0.0000000000000000e+00 4.9920896516663220e+05 1.3814776582079548e+07 0.0000000000000000e+00 0.0000000000000000e+00 0.0000000000000000e+00 0.0000000000000000e+00  -2.4922298444797855e+07 1.6829021540211097e+06 0.0000000000000000e+00 1.6829021540211097e+06 2.8976579215638630e+07 0.0000000000000000e+00 0.0000000000000000e+00 0.0000000000000000e+00 0.0000000000000000e+00  -3.9435368855563372e+07 2.4371224574368265e+06 0.0000000000000000e+00 2.4371224574368265e+06 4.1268013933157980e+07 0.0000000000000000e+00 0.0000000000000000e+00 0.0000000000000000e+00 0.0000000000000000e+00  -4.4220700767315604e+07 -1.6792803603821415e+06 0.0000000000000000e+00 -1.6792803603821415e+06 2.8390162883259870e+07 0.0000000000000000e+00 0.0000000000000000e+00 0.0000000000000000e+00 0.0000000000000000e+00  -3.3682539615369439e+07 -2.5747863446720809e+05 0.0000000000000000e+00 -2.5747863446720809e+05 -7.7929255170523026e+05 0.0000000000000000e+00 0.0000000000000000e+00 0.0000000000000000e+00 0.0000000000000000e+00  -3.9080426210366473e+07 1.2670762417238578e+06 0.0000000000000000e+00 1.2670762417238578e+06 1.9574616010247488e+07 0.0000000000000000e+00 0.0000000000000000e+00 0.0000000000000000e+00 0.0000000000000000e+00  -3.2252026625440188e+07 -1.9688373132895925e+06 0.0000000000000000e+00 -1.9688373132895925e+06 3.6990422085467041e+07 0.0000000000000000e+00 0.0000000000000000e+00 0.0000000000000000e+00 0.0000000000000000e+00  -1.3902749568372488e+07 -2.7879859550028620e+06 0.0000000000000000e+00 -2.7879859550028620e+06 2.2667843579686210e+07 0.0000000000000000e+00 0.0000000000000000e+00 0.0000000000000000e+00 0.0000000000000000e+00  3.9104607367410064e+06 -1.4692537724353899e+06 0.0000000000000000e+00 -1.4692537724353899e+06 1.6445587591859318e+07 0.0000000000000000e+00 0.0000000000000000e+00 0.0000000000000000e+00 0.0000000000000000e+00  8.0189352879297687e+06 -1.4325806154484823e+06 0.0000000000000000e+00 -1.4325806154484823e+06 2.3994354178987090e+07 0.0000000000000000e+00 0.0000000000000000e+00 0.0000000000000000e+00 0.0000000000000000e+00  8.8736018030157406e+06 -1.1813613880008399e+06 0.0000000000000000e+00 -1.1813613880008399e+06 4.3026518011028819e+07 0.0000000000000000e+00 0.0000000000000000e+00 0.0000000000000000e+00 0.0000000000000000e+00  7.3672240260197064e+06 -2.1274978202951057e+06 0.0000000000000000e+00 -2.1274978202951057e+06 6.7783220415417656e+07 0.0000000000000000e+00 0.0000000000000000e+00 0.0000000000000000e+00 0.0000000000000000e+00  6.6272952718532654e+06 -1.4622663987212486e+06 0.0000000000000000e+00 -1.4622663987212486e+06 9.5992598078760087e+07 0.0000000000000000e+00 0.0000000000000000e+00 0.0000000000000000e+00 0.0000000000000000e+00  2.0696592723235390e+06 -1.0581759826019765e+06 0.0000000000000000e+00 -1.0581759826019765e+06 1.2917170573096877e+08 0.0000000000000000e+00 0.0000000000000000e+00 0.0000000000000000e+00 0.0000000000000000e+00  2.7415840003276933e+06 -1.2222431937441628e+06 0.0000000000000000e+00 -1.2222431937441628e+06 1.5278677477970818e+08 0.0000000000000000e+00 0.0000000000000000e+00 0.0000000000000000e+00 0.0000000000000000e+00  -6.9328526249492215e+05 2.2990215865499931e+06 0.0000000000000000e+00 2.2990215865499931e+06 1.7651738675535777e+08 0.0000000000000000e+00 0.0000000000000000e+00 0.0000000000000000e+00 0.0000000000000000e+00  -3.6403783238377981e+05 2.8873231069725432e+05 0.0000000000000000e+00 2.8873231069725432e+05 1.8075334224984029e+08 0.0000000000000000e+00 0.0000000000000000e+00 0.0000000000000000e+00 0.0000000000000000e+00  -5.2559242944440583e+05 2.1235319806404235e+06 0.0000000000000000e+00 2.1235319806404235e+06 1.8527302477985951e+08 0.0000000000000000e+00 0.0000000000000000e+00 0.0000000000000000e+00 0.0000000000000000e+00  -4.6150573080081603e+05 5.9498110052512772e+05 0.0000000000000000e+00 5.9498110052512772e+05 1.9016825084606794e+08 0.0000000000000000e+00 0.0000000000000000e+00 0.0000000000000000e+00 0.0000000000000000e+00  -3.7730663963627780e+05 1.0238688028399742e+06 0.0000000000000000e+00 1.0238688028399742e+06 1.9703387268361607e+08 0.0000000000000000e+00 0.0000000000000000e+00 0.0000000000000000e+00 0.0000000000000000e+00  2.3818557178326970e+05 2.4150428531100694e+06 0.0000000000000000e+00 2.4150428531100694e+06 1.9986630095669517e+08 0.0000000000000000e+00 0.0000000000000000e+00 0.0000000000000000e+00 0.0000000000000000e+00  -1.3131059846731201e+06 4.0800101047513597e+06 0.0000000000000000e+00 4.0800101047513597e+06 2.1592505501066828e+08 0.0000000000000000e+00 0.0000000000000000e+00 0.0000000000000000e+00 0.0000000000000000e+00  -6.1166815625796013e+05 5.8538883110030955e+06 0.0000000000000000e+00 5.8538883110030955e+06 2.3535346247298834e+08 0.0000000000000000e+00 0.0000000000000000e+00 0.0000000000000000e+00 0.0000000000000000e+00  -2.8873077821476720e+06 3.4450799921900867e+06 0.0000000000000000e+00 3.4450799921900867e+06 2.5853060703714409e+08 0.0000000000000000e+00 0.0000000000000000e+00 0.0000000000000000e+00 0.0000000000000000e+00  -6.1006533300689319e+06 -3.3888996452115024e+06 0.0000000000000000e+00 -3.3888996452115024e+06 2.5660229031405312e+08 0.0000000000000000e+00 0.0000000000000000e+00 0.0000000000000000e+00 0.0000000000000000e+00  -5.7525522276742766e+06 -1.8317729081913836e+07 0.0000000000000000e+00 -1.8317729081913836e+07 2.2319743808058798e+08 0.0000000000000000e+00 0.0000000000000000e+00 0.0000000000000000e+00 0.0000000000000000e+00  -8.4638140855823492e+05 -2.1918817776926037e+07 0.0000000000000000e+00 -2.1918817776926037e+07 1.7062529985964572e+08 0.0000000000000000e+00 0.0000000000000000e+00 0.0000000000000000e+00 0.0000000000000000e+00  1.7644835208219931e+07 8.4322646967201188e+04 0.0000000000000000e+00 8.4322646967201188e+04 8.4374430431759030e+07 0.0000000000000000e+00 0.0000000000000000e+00 0.0000000000000000e+00 0.0000000000000000e+00  1.1057126952653069e+07 1.9283630037884496e+07 0.0000000000000000e+00 1.9283630037884496e+07 1.0482953439849420e+08 0.0000000000000000e+00 0.0000000000000000e+00 0.0000000000000000e+00 0.0000000000000000e+00  1.1162404324056280e+06 2.5359816481884457e+07 0.0000000000000000e+00 2.5359816481884457e+07 2.0643972740275946e+08 0.0000000000000000e+00 0.0000000000000000e+00 0.0000000000000000e+00 0.0000000000000000e+00  -5.1058186613321165e+06 1.7270184430058740e+07 0.0000000000000000e+00 1.7270184430058740e+07 2.9658821990512550e+08 0.0000000000000000e+00 0.0000000000000000e+00 0.0000000000000000e+00 0.0000000000000000e+00  -7.1532141629414652e+06 -1.9008938539203119e+07 0.0000000000000000e+00 -1.9008938539203119e+07 3.1676717990928507e+08 0.0000000000000000e+00 0.0000000000000000e+00 0.0000000000000000e+00 0.0000000000000000e+00  1.2791770931868479e+07 -6.4985261981824320e+06 0.0000000000000000e+00 -6.4985261981824320e+06 2.4248218184034830e+08 0.0000000000000000e+00 0.0000000000000000e+00 0.0000000000000000e+00 0.0000000000000000e+00  -9.3015149863161147e+06 1.0185460895812027e+07 0.0000000000000000e+00 1.0185460895812027e+07 2.7275021145912677e+08 0.0000000000000000e+00 0.0000000000000000e+00 0.0000000000000000e+00 0.0000000000000000e+00  -1.2367864809871998e+06 -9.1849973598977868e+06 0.0000000000000000e+00 -9.1849973598977868e+06 2.5763276202452332e+08 0.0000000000000000e+00 0.0000000000000000e+00 0.0000000000000000e+00 0.0000000000000000e+00  5.2066098586842470e+05 -1.1221139541968415e+07 0.0000000000000000e+00 -1.1221139541968415e+07 2.0479743026161188e+08 0.0000000000000000e+00 0.0000000000000000e+00 0.0000000000000000e+00 0.0000000000000000e+00  2.2239964056684896e+06 -1.7075710920700761e+06 0.0000000000000000e+00 -1.7075710920700761e+06 1.8691087376675761e+08 0.0000000000000000e+00 0.0000000000000000e+00 0.0000000000000000e+00 0.0000000000000000e+00  -6.6253484629946435e+05 -2.9553590499657970e+04 0.0000000000000000e+00 -2.9553590499657970e+04 1.8220589217554742e+08 0.0000000000000000e+00 0.0000000000000000e+00 0.0000000000000000e+00 0.0000000000000000e+0