<?xml version="1.0"?>
<VTKFile type="UnstructuredGrid"  version="0.1"  >
<UnstructuredGrid>
<Piece  NumberOfPoints="739" NumberOfCells="1154">
<Points>
<DataArray  type="Float64"  NumberOfComponents="3"  format="ascii">0.764393607234697 0.9753121603228628 0  0.7837247380349148 0.9647648294431679 0  0.7989946096717282 0.9497475986526034 0  0.8240608591792389 0.9193816889342612 0  0.8424905004096495 0.8881909547738693 0  0.7529312861363511 0.8180580100641107 0  0.6650471880325616 0.8881909547738693 0  0.6834768292629722 0.9193816889342612 0  0.7238129504072962 0.9647648294431679 0  0.7419950576928944 0.9750203013471519 0  0.9347331106700073 0.3368997181009147 0  0.9163041410452628 0.3680904522613065 0  0.9647661801634368 0.3013248070867653 0  0.9695004295283666 0.4077539856741304 0  0.9817734812130016 0.2869079135608538 0  1 0.4357023432917833 0  1 0.2805596300381731 0  1 0.5693227823363575 0  1 0 0  0.9695004295283666 0.5972711399540103 0  0.6923778950984857 0 0  0.9163041410452628 0.6369346733668342 0  0.6560609044657821 0.03929354032087964 0  0.9347331106700073 0.668125407527226 0  0.5575042521312742 0.1850037603756773 0  0.9647661801634368 0.7037003185413754 0  0.5257642098570111 0.2156046492532166 0  0.9817734812130016 0.718117212067287 0  0.5012562814070352 0.2222164883886195 0  1 0.7244654955899675 0  0.4910262587765363 0.2212030673019757 0  1 1 0  0.4725566690002611 0.2109959852220623 0  0.6869586246988184 1 0  0.4475208734968665 0.1850037603756773 0  0.6560609044657821 0.9657315853072611 0  0.3489642211623585 0.03929354032087964 0  0.5575042521312742 0.8200213652524634 0  0.3126472305296549 0 0  0.5324684566278796 0.7940291404060784 0  0 0 0  0.5140410119497254 0.7838163049415003 0  0 0.2791942137531627 0  0.5037688442211056 0.7824952411456283 0  0.02199537073743425 0.2861761505628773 0  0.4792609106696009 0.7894204763749241 0  0.0354504850283496 0.2963982056733736 0  0.4475208734968665 0.8200213652524634 0  0.07029201495813334 0.3368997181009147 0  0.3489642211623585 0.9657315853072611 0  0.08872098458287792 0.3680904522613065 0  0.3180665009293223 1 0  0.03552469609977411 0.4077539856741304 0  0 1 0  0 0.4411216136914506 0  0 0.7258309118749781 0  0 0.5639035119366902 0  0.02199537073743425 0.7188489750652634 0  0.03552469609977411 0.5972711399540103 0  0.0354504850283496 0.7086269199547671 0  0.08871852288581257 0.6369346733668342 0  0.07029201495813334 0.668125407527226 0  0.1625419972495006 0.1168341708542714 0  0.2520938394917897 0.18696711556403 0  0.1809642664489018 0.08564343669387944 0  0.339977937595579 0.1168341708542714 0  0.2158057963786856 0.0451419242663384 0  0.3215482963651685 0.08564343669387944 0  0.2292576536302837 0.03491537188170037 0  0.2867067664353848 0.0451419242663384 0  0.25 0.02824473429339298 0  0.2642769553597719 0.03055024048328285 0  0.1302956714247901 0.3381538758220962 0  0.1409797553644573 0.3371691296501306 0  0.09770793975532335 0.2905498217279148 0  0.1656128447131557 0.3215482963651685 0  0.06428916584300515 0.2520938394917897 0  0.2061143571406968 0.2867067664353848 0  0.1344221105527638 0.1625370047335014 0  0.2206749766903439 0.2639988668516045 0  0.1656128447131557 0.1809642664489018 0  0.2222164883886195 0.25 0  0.2061143571406968 0.2158057963786856 0  0.2163364077062002 0.2292609157711296 0  0.3655778894472362 0.3396490172659245 0  0.3722168913892803 0.3381538758220962 0  0.3517533737809194 0.3316593871660964 0  0.404804623058747 0.2905498217279148 0  0.3065338083825725 0.2964820468576578 0  0.4382233969710652 0.2504187233222807 0  0.2869079135608538 0.2745079335515046 0  0.3680904522613065 0.1625394622629582 0  0.2799826783315579 0.2525125628140704 0  0.3368997181009147 0.1809642664489018 0  0.2818369017984488 0.2384715508643449 0  0.2963982056733736 0.2158057963786856 0  0.2397278322713801 0.4724651020936756 0  0.2617992652897745 0.4726716881905746 0  0.2213003875932259 0.4622522666290974 0  0.2812121752208444 0.4622522666290974 0  0.1809642664489018 0.4168691261201908 0  0.2964820468576578 0.447235035838533 0  0.1625451114264703 0.385678391959799 0  0.3215482963651685 0.4168691261201908 0  0.2504187233222807 0.3155454472500404 0  0.3399772659899131 0.385678391959799 0  0.4137915782311925 0.3680904522613065 0  0.5033501208988249 0.4382233969710652 0  0.432220547855937 0.3368997181009147 0  0.5912335473969482 0.3680904522613065 0  0.4670620777857208 0.2963982056733736 0  0.5728045777722037 0.3368997181009147 0  0.4805171920766361 0.2861761505628773 0  0.53796304784242 0.2963982056733736 0  0.5012562814070352 0.2799826783315579 0  0.5152972933567607 0.2818369017984488 0  0.3815519528318253 0.5894101572291314 0  0.3922360367714924 0.5884254110571658 0  0.3489642211623585 0.5418061031349499 0  0.4168691261201908 0.5728045777722037 0  0.3155454472500404 0.5033501208988249 0  0.457370638547732 0.53796304784242 0  0.385678391959799 0.4137915782311925 0  0.4719319424226567 0.5152972933567607 0  0.4168691261201908 0.432220547855937 0  0.4737861658895475 0.5012562814070352 0  0.457370638547732 0.4670620777857208 0  0.4675926936582282 0.4805171920766361 0  0.6328082342388605 0.3381538758220962 0  0.6434923181785276 0.3371691296501306 0  0.6002205025693937 0.2905498217279148 0  0.668125407527226 0.3215482963651685 0  0.5668017286570755 0.2520938394917897 0  0.7086269199547671 0.2867067664353848 0  0.6369346733668342 0.1625370047335014 0  0.7231882238296919 0.2640410119497255 0  0.668125407527226 0.1809642664489018 0  0.7250424472965827 0.25 0  0.7086269199547671 0.2158057963786856 0  0.7188489750652634 0.2292609106696009 0  0.6650471880325616 0.1168341708542714 0  0.75460640230586 0.18696711556403 0  0.6834768292629722 0.08564343669387944 0  0.8424905004096495 0.1168341708542714 0  0.7183183591927559 0.0451419242663384 0  0.8240608591792389 0.08564343669387944 0  0.731770216444354 0.03491537188170037 0  0.7892193292494551 0.0451419242663384 0  0.7525125628140703 0.02824473429339298 0  0.7667895181738422 0.03055024048328285 0  0.8680904522613065 0.3396490172659245 0  0.8747294542033506 0.3381538758220962 0  0.8542659365949897 0.3316593871660964 0  0.9073171858728174 0.2905498217279148 0  0.8090463711966429 0.2964820468576578 0  0.9407359597851355 0.2504187233222807 0  0.7894204763749241 0.2745079335515046 0  0.8706030150753769 0.1625394622629582 0  0.7824952411456283 0.2525125628140704 0  0.839412280914985 0.1809642664489018 0  0.7843494646125191 0.2384715508643449 0  0.7989107684874439 0.2158057963786856 0  0.7422403950854504 0.4724651020936756 0  0.7643118281038449 0.4726716881905746 0  0.7238129504072962 0.4622522666290974 0  0.7837247380349148 0.4622522666290974 0  0.6834768292629722 0.4168691261201908 0  0.7989946096717282 0.447235035838533 0  0.6650478596382277 0.385678391959799 0  0.8240608591792389 0.4168691261201908 0  0.7529312861363511 0.3155454472500404 0  0.8424898288039834 0.385678391959799 0  0.8840645156458956 0.5894101572291314 0  0.8947485995855627 0.5884254110571658 0  0.8514767839764289 0.5418061031349499 0  0.9193816889342612 0.5728045777722037 0  0.8180580100641107 0.5033501208988249 0  0.9598832013618024 0.53796304784242 0  0.8881909547738693 0.4137915782311925 0  0.9744750681453069 0.5155426307493166 0  0.9193816889342612 0.432220547855937 0  0.9769195052742177 0.5012562814070352 0  0.9598832013618024 0.4670620777857208 0  0.9701097549142292 0.4805139337647524 0  0.114321608040201 0.5909052986729597 0  0.1209606099822451 0.5894101572291314 0  0.1004970923738842 0.5829156685731316 0  0.1535483416517118 0.5418061031349499 0  0.05527752697553735 0.547738328264693 0  0.18696711556403 0.5016750047293158 0  0.03565125612739149 0.525767471997857 0  0.1168341708542714 0.4137915782311925 0  0.02824473429339298 0.5037688442211056 0  0.08564343669387944 0.432220547855937 0  0.03055024048328285 0.4894918888613336 0  0.0451419242663384 0.4670620777857208 0  0.1625426657973895 0.6193467336683417 0  0.2520938394917897 0.6894796783781003 0  0.1809642664489018 0.5881559995079498 0  0.3399772659899131 0.6193467336683417 0  0.2158057963786856 0.5476544870804088 0  0.3215482963651685 0.5881559995079498 0  0.2292609106696009 0.5374324319699125 0  0.2867067664353848 0.5476544870804088 0  0.25 0.5312389597385931 0  0.2640410119497255 0.5330931832054839 0  0.4909841136784153 0.7237213835007107 0  0.5130555466968096 0.7239279695976099 0  0.4725566690002611 0.7135085480361327 0  0.5324684566278796 0.7135085480361327 0  0.432220547855937 0.668125407527226 0  0.547738328264693 0.6984913172455682 0  0.4137915782311925 0.6369346733668342 0  0.5728045777722037 0.668125407527226 0  0.5016750047293158 0.5668017286570755 0  0.5912335473969482 0.6369346733668342 0  0.1302956714247901 0.8406668951564554 0  0.1409797553644573 0.8396817160693495 0  0.09770793975532335 0.7930623845419852 0  0.1656128447131557 0.8240608591792389 0  0.06428916584300515 0.75460640230586 0  0.2061143571406968 0.7892193292494551 0  0.1344221105527638 0.6650478596382277 0  0.2206749766903439 0.7665114296656748 0  0.1656128447131557 0.6834768292629722 0  0.2222164883886195 0.7525125628140703 0  0.2061143571406968 0.7183183591927559 0  0.2163364077062002 0.7317734785852 0  0.2394824948788241 0.9750203013471519 0  0.2618810444206265 0.9753121603228628 0  0.2213003875932259 0.9647648294431679 0  0.2812121752208444 0.9647648294431679 0  0.1809642664489018 0.9193816889342612 0  0.2964820468576578 0.9497475986526034 0  0.1625419972495006 0.8881909547738693 0  0.3215482963651685 0.9193816889342612 0  0.2504187233222807 0.8180580100641107 0  0.339977937595579 0.8881909547738693 0  0.3655778894472362 0.8421621907805737 0  0.3722168913892803 0.8406668951564554 0  0.3517533737809194 0.8341719499801667 0  0.404804623058747 0.7930623845419852 0  0.3065338083825725 0.7989946096717282 0  0.4382233969710652 0.7529312861363511 0  0.2869079135608538 0.7770204963655749 0  0.3680904522613065 0.6650478596382277 0  0.2799826783315579 0.7550251256281407 0  0.3368997181009147 0.6834768292629722 0  0.2818369017984488 0.7409841136
[...]
<PointData  Tensors="$\sigma$"> 
<DataArray  type="Float64"  Name="$\sigma$"  NumberOfComponents="9" format="ascii">9.9464504711935984e+05 1.0196408308984956e+05 0.0000000000000000e+00 1.0196408308984956e+05 1.0084276447999004e+07 0.0000000000000000e+00 0.0000000000000000e+00 0.0000000000000000e+00 0.0000000000000000e+00  2.0237840518280484e+07 -9.7153450259945896e+06 0.0000000000000000e+00 -9.7153450259945896e+06 2.8007751409618729e+06 0.0000000000000000e+00 0.0000000000000000e+00 0.0000000000000000e+00 0.0000000000000000e+00  6.4919782630873937e+06 -8.8916024245786015e+06 0.0000000000000000e+00 -8.8916024245786015e+06 6.9158101817978043e+06 0.0000000000000000e+00 0.0000000000000000e+00 0.0000000000000000e+00 0.0000000000000000e+00  -4.8658304788433462e+06 -2.2056597524250910e+07 0.0000000000000000e+00 -2.2056597524250910e+07 6.6715556956746392e+07 0.0000000000000000e+00 0.0000000000000000e+00 0.0000000000000000e+00 0.0000000000000000e+00  5.0606661119948633e+07 5.2181923469334550e+07 0.0000000000000000e+00 5.2181923469334550e+07 1.1280102311570953e+08 0.0000000000000000e+00 0.0000000000000000e+00 0.0000000000000000e+00 0.0000000000000000e+00  -1.5756200702321318e+08 -2.3454583429625109e+06 0.0000000000000000e+00 -2.3454583429625104e+06 -8.9539641532066278e+06 0.0000000000000000e+00 0.0000000000000000e+00 0.0000000000000000e+00 0.0000000000000000e+00  7.3638606390601993e+07 -3.9124404167462543e+07 0.0000000000000000e+00 -3.9124404167462543e+07 1.7535389499916142e+08 0.0000000000000000e+00 0.0000000000000000e+00 0.0000000000000000e+00 0.0000000000000000e+00  -4.0983036143679939e+07 -1.5131484047423461e+07 0.0000000000000000e+00 -1.5131484047423461e+07 8.7047668009071201e+07 0.0000000000000000e+00 0.0000000000000000e+00 0.0000000000000000e+00 0.0000000000000000e+00  -5.7947236720962860e+07 -8.7502213513098225e+07 0.0000000000000000e+00 -8.7502213513098225e+07 4.2474622922452852e+07 0.0000000000000000e+00 0.0000000000000000e+00 0.0000000000000000e+00 0.0000000000000000e+00  5.6804864843365431e+07 -5.6461137108519271e+07 0.0000000000000000e+00 -5.6461137108519271e+07 -1.4291467990233648e+08 0.0000000000000000e+00 0.0000000000000000e+00 0.0000000000000000e+00 0.0000000000000000e+00  1.0145272010357741e+07 -5.7459539446587339e+07 0.0000000000000000e+00 -5.7459539446587339e+07 2.0329066072692773e+08 0.0000000000000000e+00 0.0000000000000000e+00 0.0000000000000000e+00 0.0000000000000000e+00  1.0225055976502842e+08 5.5831308371773273e+07 0.0000000000000000e+00 5.5831308371773273e+07 2.3411809496044952e+08 0.0000000000000000e+00 0.0000000000000000e+00 0.0000000000000000e+00 0.0000000000000000e+00  -3.4405724786372758e+07 3.9249924919419818e+07 0.0000000000000000e+00 3.9249924919419810e+07 -3.2789456370771028e+07 0.0000000000000000e+00 0.0000000000000000e+00 0.0000000000000000e+00 0.0000000000000000e+00  2.4106606094581317e+07 1.1247918376184145e+08 0.0000000000000000e+00 1.1247918376184145e+08 7.7522574708372176e+07 0.0000000000000000e+00 0.0000000000000000e+00 0.0000000000000000e+00 0.0000000000000000e+00  -1.1195075158293577e+08 4.8942432769193567e+07 0.0000000000000000e+00 4.8942432769193567e+07 -5.2868568037769362e+07 0.0000000000000000e+00 0.0000000000000000e+00 0.0000000000000000e+00 0.0000000000000000e+00  -2.8421366252856310e+06 -1.3291138289415481e+07 0.0000000000000000e+00 -1.3291138289415481e+07 8.0422456819351856e+06 0.0000000000000000e+00 0.0000000000000000e+00 0.0000000000000000e+00 0.0000000000000000e+00  -1.5594146154669367e+07 5.5607658023836603e+06 0.0000000000000000e+00 5.5607658023836594e+06 -1.6973687830428295e+07 0.0000000000000000e+00 0.0000000000000000e+00 0.0000000000000000e+00 0.0000000000000000e+00  -1.5220294049425643e+07 2.1857189945407994e+07 0.0000000000000000e+00 2.1857189945407994e+07 2.5027823509775568e+06 0.0000000000000000e+00 0.0000000000000000e+00 0.0000000000000000e+00 0.0000000000000000e+00  3.0439447438066299e+06 2.0317121338316093e+06 0.0000000000000000e+00 2.0317121338316093e+06 3.8698326482834056e+07 0.0000000000000000e+00 0.0000000000000000e+00 0.0000000000000000e+00 0.0000000000000000e+00  3.8489846024150103e+07 -7.8209461680905476e+07 0.0000000000000000e+00 -7.8209461680905476e+07 5.1257305624193311e+07 0.0000000000000000e+00 0.0000000000000000e+00 0.0000000000000000e+00 0.0000000000000000e+00  9.3507872914225906e+07 -4.2514228557148606e+07 0.0000000000000000e+00 -4.2514228557148606e+07 1.7899086234731025e+08 0.0000000000000000e+00 0.0000000000000000e+00 0.0000000000000000e+00 0.0000000000000000e+00  1.0029598464278312e+08 -1.9712343534784984e+07 0.0000000000000000e+00 -1.9712343534784984e+07 2.0469385274085382e+08 0.0000000000000000e+00 0.0000000000000000e+00 0.0000000000000000e+00 0.0000000000000000e+00  2.3222785027048402e+07 -6.3967006980523750e+07 0.0000000000000000e+00 -6.3967006980523750e+07 1.1378758701804626e+08 0.0000000000000000e+00 0.0000000000000000e+00 0.0000000000000000e+00 0.0000000000000000e+00  -4.5719023570079273e+06 6.7376970637673691e+07 0.0000000000000000e+00 6.7376970637673691e+07 1.1231582933156213e+08 0.0000000000000000e+00 0.0000000000000000e+00 0.0000000000000000e+00 0.0000000000000000e+00  -4.4988986722507991e+07 1.8354293243927602e+07 0.0000000000000000e+00 1.8354293243927594e+07 3.6819299171821424e+06 0.0000000000000000e+00 0.0000000000000000e+00 0.0000000000000000e+00 0.0000000000000000e+00  -5.4741723309228793e+07 -5.1768990648913339e+07 0.0000000000000000e+00 -5.1768990648913339e+07 3.9840089564030403e+06 0.0000000000000000e+00 0.0000000000000000e+00 0.0000000000000000e+00 0.0000000000000000e+00  -9.9184118442586899e+07 8.4969118844583333e+07 0.0000000000000000e+00 8.4969118844583333e+07 -4.5701366115826145e+07 0.0000000000000000e+00 0.0000000000000000e+00 0.0000000000000000e+00 0.0000000000000000e+00  -1.3765313143702018e+08 -1.1998175594192506e+08 0.0000000000000000e+00 -1.1998175594192506e+08 -3.7245741648417138e+07 0.0000000000000000e+00 0.0000000000000000e+00 0.0000000000000000e+00 0.0000000000000000e+00  -1.2507471601532638e+08 1.7037373987241678e+07 0.0000000000000000e+00 1.7037373987241678e+07 -1.1966160144737476e+07 0.0000000000000000e+00 0.0000000000000000e+00 0.0000000000000000e+00 0.0000000000000000e+00  9.0610785413794816e+06 1.1441980683247693e+07 0.0000000000000000e+00 1.1441980683247693e+07 -5.0922124447049081e+07 0.0000000000000000e+00 0.0000000000000000e+00 0.0000000000000000e+00 0.0000000000000000e+00  -1.3932966082514691e+08 -5.8152594914375469e+07 0.0000000000000000e+00 -5.8152594914375469e+07 -2.9222799745696701e+07 0.0000000000000000e+00 0.0000000000000000e+00 0.0000000000000000e+00 0.0000000000000000e+00  1.8162530457838962e+05 -1.0430321006098264e+06 0.0000000000000000e+00 -1.0430321006098264e+06 3.8772882819020979e+07 0.0000000000000000e+00 0.0000000000000000e+00 0.0000000000000000e+00 0.0000000000000000e+00  -9.3216796060070485e+07 -9.6854318926541358e+07 0.0000000000000000e+00 -9.6854318926541358e+07 -7.1679337536505803e+07 0.0000000000000000e+00 0.0000000000000000e+00 0.0000000000000000e+00 0.0000000000000000e+00  7.0455519333744243e+07 5.0095382921612285e+07 0.0000000000000000e+00 5.0095382921612285e+07 1.5043694626928604e+08 0.0000000000000000e+00 0.0000000000000000e+00 0.0000000000000000e+00 0.0000000000000000e+00  -4.4287724887188263e+07 -1.6345676667182721e+07 0.0000000000000000e+00 -1.6345676667182723e+07 5.2954563294617059e+06 0.0000000000000000e+00 0.0000000000000000e+00 0.0000000000000000e+00 0.0000000000000000e+00  1.0459672128749041e+07 7.2903159797192439e+07 0.0000000000000000e+00 7.2903159797192439e+07 7.6621582659911156e+07 0.0000000000000000e+00 0.0000000000000000e+00 0.0000000000000000e+00 0.0000000000000000e+00  3.2196577481476944e+07 5.6861709285959341e+07 0.0000000000000000e+00 5.6861709285959341e+07 1.2976259083148600e+08 0.0000000000000000e+00 0.0000000000000000e+00 0.0000000000000000e+00 0.0000000000000000e+00  -2.5815293963928066e+07 -2.6369721918663781e+07 0.0000000000000000e+00 -2.6369721918663781e+07 1.7315950430285588e+07 0.0000000000000000e+00 0.0000000000000000e+00 0.0000000000000000e+00 0.0000000000000000e+00  6.0822143915889204e+07 5.0397181150122628e+07 0.0000000000000000e+00 5.0397181150122628e+07 1.1766543548591386e+08 0.0000000000000000e+00 0.0000000000000000e+00 0.0000000000000000e+00 0.0000000000000000e+00  -1.0257262085399543e+08 -7.8639670047984377e+07 0.0000000000000000e+00 -7.8639670047984377e+07 -6.7640551453435451e+07 0.0000000000000000e+00 0.0000000000000000e+00 0.0000000000000000e+00 0.0000000000000000e+00  1.8186442926225655e+06 -2.4324530150611745e+06 0.0000000000000000e+00 -2.4324530150611722e+06 3.8045908433145359e+07 0.0000000000000000e+00 0.0000000000000000e+00 0.0000000000000000e+00 0.0000000000000000e+00  -1.3475462076087162e+08 -3.7604530965706259e+07 0.0000000000000000e+00 -3.7604530965706259e+07 -1.3547743351028962e+07 0.0000000000000000e+00 0.0000000000000000e+00 0.0000000000000000e+00 0.0000000000000000e+00  2.9789623237257481e+07 -1.4522295516344352e+07 0.0000000000000000e+00 -1.4522295516344352e+07 -4.7854202472516738e+07 0.0000000000000000e+00 0.0000000000000000e+00 0.0000000000000000e+00 0.0000000000000000e+00  -1.2999915670027664e+08 2.2883723508683518e+07 0.0000000000000000e+00 2.2883723508683518e+07 -2.2618240541542042e+07 0.0000000000000000e+00 0.0000000000000000e+00 0.0000000000000000e+00 0.0000000000000000e+00  -8.5834233662615299e+07 -4.4471452652983367e+07 0.0000000000000000e+00 -4.4471452652983367e+07 -4.8983990726021826e+07 0.0000000000000000e+00 0.0000000000000000e+00 0.0000000000000000e+00 0.0000000000000000e+00  -9.6589858901730075e+07 7.8840162954634950e+07 0.0000000000000000e+00 7.8840162954634950e+07 -4.8994474924258530e+07 0.0000000000000000e+00 0.0000000000000000e+00 0.0000000000000000e+00 0.0000000000000000e+00  -3.7081593266043320e+07 -5.1414854394637384e+07 0.0000000000000000e+00 -5.1414854394637384e+07 -8.3266936145439500e+05 0.0000000000000000e+00 0.0000000000000000e+00 0.0000000000000000e+00 0.0000000000000000e+00  -2.9890587918554012e+07 2.8337113283306047e+07 0.0000000000000000e+00 2.8337113283306047e+07 9.1595172435332295e+06 0.0000000000000000e+00 0.0000000000000000e+00 0.0000000000000000e+00 0.0000000000000000e+00  2.7389560421823863e+07 9.0371824691004679e+07 0.0000000000000000e+00 9.0371824691004679e+07 1.6412030145510334e+08 0.0000000000000000e+00 0.0000000000000000e+00 0.0000000000000000e+00 0.0000000000000000e+00  -1.1517460032386191e+07 -5.2656736962832525e+07 0.0000000000000000e+00 -5.2656736962832525e+07 2.1345239168522945e+08 0.0000000000000000e+00 0.0000000000000000e+00 0.0000000000000000e+00 0.0000000000000000e+00  1.1573034525447090e+08 -5.0833109999397442e+07 0.0000000000000000e+00 -5.0833109999397442e+07 2.5227212766171488e+08 0.0000000000000000e+00 0.0000000000000000e+00 0.0000000000000000e+00 0.0000000000000000e+00  9.6976615149855763e+07 -3.3958325060648747e+07 0.0000000000000000e+00 -3.3958325060648747e+07 1.6809981513681340e+08 0.0000000000000000e+00 0.0000000000000000e+00 0.0000000000000000e+00 0.0000000000000000e+00  1.7429269202823259e+07 -1.0081886033786975e+08 0.0000000000000000e+00 -1.0081886033786975e+08 7.0232942235764176e+07 0.0000000000000000e+00 0.0000000000000000e+00 0.0000000000000000e+00 0.0000000000000000e+00  8.9890960098735616e+05 7.4591672390204272e+05 0.0000000000000000e+00 7.4591672390204272e+05 3.6424600851352319e+07 0.0000000000000000e+00 0.0000000000000000e+00 0.0000000000000000e+00 0.0000000000000000e+00  -1.7366376922755517e+07 2.6158008891574636e+07 0.0000000000000000e+00 2.6158008891574636e+07 -7.7550072408184577e+06 0.0000000000000000e+00 0.0000000000000000e+00 0.0000000000000000e+00 0.0000000000000000e+00  3.0902331716492925e+07 1.5781401738896966e+07 0.0000000000000000e+00 1.5781401738896966e+07 -5.0450565170778178e+07 0.0000000000000000e+00 0.0000000000000000e+00 0.0000000000000000e+00 0.0000000000000000e+00  -2.0710626924524596e+06 -3.1406978534319140e+07 0.0000000000000000e+00 -3.1406978534319140e+07 -1.4266844618413955e+07 0.0000000000000000e+00 0.0000000000000000e+00 0.0000000000000000e+00 0.0000000000000000e+00  -9.1701143622018665e+07 3.3664431697622254e+07 0.0000000000000000e+00 3.3664431697622254e+07 -4.1713182274626315e+07 0.0000000000000000e+00 0.0000000000000000e+00 0.0000000000000000e+00 0.0000000000000000e+00  2.3189068551749740e+07 6.6578898926235057e+07 0.0000000000000000e+00 6.6578898926235057e+07 5.1190352954771876e+07 0.0000000000000000e+00 0.0000000000000000e+00 0.0000000000000000e+00 0.0000000000000000e+00  -4.5512330935731083e+07 6.7563908179395005e+07 0.0000000000000000e+00 6.7563908179395005e+07 -1.1592396387672089e+07 0.0000000000000000e+00 0.0000000000000000e+00 0.0000000000000000e+00 0.0000000000000000e+00  9.7020412293330640e+07 3.9842598199914008e+07 0.0000000000000000e+00 3.9842598199914008e+07 2.4222050570677727e+08 0.0000000000000000e+00 0.0000000000000000e+00 0.0000000000000000e+00 0.0000000000000000e+00  4.9234289468468307e+06 -6.9252114593649998e+07 0.0000000000000000e+00 -6.9252114593649998e+07 1.2499008447304039e+08 0.0000000000000000e+00 0.0000000000000000e+00 0.0000000000000000e+00 0.0000000000000000e+00  6.2438927107451312e+07 5.5799037858422615e+07 0.0000000000000000e+00 5.5799037858422615e+07 1.1252304120264058e+08 0.0000000000000000e+00 0.0000000000000000e+00 0.0000000000000000e+00 0.0000000000000000e+00  -1.5290475520382160e+08 -9.6504779761387035e+06 0.0000000000000000e+00 -9.6504779761387035e+06 -1.0995719339741085e+07 0.0000000000000000e+00 0.0000000000000000e+00 0.0000000000000000e+00 0.0000000000000000e+00  -5.2994657228476573e+06 -3.2837071649661936e+07 0.0000000000000000e+00 -3.2837071649661936e+07 5.9657594532467075e+07 0.0000000000000000e+00 0.0000000000000000e+00 0.0000000000000000e+00 0.0000000000000000e+00  1.0234067193020706e+08 -5.2300314413017333e+07 0.0000000000000000e+00 -5.2300314413017333e+07 1.9688539156092727e+08 0.0000000000000000e+00 0.0000000000000000e+00 0.0000000000000000e+00 0.0000000000000000e+00  1.9442647471507717e+07 -1.0770807527821057e+06 0.0000000000000000e+00 -1.0770807527821057e+06 3.4694029327054168e+06 0.0000000000000000e+00 0.0000000000000000e+00 0.0000000000000000e+00 0.0000000000000000e+00  -9.4952538137410022e+06 3.8984545464672156e+07 0.0000000000000000e+00 3.8984545464672156e+07 4.4828519714399643e+07 0.0000000000000000e+00 0.0000000000000000e+00 0.0000000000000000e+00 0.0000000000000000e+00  2.4601236676160473e+07 -8.1510507275458490e+06 0.0000000000000000e+00 -8.1510507275458518e+06 -2.3487251977574662e+06 0.0000000000000000e+00 0.0000000000000000e+00 0.0000000000000000e+00 0.0000000000000000e+00  -7.8340228027101770e+07 -8.9337589655031875e+07 0.0000000000000000e+00 -8.9337589655031875e+07 8.4923037755576685e+07 0.0000000000000000e+00 0.0000000000000000e+00 0.0000000000000000e+00 0.0000000000000000e+00  -4.1358842658306919e+07 -1.1125632709585134e+07 0.0000000000000000e+00 -1.1125632709585140e+07 1.9089590566029708e+05 0.0000000000000000e+00 0.0000000000000000e+00 0.0000000000000000e+00 0.0000000000000000e+00  5.7373209382907689e+07 -9.0372276312056780e+07 0.0000000000000000e+00 -9.0372276312056780e+07 -9.6755441452087611e+07 0.0000000000000000e+00 0.0000000000000000e+00 0.0000000000000000e+00 0.0000000000000000e+00  -5.2227558092312731e+07 -5.6755160661198378e+07 0.0000000000000000e+00 -5.6755160661198378e+07 -1.8664955693084832e+07 0.0000000000000000e+00 0.0000000000000000e+00 0.0000000000000000e+00 0.0000000000000000e+00  -1.8112439530139610e+08 5.5094969121028498e+07 0.0000000000000000e+00 5.5094969121028498e+07 -5.1657821307212807e+07 0.0000000000000000e+00 0.0000000000000000e+00 0.0000000000000000e+00 0.0000000000000000e+00  2.0548491354779642e+07 5.1420224936335035e+07 0.0000000000000000e+00 5.1420224936335035e+07 1.1256735252907123e+08 0.0000000000000000e+00 0.0000000000000000e+00 0.0000000000000000e+00 0.0000000000000000e+00  -1.5236661502178749e+07 -2.5922627505827602e+07 0.0000000000000000e+00 -2.5922627505827602e+07 3.0564396946646709e+07 0.0000000000000000e+00 0.0000000000000000e+00 0.0000000000000000e+00 0.0000000000000000e+00  6.9021003937974513e+07 3.6615626075214148e+07 0.0000000000000000e+00 3.6615626075214148e+07 2.2840834289986217e+08 0.0000000000000000e+00 0.0000000000000000e+00 0.0000000000000000e+00 0.0000000000000000e+00  4.8962472242647476e+07 -8.1031470368048340e+07 0.0000000000000000e+00 -8.1031470368048340e+07 8.8973699370179281e+07 0.0000000000000000e+00 0.0000000000000000e+00 0.0000000000000000e+00 0.0000000000000000e+00  -1.3567643147106105e+08 -1.8831928772638239e+07 0.0000000000000000e+00 -1.8831928772638243e+07 -3.4006951319308020e+07 0.0000000000000000e+00 0.0000000000000000e+00 0.0000000000000000e+00 0.0000000000000000e+00  4.3730838265472010e+07 -7.2471967394737631e+07 0.0000000000000000e+00 -7.2471967394737631e+07 1.6608136530197224e+08 0.0000000000000000e+00 0.0000000000000000e+00 0.0000000000000000e+00 0.0000000000000000e+00  -1.2102579032709160e+08 -3.0028004946738150e+07 0.0000000000000000e+00 -3.0028004946738146e+07 1.6074421641668810e+07 0.0000000000000000e+00 0.0000000000000000e+00 0.0000000000000000e+00 0.0000000000000000e+00  9.1504649149237219e+06 1.3657491758132009e+07 0.0000000000000000e+00 1.3657491758132009e+07 1.3620208387328035e+08 0.0000000000000000e+00 0.0000000000000000e+00 0.0000000000000000e+00 0.0000000000000000e+00  4.1566022580223911e+07 7.3672413130499989e+07 0.0000000000000000e+00 7.3672413130499989e+07 7.0468871524849430e+07 0.0000000000000000e+00 0.0000000000000000e+00 0.0000000000000000e+00 0.0000000000000000e+00  9.0855980940225005e+07 7.9364770467644021e+07 0.0000000000000000e+00 7.9364770467644021e+07 1.1393267811233567e+08 0.0000000000000000e+00 0.0000000000000000e+00 0.0000000000000000e+00 0.0000000000000000e+00  -2.3408907435310084e+08 -1.3490747157866990e+07 0.0000000000000000e+00 -1.3490747157866990e+07 -8.1718160041311607e+07 0.0000000000000000e+00 0.0000000000000000e+00 0.0000000000000000e+00 0.0000000000000000e+00  -7.0699140920384794e+07 3.9595739435106091e+07 0.0000000000000000e+00 3.9595739435106091e+07 -3.4696783744437317e+06 0.0000000000000000e+00 0.0000000000000000e+00 0.0000000000000000e+00 0.0000000000000000e+00  -8.8831743185784668e+07 -3.7623357735756502e+07 0.0000000000000000e+00 -3.7623357735756502e+07 2.2440495525204230e+07 0.0000000000000000e+00 0.0000000000000000e+00 0.0000000000000000e+00 0.0000000000000000e+00  8.0444018822609354e+06 -3.1563091282684233e+07 0.0000000000000000e+00 -3.1563091282684233e+07 3.3851793077418350e+07 0.0000000000000000e+00 0.0000000000000000e+00 0.0000000000000000e+00 0.0000000000000000e+00  -3.5426329572766307e+06 4.9808813191862203e+07 0.0000000000000000e+00 4.9808813191862203e+07 6.1725101520102322e+07 0.0000000000000000e+00 0.0000000000000000e+00 0.0000000000000000e+00 0.0000000000000000e+00  2.5068062004386745e+07 2.1062987102657415e+07 0.0000000000000000e+00 2.1062987102657415e+07 1.2936502382149656e+08 0.0000000000000000e+00 0.0000000000000000e+00 0.0000000000000000e+00 0.0000000000000000e+00  7.5773654821040034e+07 8.7248635946023718e+07 0.0000000000000000e+00 8.7248635946023718e+07 8.2260425330009460e+07 0.0000000000000000e+00 0.0000000000000000e+00 0.0000000000000000e+00 0.0000000000000000e+00  -1.5482090939569947e+08 3.7643035580744267e+07 0.0000000000000000e+00 3.7643035580744267e+07 -3.9934471526624151e+07 0.0000000000000000e+00 0.0000000000000000e+00 0.0000000000000000e+00 0.0000000000000000e+00  -4.4354983324334044e+06 -4.0676586550395668e+05 0.0000000000000000e+00 -4.0676586550395668e+05 1.3363990025098011e+08 0.0000000000000000e+00 0.0000000000000000e+00 0.0000000000000000e+00 0.0000000000000000e+00  -1.3594314281646222e+08 4.9490112745133452e+07 0.0000000000000000e+00 4.9490112745133452e+07 3.4288318055375166e+07 0.0000000000000000e+00 0.0000000000000000e+00 0.0000000000000000e+00 0.0000000000000000e+00  8.5510460405505553e+07 -6.5310097632918604e+07 0.0000000000000000e+00 -6.5310097632918604e+07 1.3378512460045730e+08 0.0000000000000000e+00 0.00000000