<?xml version="1.0"?>
<VTKFile type="UnstructuredGrid"  version="0.1"  >
<UnstructuredGrid>
<Piece  NumberOfPoints="628" NumberOfCells="1153">
<Points>
<DataArray  type="Float64"  NumberOfComponents="3"  format="ascii">0.4511844635310917 0.4511844635310908 0  0.5690355937288492 0.4023689270621825 0  0.4714045207910317 0.5 0  0.4511844635310917 0.5488155364689082 0  0.5690355937288492 0.5976310729378175 0  0.5488155364689085 0.5488155364689085 0  0.5488155364689085 0.4511844635310909 0  0 0 0  1 0 0  0 1 0  1 1 0  0.4315550153456424 0.4113798802392596 0  0.4402134220654749 0.3678511301977579 0  0.4735812220364821 0.3385883550013342 0  0.5178677264469864 0.3356856641462875 0  0.5547696188837712 0.360342720371343 0  0.4661494991230308 0.4735812220364821 0  0.4661494991230309 0.5264187779635175 0  0.5547696188837711 0.6396572796286573 0  0.5178677264469863 0.6643143358537126 0  0.4735812220364821 0.6614116449986658 0  0.4402134220654749 0.6321488698022421 0  0.4315550153456424 0.5886201197607401 0  0.5637805720608482 0.5712122949742994 0  0.5309478100219223 0.517867726446986 0  0.5309478100219225 0.4821322735530135 0  0.5637805720608483 0.4287877050257004 0  0.05 0 0  0.1 0 0  0.15 0 0  0.2 0 0  0.25 0 0  0.3 0 0  0.35 0 0  0.4 0 0  0.45 0 0  0.5 0 0  0.55 0 0  0.6 0 0  0.65 0 0  0.7 0 0  0.75 0 0  0.8 0 0  0.85 0 0  0.9 0 0  0.95 0 0  0 0.95 0  0 0.9 0  0 0.85 0  0 0.8 0  0 0.75 0  0 0.7 0  0 0.65 0  0 0.6 0  0 0.55 0  0 0.5 0  0 0.45 0  0 0.4 0  0 0.35 0  0 0.3 0  0 0.25 0  0 0.2 0  0 0.15 0  0 0.09999999999999998 0  0 0.05000000000000004 0  1 0.05 0  1 0.1 0  1 0.15 0  1 0.2 0  1 0.25 0  1 0.3 0  1 0.35 0  1 0.4 0  1 0.45 0  1 0.5 0  1 0.55 0  1 0.6 0  1 0.65 0  1 0.7 0  1 0.75 0  1 0.8 0  1 0.85 0  1 0.9 0  1 0.95 0  0.95 1 0  0.9 1 0  0.85 1 0  0.8 1 0  0.75 1 0  0.7 1 0  0.65 1 0  0.6 1 0  0.55 1 0  0.5 1 0  0.45 1 0  0.4 1 0  0.35 1 0  0.3 1 0  0.25 1 0  0.2 1 0  0.15 1 0  0.09999999999999998 1 0  0.05000000000000004 1 0  0.5892874157481957 0.4201292983058679 0  0.5890806786008468 0.5777844790872571 0  0.9589665461129752 0.3220828423641652 0  0.9591947170503715 0.6774335805977834 0  0.960816118697579 0.4748723304337334 0  0.04383183593924078 0.7243952976303087 0  0.04325181369731002 0.2753309222258626 0  0.2811050123413154 0.039904828011886 0  0.2747283153863235 0.9595841087612196 0  0.04308037203153059 0.4753271043204484 0  0.7224720813202953 0.9594095212601204 0  0.7254898175520572 0.04331396066678422 0  0.4253782299221437 0.9498752934938455 0  0.4251883825023596 0.04065144502874762 0  0.5764927029720748 0.9559649874629469 0  0.5764712899844383 0.04359540902541237 0  0.9547841295021616 0.8294151002590764 0  0.9580720996551512 0.1773833009596702 0  0.9589702897725405 0.5747777104234656 0  0.8271185894652704 0.960858589451312 0  0.8231489589687558 0.04202085096842345 0  0.1767660314789862 0.9585339924494729 0  0.1700624348517566 0.04012970877534849 0  0.04375970112898953 0.5737781145634764 0  0.04767733816026715 0.8228777914832748 0  0.04341525426729115 0.1754714853499806 0  0.04316031454043484 0.3755452265559685 0  0.4356054594794963 0.4777418837519105 0  0.5623619172108615 0.5201285743511966 0  0.5948980292468331 0.6066949544288005 0  0.6189300220287973 0.5876694856691697 0  0.6252329533171672 0.6185283605690127 0  0.6504860784483476 0.596934502007328 0  0.6564419191606645 0.6314101827598086 0  0.6824115782111191 0.608823399309292 0  0.6899721774876757 0.6427790528414223 0  0.6623717773418829 0.666772732206575 0  0.6976227893022486 0.6791398181182047 0  0.675285757967361 0.5753431311386856 0  0.6679276871247523 0.7044527829633643 0  0.7043997876616517 0.7181360076777064 0  0.7082560964310443 0.5854643382548711 0  0.7011947436367951 0.5491330506524272 0  0.7354386998920064 0.5616780368964113 0  0.7283055895385802 0.5254921737092076 0  0.6734725367604544 0.7437799033116759 0  0.7349984441600491 0.6915407168305943 0  0.7423908242076425 0.7319845735052732 0  0.7629502670925243 0.5369940335502228 0  0.7556986967703359 0.5012194977727404 0  0.7205370119282113 0.4894731878990257 0  0.7477001783072509 0.4650482186643414 0  0.7716552549469335 0.5756822342116202 0  0.7732772900460871 0.7049825065160022 0  0.7817298285129486 0.7462525781145115 0  0.7493610045411777 0.7738200583139012 0  0.7125728462842601 0.4544027540958654 0  0.7395400776671353 0.429079326438756 0  0.7757671744021406 0.4399635804311567 0  0.7673379294159747 0.4026591610446654 0  0.7299067066745497 0.3917825537320196 0  0.7585538587328948 0.3640886421383364 0  0.7194973718295827 0.3527901593065909 0  0.7494157058307136 0.3241046590740593 0  0.708468824690296 0.3122389758725987 0  0.7395699343593873 0.2824502440266003 0  0.6975391649267794 0.2704411678596885 0  0.7293936059369949 0.2399625364991044 0  0.6869154142374974 0.227678301016391 0  0.7717857214109325 0.2524595771979739 0  0.7909424636411044 0.5126426638782178 0  0.8046884706603209 0.4133794441124693 0  0.7899269538307874 0.7886929015883892 0  0.6861350725366131 0.4782426429454142 0  0.7874381471477945 0.3357111303581752 0  0.7616745839526868 0.2090679666299527 0  0.6360215429330704 0.7275970918054819 0  0.641544308257596 0.7701877556055731 0  0.6022314970554482 0.7553581742185943 0  0.8231969726078785 0.7600654677096734 0  0.6086300095720029 0.7979397275042658 0  0.5680926969972507 0.7823195971570986 0  0.6458184147848867 0.8156677378597004 0  0.654798161440606 0.2587430172581951 0  0.6439898346557149 0.2155299414821673 0  0.6792291422278909 0.34183911468767 0  0.804938690840434 0.2218897385356863 0  0.6763201114125489 0.1839275858225429 0  0.6791866264802193 0.445231974049712 0  0.7563176597850132 0.8170207367348754 0  0.5957504495236389 0.3932197645213419 0  0.6118170667079624 0.246958076594316 0  0.600206025012533 0.20319107109676 0  0.8319770085067517 0.8039208299848808 0  0.6536148019554676 0.4682359996864866 0  0.5682875174362287 0.2333246761773168 0  0.5567342554325125 0.1882239614670699 0  0.5237643432723472 0.220534892149396 0  0.5122908428373677 0.1751446378899796 0  0.4783946210663509 0.21030943130111 0  0.6107153817246571 0.5586586524739158 0  0.5743200542750122 0.8264500790534137 0  0.5330014140738734 0.8079807538104694 0  0.7944804672612117 0.1771864384623595 0  0.4664462680858431 0.1659165167674238 0  0.4331729892903076 0.1981512554566385 0  0.4210031592979757 0.1540432617228714 0  0.38776801555044 0.1858203023991802 0  0.4004597194106929 0.2281861863228278 0  0.3981872153746353 0.382117105042836 0  0.3544643030559146 0.2180706639862627 0  0.3423266408265103 0.1729702202462273 0  0.3087054608782617 0.2062574126059933 0  0.321568805318673 0.2497814435403322 0  0.275221216109613 0.2394257718544415 0  0.2928304435150137 0.2891955583526254 0  0.2438588948610265 0.2752697323897014 0  0.2538223579211179 0.3191890209405232 0  0.2206153160228418 0.2305712454804997 0  0.2102995864498769 0.309312301123205 0  0.2206775288388949 0.3532389509681492 0  0.2662006459903746 0.3651431959550718 0  0.2338487999498605 0.3981361480648625 0  0.2794489251914219 0.408763963977372 0  0.2465625232180399 0.4424036773651731 0  0.2897766376263058 0.4540079524030766 0  0.2576768117403254 0.4864282435751744 0  0.2128512494372237 0.4718689296630115 0  0.2234572159598094 0.5173694302462406 0  0.2693194976711154 0.5299411283945803 0  0.2373618760691236 0.562792484428537 0  0.2820044951994156 0.573353601224962 0  0.2499783096612425 0.6070316067745463 0  0.414109055981841 0.5559168681766927 0  0.2931176782797031 0.6175921694067433 0  0.2624489631437572 0.6515233304693236 0  0.4311909254541657 0.675638393991985 0  0.2175239670017386 0.6401969800403573 0  0.2301030356482525 0.6850713989322952 0  0.2733574099786753 0.6970850893134215 0  0.2424750272520101 0.7303692916689807 0  0.2863372557165255 0.7417768563253402 0  0.2542300898917855 0.774760253715141 0  0.3022596427154754 0.7883425587062133 0  0.2095092255106151 0.7642118274968683 0  0.1934301340960991 0.5520093947666282 0  0.2212861972077033 0.8089722358425802 0  0.1845408067006103 0.6736495729279861 0  0.188015628682233 0.3861850426194857 0  0.4628459007155862 0.7048057304951336 0  0.4223389095270043 0.7194482459738933 0  0.1758829359069224 0.7983604504365851 0  0.312790604764709 0.5398262006309649 0  0.2963810814760225 0.1602998224385729 0  0.3923117654209449 0.4252500425575878 0  0.5392241862477362 0.8551242913194539 0  0.4962902597439823 0.8361873913592492 0  0.3944334584191455 0.5859560776607737 0  0.5001792587460698 0.1324709621422113 0  0.5918466994269933 0.1577352750825602 0  0.3884052976510973 0.6897197199186991 0  0.8375411455732316 0.1906506038847958 0  0.845615939469295 0.2342057752774334 0  0.8666428172753013 0.7743007965420859 0  0.8542950022754554 0.7311259567418272 0  0.660603926314572 0.5004162330975148 0  0.3304191795811467 0.1266239590077817 0  0.6294268417531864 0.4902195470565952 0  0.4052544538674929 0.3377406309251869 0  0.5031825450780752 0.8845178688158811 0  0.4593915045002526 0.8676264508506689 0  0.4523448441460428 0.8216014670669035 0  0.4154646623209595 0.85092690477688 0  0.189492463566415 0.8423955708619945 0  0.238399915948824 0.8449928795759242 0  0.6178812992312244 0.4122486776321785 0  0.7653391272652432 0.6641936345454622 0  0.9246893166912278 0.04146206937254437 0  0.04215465121107465 0.07699975475405108 0  0.03909347760155679 0.9250099025837661 0  0.9553619825854756 0.9225080226475862 0  0.624491244841109 0.2876393157266967 0  0.3638205112043649 0.352516602870447 0  0.8271281755005158 0.1334998854965374 0  0.7769594926350331 0.1299521366131113 0  0.5800140962705013 0.4451022457922681 0  0.4106103857136059 0.8066802237060268 0  0.142068348930924 0.8326538988705626 0  0.1239463716457355 0.7830713898440538 0  0.9020049739652193 0.743243204247328 0  0.1719984713735428 0.6282671925642138 0  0.1410738029470816 0.6612725377134308 0  0.3785231728428692 0.7352004637764026 0  0.6231943985890376 0.3837206711004161 0  0.8044962723131702 0.6774164867568759 0  0.5846198237711082 0.8701169335637587 0  0.5538178008228747 0.732488910038476
[...]
<PointData  Tensors="$\sigma$"> 
<DataArray  type="Float64"  Name="$\sigma$"  NumberOfComponents="9" format="ascii">1.2534545021938099e+07 8.4958220186783046e+07 0.0000000000000000e+00 8.4958220186783046e+07 1.8269560686547279e+08 0.0000000000000000e+00 0.0000000000000000e+00 0.0000000000000000e+00 0.0000000000000000e+00  3.1383059254890844e+07 2.4160156555578612e+07 0.0000000000000000e+00 2.4160156555578612e+07 4.3428060369634807e+08 0.0000000000000000e+00 0.0000000000000000e+00 0.0000000000000000e+00 0.0000000000000000e+00  -2.5417893515851507e+06 -5.7413482918449258e+06 0.0000000000000000e+00 -5.7413482918449258e+06 1.1749415535269722e+07 0.0000000000000000e+00 0.0000000000000000e+00 0.0000000000000000e+00 0.0000000000000000e+00  1.5020930810975714e+07 -6.1569236185202934e+07 0.0000000000000000e+00 -6.1569236185202934e+07 1.9711801170985410e+08 0.0000000000000000e+00 0.0000000000000000e+00 0.0000000000000000e+00 0.0000000000000000e+00  3.5420458770804696e+07 -2.0186825941197898e+07 0.0000000000000000e+00 -2.0186825941197898e+07 4.7309124981256479e+08 0.0000000000000000e+00 0.0000000000000000e+00 0.0000000000000000e+00 0.0000000000000000e+00  1.2280790429378850e+07 4.2752247047065616e+07 0.0000000000000000e+00 4.2752247047065616e+07 1.2371953953255968e+08 0.0000000000000000e+00 0.0000000000000000e+00 0.0000000000000000e+00 0.0000000000000000e+00  1.3180498922646115e+07 -4.6436942449121363e+07 0.0000000000000000e+00 -4.6436942449121363e+07 1.2647700835608135e+08 0.0000000000000000e+00 0.0000000000000000e+00 0.0000000000000000e+00 0.0000000000000000e+00  -1.1070537825836645e+04 3.1899837300654920e+05 0.0000000000000000e+00 3.1899837300654920e+05 2.1127520669309086e+08 0.0000000000000000e+00 0.0000000000000000e+00 0.0000000000000000e+00 0.0000000000000000e+00  5.2470969258366982e+04 -1.9025965463415923e+05 0.0000000000000000e+00 -1.9025965463415923e+05 2.1163072270408636e+08 0.0000000000000000e+00 0.0000000000000000e+00 0.0000000000000000e+00 0.0000000000000000e+00  2.0197350797555682e+04 -3.2543384179367597e+05 0.0000000000000000e+00 -3.2543384179367597e+05 2.1124272886567786e+08 0.0000000000000000e+00 0.0000000000000000e+00 0.0000000000000000e+00 0.0000000000000000e+00  8.0190331340194694e+04 2.1214313768935745e+05 0.0000000000000000e+00 2.1214313768935745e+05 2.1156069011175087e+08 0.0000000000000000e+00 0.0000000000000000e+00 0.0000000000000000e+00 0.0000000000000000e+00  4.0734714445910074e+07 -2.1152197664886015e+06 0.0000000000000000e+00 -2.1152197664886015e+06 3.8550540606875378e+08 0.0000000000000000e+00 0.0000000000000000e+00 0.0000000000000000e+00 0.0000000000000000e+00  3.1380002503872480e+07 -6.3287346477839381e+07 0.0000000000000000e+00 -6.3287346477839381e+07 3.0173884258242804e+08 0.0000000000000000e+00 0.0000000000000000e+00 0.0000000000000000e+00 0.0000000000000000e+00  -7.7841970218243986e+07 -3.7967138366617166e+07 0.0000000000000000e+00 -3.7967138366617166e+07 4.0566729238315359e+07 0.0000000000000000e+00 0.0000000000000000e+00 0.0000000000000000e+00 0.0000000000000000e+00  -7.8898206688214034e+07 3.3202674228579231e+07 0.0000000000000000e+00 3.3202674228579231e+07 2.7987222479057666e+07 0.0000000000000000e+00 0.0000000000000000e+00 0.0000000000000000e+00 0.0000000000000000e+00  1.7259865121863636e+06 6.5140766680235714e+07 0.0000000000000000e+00 6.5140766680235714e+07 2.1993207197338703e+08 0.0000000000000000e+00 0.0000000000000000e+00 0.0000000000000000e+00 0.0000000000000000e+00  7.1909513201490194e+06 -5.0936859170556068e+06 0.0000000000000000e+00 -5.0936859170556068e+06 1.5660555723710706e+07 0.0000000000000000e+00 0.0000000000000000e+00 0.0000000000000000e+00 0.0000000000000000e+00  4.0761725509384824e+06 -8.6423184353134707e+06 0.0000000000000000e+00 -8.6423184353134707e+06 3.5022728443500005e+07 0.0000000000000000e+00 0.0000000000000000e+00 0.0000000000000000e+00 0.0000000000000000e+00  1.4691716003032351e+07 -5.5777543865197822e+07 0.0000000000000000e+00 -5.5777543865197822e+07 2.3521874514897519e+08 0.0000000000000000e+00 0.0000000000000000e+00 0.0000000000000000e+00 0.0000000000000000e+00  -8.4070914010566860e+07 -2.6924737051087067e+07 0.0000000000000000e+00 -2.6924737051087067e+07 2.6832024742016759e+07 0.0000000000000000e+00 0.0000000000000000e+00 0.0000000000000000e+00 0.0000000000000000e+00  -6.2240020936373003e+07 3.9518350991428345e+07 0.0000000000000000e+00 3.9518350991428345e+07 5.6289428711651877e+07 0.0000000000000000e+00 0.0000000000000000e+00 0.0000000000000000e+00 0.0000000000000000e+00  2.1993106715589505e+07 7.2732548410677046e+07 0.0000000000000000e+00 7.2732548410677046e+07 2.9450591880617142e+08 0.0000000000000000e+00 0.0000000000000000e+00 0.0000000000000000e+00 0.0000000000000000e+00  2.5114650382942360e+07 -1.1465359188635565e+07 0.0000000000000000e+00 -1.1465359188635565e+07 3.8681006784851164e+08 0.0000000000000000e+00 0.0000000000000000e+00 0.0000000000000000e+00 0.0000000000000000e+00  3.3878130347827449e+07 7.6129373124948949e+07 0.0000000000000000e+00 7.6129373124948949e+07 3.6604365367767382e+08 0.0000000000000000e+00 0.0000000000000000e+00 0.0000000000000000e+00 0.0000000000000000e+00  9.4453768226661929e+05 5.5205403029786982e+05 0.0000000000000000e+00 5.5205403029786982e+05 3.3691159250682689e+07 0.0000000000000000e+00 0.0000000000000000e+00 0.0000000000000000e+00 0.0000000000000000e+00  1.6306700094688858e+05 -1.0631561789198117e+07 0.0000000000000000e+00 -1.0631561789198117e+07 2.7862347005049285e+07 0.0000000000000000e+00 0.0000000000000000e+00 0.0000000000000000e+00 0.0000000000000000e+00  3.2312754354613975e+07 -7.1625816376072735e+07 0.0000000000000000e+00 -7.1625816376072735e+07 3.6276096186228848e+08 0.0000000000000000e+00 0.0000000000000000e+00 0.0000000000000000e+00 0.0000000000000000e+00  -2.6900763283995453e+04 4.0952297541528707e+05 0.0000000000000000e+00 4.0952297541528707e+05 2.0637271458580887e+08 0.0000000000000000e+00 0.0000000000000000e+00 0.0000000000000000e+00 0.0000000000000000e+00  -1.3721644007290164e+06 3.0720316435666941e+05 0.0000000000000000e+00 3.0720316435666941e+05 2.0324628134285012e+08 0.0000000000000000e+00 0.0000000000000000e+00 0.0000000000000000e+00 0.0000000000000000e+00  -1.8776321592256313e+06 3.6483746799343982e+05 0.0000000000000000e+00 3.6483746799343982e+05 1.9935904009301651e+08 0.0000000000000000e+00 0.0000000000000000e+00 0.0000000000000000e+00 0.0000000000000000e+00  -2.3839308074985296e+06 3.0755555369835440e+05 0.0000000000000000e+00 3.0755555369835440e+05 1.9484935737225893e+08 0.0000000000000000e+00 0.0000000000000000e+00 0.0000000000000000e+00 0.0000000000000000e+00  -2.1232824214982721e+06 1.4906101610660652e+05 0.0000000000000000e+00 1.4906101610660652e+05 1.9044174680082056e+08 0.0000000000000000e+00 0.0000000000000000e+00 0.0000000000000000e+00 0.0000000000000000e+00  -2.8266330362753250e+05 1.9399644111870564e+05 0.0000000000000000e+00 1.9399644111870564e+05 1.8478834303387329e+08 0.0000000000000000e+00 0.0000000000000000e+00 0.0000000000000000e+00 0.0000000000000000e+00  1.0193380598925538e+06 -1.3310150846740551e+05 0.0000000000000000e+00 -1.3310150846740551e+05 1.7596163581683341e+08 0.0000000000000000e+00 0.0000000000000000e+00 0.0000000000000000e+00 0.0000000000000000e+00  5.2295986066165725e+06 -5.8240686632276193e+04 0.0000000000000000e+00 -5.8240686632276193e+04 1.6967202751950505e+08 0.0000000000000000e+00 0.0000000000000000e+00 0.0000000000000000e+00 0.0000000000000000e+00  7.6370828341528894e+06 -1.0692419112377410e+05 0.0000000000000000e+00 -1.0692419112377410e+05 1.6367299094979981e+08 0.0000000000000000e+00 0.0000000000000000e+00 0.0000000000000000e+00 0.0000000000000000e+00  8.7460566337092668e+06 -9.5721876786829322e+04 0.0000000000000000e+00 -9.5721876786829322e+04 1.6167088755894205e+08 0.0000000000000000e+00 0.0000000000000000e+00 0.0000000000000000e+00 0.0000000000000000e+00  7.8233564866336957e+06 1.2991327654150466e+05 0.0000000000000000e+00 1.2991327654150466e+05 1.6381070367061010e+08 0.0000000000000000e+00 0.0000000000000000e+00 0.0000000000000000e+00 0.0000000000000000e+00  4.9238435544703864e+06 1.5219560523906309e+05 0.0000000000000000e+00 1.5219560523906309e+05 1.6950326884733358e+08 0.0000000000000000e+00 0.0000000000000000e+00 0.0000000000000000e+00 0.0000000000000000e+00  1.8624163134369433e+06 4.1231324136614421e+04 0.0000000000000000e+00 4.1231324136614421e+04 1.7670925871252841e+08 0.0000000000000000e+00 0.0000000000000000e+00 0.0000000000000000e+00 0.0000000000000000e+00  -6.3972759983360267e+05 -5.4207207169261703e+04 0.0000000000000000e+00 -5.4207207169261703e+04 1.8374102278983140e+08 0.0000000000000000e+00 0.0000000000000000e+00 0.0000000000000000e+00 0.0000000000000000e+00  -2.1397891592103802e+06 -1.9275737100520372e+05 0.0000000000000000e+00 -1.9275737100520372e+05 1.9003306892512476e+08 0.0000000000000000e+00 0.0000000000000000e+00 0.0000000000000000e+00 0.0000000000000000e+00  -2.3897396451887926e+06 -2.8859784675458155e+05 0.0000000000000000e+00 -2.8859784675458155e+05 1.9511559435979509e+08 0.0000000000000000e+00 0.0000000000000000e+00 0.0000000000000000e+00 0.0000000000000000e+00  -1.9428134106078690e+06 -3.6509656606271159e+05 0.0000000000000000e+00 -3.6509656606271159e+05 1.9915193163344002e+08 0.0000000000000000e+00 0.0000000000000000e+00 0.0000000000000000e+00 0.0000000000000000e+00  -1.1250475839254286e+06 -3.2159180205872067e+05 0.0000000000000000e+00 -3.2159180205872067e+05 2.0312453514180872e+08 0.0000000000000000e+00 0.0000000000000000e+00 0.0000000000000000e+00 0.0000000000000000e+00  -1.9005229332862762e+05 -3.9402232728659880e+05 0.0000000000000000e+00 -3.9402232728659880e+05 2.0662542984191322e+08 0.0000000000000000e+00 0.0000000000000000e+00 0.0000000000000000e+00 0.0000000000000000e+00  -1.6806261194405062e+05 1.1162234241199523e+05 0.0000000000000000e+00 1.1162234241199523e+05 2.1181301203281096e+08 0.0000000000000000e+00 0.0000000000000000e+00 0.0000000000000000e+00 0.0000000000000000e+00  -1.2083500320916198e+05 -2.2258768614547665e+05 0.0000000000000000e+00 -2.2258768614547665e+05 2.1058173611758107e+08 0.0000000000000000e+00 0.0000000000000000e+00 0.0000000000000000e+00 0.0000000000000000e+00  -1.2658167234726611e+05 -5.0946940202779835e+05 0.0000000000000000e+00 -5.0946940202779835e+05 2.0835375190302300e+08 0.0000000000000000e+00 0.0000000000000000e+00 0.0000000000000000e+00 0.0000000000000000e+00  -5.5274901561570412e+04 -8.5779724797209573e+05 0.0000000000000000e+00 -8.5779724797209573e+05 2.0518202899280074e+08 0.0000000000000000e+00 0.0000000000000000e+00 0.0000000000000000e+00 0.0000000000000000e+00  -4.7093552258698714e+04 -9.5353452167393803e+05 0.0000000000000000e+00 -9.5353452167393803e+05 2.0144734717845085e+08 0.0000000000000000e+00 0.0000000000000000e+00 0.0000000000000000e+00 0.0000000000000000e+00  -6.4158175387760184e+03 -1.0152579392223805e+06 0.0000000000000000e+00 -1.0152579392223805e+06 1.9695680319882682e+08 0.0000000000000000e+00 0.0000000000000000e+00 0.0000000000000000e+00 0.0000000000000000e+00  5.1720256948923350e+04 -9.2673310271836689e+05 0.0000000000000000e+00 -9.2673310271836689e+05 1.9236052427052253e+08 0.0000000000000000e+00 0.0000000000000000e+00 0.0000000000000000e+00 0.0000000000000000e+00  1.2819329097935076e+05 -7.6440923799904925e+05 0.0000000000000000e+00 -7.6440923799904925e+05 1.8861825838763773e+08 0.0000000000000000e+00 0.0000000000000000e+00 0.0000000000000000e+00 0.0000000000000000e+00  1.5157054243811007e+05 -3.7599640040131175e+05 0.0000000000000000e+00 -3.7599640040131175e+05 1.8606285518773502e+08 0.0000000000000000e+00 0.0000000000000000e+00 0.0000000000000000e+00 0.0000000000000000e+00  1.3866752215527144e+05 3.1257275591263446e+04 0.0000000000000000e+00 3.1257275591263446e+04 1.8524388289221272e+08 0.0000000000000000e+00 0.0000000000000000e+00 0.0000000000000000e+00 0.0000000000000000e+00  1.5437464174323122e+05 3.7169957936609199e+05 0.0000000000000000e+00 3.7169957936609199e+05 1.8615681503558174e+08 0.0000000000000000e+00 0.0000000000000000e+00 0.0000000000000000e+00 0.0000000000000000e+00  1.3832189002179779e+05 6.8402445726691023e+05 0.0000000000000000e+00 6.8402445726691023e+05 1.8871109696446010e+08 0.0000000000000000e+00 0.0000000000000000e+00 0.0000000000000000e+00 0.0000000000000000e+00  8.9012404449748050e+04 8.8584806548408186e+05 0.0000000000000000e+00 8.8584806548408186e+05 1.9250848127928469e+08 0.0000000000000000e+00 0.0000000000000000e+00 0.0000000000000000e+00 0.0000000000000000e+00  2.4234315236702139e+04 9.5235933244855911e+05 0.0000000000000000e+00 9.5235933244855911e+05 1.9695945280202210e+08 0.0000000000000000e+00 0.0000000000000000e+00 0.0000000000000000e+00 0.0000000000000000e+00  -3.6840351680708474e+04 8.8955832378028112e+05 0.0000000000000000e+00 8.8955832378028112e+05 2.0146469301267010e+08 0.0000000000000000e+00 0.0000000000000000e+00 0.0000000000000000e+00 0.0000000000000000e+00  -6.3279977289956325e+04 7.1168118709712545e+05 0.0000000000000000e+00 7.1168118709712545e+05 2.0539993944109088e+08 0.0000000000000000e+00 0.0000000000000000e+00 0.0000000000000000e+00 0.0000000000000000e+00  -1.1018573719697286e+05 5.3300684280150163e+05 0.0000000000000000e+00 5.3300684280150163e+05 2.0837504887573603e+08 0.0000000000000000e+00 0.0000000000000000e+00 0.0000000000000000e+00 0.0000000000000000e+00  -1.1034467139871611e+05 2.2669985151582904e+05 0.0000000000000000e+00 2.2669985151582904e+05 2.1054950255317286e+08 0.0000000000000000e+00 0.0000000000000000e+00 0.0000000000000000e+00 0.0000000000000000e+00  -9.3556602442126212e+04 -2.0030116245272441e+05 0.0000000000000000e+00 -2.0030116245272441e+05 2.1181073900117129e+08 0.0000000000000000e+00 0.0000000000000000e+00 0.0000000000000000e+00 0.0000000000000000e+00  -1.6405302983317091e+05 2.6888125961855991e+05 0.0000000000000000e+00 2.6888125961855991e+05 2.1202580033053121e+08 0.0000000000000000e+00 0.0000000000000000e+00 0.0000000000000000e+00 0.0000000000000000e+00  -9.9934032373889349e+04 -3.7883681096203998e+05 0.0000000000000000e+00 -3.7883681096203998e+05 2.1044723998116615e+08 0.0000000000000000e+00 0.0000000000000000e+00 0.0000000000000000e+00 0.0000000000000000e+00  -6.2554939761090740e+04 -4.8331206992958742e+05 0.0000000000000000e+00 -4.8331206992958742e+05 2.0860347770442227e+08 0.0000000000000000e+00 0.0000000000000000e+00 0.0000000000000000e+00 0.0000000000000000e+00  -9.5155064456770226e+04 -7.1497018692203064e+05 0.0000000000000000e+00 -7.1497018692203064e+05 2.0545320836269706e+08 0.0000000000000000e+00 0.0000000000000000e+00 0.0000000000000000e+00 0.0000000000000000e+00  -2.7582112193591696e+04 -8.9282689867268864e+05 0.0000000000000000e+00 -8.9282689867268864e+05 2.0146930690537298e+08 0.0000000000000000e+00 0.0000000000000000e+00 0.0000000000000000e+00 0.0000000000000000e+00  -3.3567262577336936e+04 -1.0520742580557908e+06 0.0000000000000000e+00 -1.0520742580557908e+06 1.9674826395790032e+08 0.0000000000000000e+00 0.0000000000000000e+00 0.0000000000000000e+00 0.0000000000000000e+00  7.3433380087343394e+04 -1.1325312329048261e+06 0.0000000000000000e+00 -1.1325312329048261e+06 1.9250595814045903e+08 0.0000000000000000e+00 0.0000000000000000e+00 0.0000000000000000e+00 0.0000000000000000e+00  9.2654277156145399e+04 -5.8229505907680781e+05 0.0000000000000000e+00 -5.8229505907680781e+05 1.8838696760260203e+08 0.0000000000000000e+00 0.0000000000000000e+00 0.0000000000000000e+00 0.0000000000000000e+00  2.8027165545287210e+05 -3.4120997823401663e+05 0.0000000000000000e+00 -3.4120997823401663e+05 1.8571222888270113e+08 0.0000000000000000e+00 0.0000000000000000e+00 0.0000000000000000e+00 0.0000000000000000e+00  2.2782447029209751e+05 5.9515133836661029e+04 0.0000000000000000e+00 5.9515133836661029e+04 1.8483446555308309e+08 0.0000000000000000e+00 0.0000000000000000e+00 0.0000000000000000e+00 0.0000000000000000e+00  2.6529265863376501e+05 3.4095344657477707e+05 0.0000000000000000e+00 3.4095344657477707e+05 1.8579458268785399e+08 0.0000000000000000e+00 0.0000000000000000e+00 0.0000000000000000e+00 0.0000000000000000e+00  1.6680638133862065e+05 6.6064140778580611e+05 0.0000000000000000e+00 6.6064140778580611e+05 1.8852788271327913e+08 0.0000000000000000e+00 0.0000000000000000e+00 0.0000000000000000e+00 0.0000000000000000e+00  3.9737408165674919e+04 1.0150298456293074e+06 0.0000000000000000e+00 1.0150298456293074e+06 1.9251358499585024e+08 0.0000000000000000e+00 0.0000000000000000e+00 0.0000000000000000e+00 0.0000000000000000e+00  1.0023253255990495e+05 9.8177667152074247e+05 0.0000000000000000e+00 9.8177667152074247e+05 1.9694721400927883e+08 0.0000000000000000e+00 0.0000000000000000e+00 0.0000000000000000e+00 0.0000000000000000e+00  -3.6489970116728880e+04 8.3806368855909910e+05 0.0000000000000000e+00 8.3806368855909910e+05 2.0165049046262959e+08 0.0000000000000000e+00 0.0000000000000000e+00 0.0000000000000000e+00 0.0000000000000000e+00  -6.3112985008080665e+04 7.3103050012350490e+05 0.0000000000000000e+00 7.3103050012350490e+05 2.0524971994595745e+08 0.0000000000000000e+00 0.0000000000000000e+00 0.0000000000000000e+00 0.0000000000000000e+00  -3.6393430535456858e+05 4.2237486629041244e+05 0.0000000000000000e+00 4.2237486629041244e+05 2.0908171881564540e+08 0.0000000000000000e+00 0.0000000000000000e+00 0.0000000000000000e+00 0.0000000000000000e+00  -1.8300613636265980e+05 5.8055302513082314e+05 0.0000000000000000e+00 5.8055302513082314e+05 2.1065833427885368e+08 0.0000000000000000e+00 0.0000000000000000e+00 0.0000000000000000e+00 0.0000000000000000e+00  -1.8359425034814738e+05 -2.7343808007682103e+05 0.0000000000000000e+00 -2.7343808007682103e+05 2.1181393905735746e+08 0.0000000000000000e+00 0.0000000000000000e+00 0.0000000000000000e+00 0.0000000000000000e+00  -2.7672422906941402e+05 3.5309298493578919e+05 0.0000000000000000e+00 3.5309298493578919e+05 2.0664464794048432e+08 0.0000000000000000e+00 0.0000000000000000e+00 0.0000000000000000e+00 0.0000000000000000e+00  -1.0755839728640302e+06 2.0165097095551106e+05 0.0000000000000000e+00 2.0165097095551106e+05 2.0294142923538724e+08 0.0000000000000000e+00 0.0000000000000000e+00 0.0000000000000000e+00 0.0000000000000000e+00  -1.8273095700265216e+06 3.8471913685908430e+05 0.0000000000000000e+00 3.8471913685908430e+05 1.9931036702197325e+08 0.0000000000000000e+00 0.0000000000000000e+00 0.0000000000000000e+00 0.0000000000000000e+00  -2.3599752098274701e+06 3.4301043688064383e+05 0.0000000000000000e+00 3.4301043688064383e+05 1.9493927574633804e+08 0.0000000000000000e+00 0.0000000000000000e+00 0.0000000000000000e+00 0.0000000000000000e+00  -2.0671104953062735e+06 2.8745839827274642e+05 0.0000000000000000e+00 2.8745839827274642e+05 1.9024131875716001e+08 0.0000000000000000e+00 0.0000000000000000e+00 0.0000000000000000e+00 0.0000000000000000e+00  -7.5885333523299429e+05 1.3125381894036639e+05 0.0000000000000000e+00 1.3125381894036639e+05 1.8356618919672209e+08 0.0000000000000000e+00 0.0000000000000000e+00 0.0000000000000000e+00 0.0000000000000000e+00  1.7999599014186230e+06 -1.2050594820544544e+05 0.0000000000000000e+00 -1.2050594820544544e+05 1.7626238762596330e+08 0.0000000000000000e+00 0.0000000000000000e+00 0.0000000000000000e+00 0.0000000000000000e+00  4.9729578167288508e+06 -1.3715959714913627e+05 0.0000000000000000e+00 -1.3715959714913627e+05 1.6921025966453576e+08 0.0000000000000000e+00 0.0000000000000000e+00 0.0000000000000000e+00 0.0000000000000000e+00  7.7489468174179588e+06 -9.6685145075965222e+04 0.0000000000000000e+00 -9.6685145075965222e+04 1.6392999723517686e+08 0.0000000000000000e+00 0.0000000000000000e+00 0.0000000000000000e+00 0.0000000000000000e+00  8.7265942441363558e+06 -3.2638373509886431e+04 0.0000000000000000e+00 -3.2638373509886431e+04 1.6140365097521740e+08 0.0000000000000000e+00 0.0000000000000000e+00 0.0000000000000000e+00 0.0000000000000000e+00  7.9299205403945437e+06 9.8130241183614169e+04 0.0000000000000000e+00 9.8130241183614169e+04 1.6411011316402265e+08 0.0000000000000000e+00 0.0000000000000000e+00 0.0000000000000000e+00 0.0000