<?xml version="1.0"?>
<VTKFile type="UnstructuredGrid"  version="0.1"  >
<UnstructuredGrid>
<Piece  NumberOfPoints="4246" NumberOfCells="7517">
<Points>
<DataArray  type="Float64"  NumberOfComponents="3"  format="ascii">0.7128822742055319 0.6862189272091858 0  0.7207628748961264 0.7196851226359834 0  0.6411857506490457 0.7945453252380789 0  0.6798291845258746 0.87204813175634 0  0.8094908588976035 0.879975943504841 0  0.9042371251038736 0.8576651465536423 0  0.8572885412685947 0.8077583448189121 0  0.7993233904533519 0.691504135041518 0  0.8076285404118019 0.6639081302579871 0  4.631711680858075e-16 0.1855290337028684 0  0.03160691656040637 0.2320230600028579 0  0 0 0  0.02811546831470257 0.2503793835377586 0  1 0 0  0.1089141460099036 0.352097492459952 0  1.000000000000001 0.1808480668417104 0  0.1662713793857401 0.4015532415398465 0  0.9538054604598314 0.2569656013620101 0  0.07712006100728204 0.4326526670848403 0  0.9649729531493383 0.2963408602240905 0  7.025630077706069e-16 0.4065921466107754 0  0.8921566739492444 0.3713090625732736 0  1.583802533566825e-15 0.4744723438562991 0  0.9376233065561099 0.4450164931307976 0  0.06887852577805392 0.5207713855790764 0  1.000000000000002 0.4056977967519119 0  0.05790740158913135 0.5520243350866588 0  1.000000000000001 0.4721072508062008 0  0.1051235998389109 0.6730434683790332 0  0.9681362806040203 0.5401276666820891 0  0.1475721895276911 0.7224699410663655 0  0.9744030837731374 0.5701401249853859 0  0.05099190340539278 0.7406434642461133 0  0.8910280366783733 0.6446710486758949 0  -4.041905699025961e-16 0.6953186178630866 0  0.9256834384392734 0.7240373080610425 0  0 1 0  1.000000000000001 0.6948661355109262 0  1 1 0  0.2099210257871475 0.1099903903927534 0  0.3040001480074853 0.08638888653633517 0  0.218802342456641 0.1453926461773812 0  0.2964792110248288 0.1127617742274578 0  0.1414022536521493 0.2203542334986923 0  0.3577977167463524 0.2272826930854523 0  0.1822812574664991 0.2967015127373557 0  0.4061976575433589 0.277257084632993 0  0.3121185353230211 0.3008585884894112 0  0.1976323068823174 0.40443523286518 0  0.2884348051632282 0.3755361648172952 0  0.2114285594609523 0.4477838349370086 0  0.283863381378847 0.3964226308424923 0  0.1433676763630162 0.5224621360466315 0  0.3589453626043396 0.5024306309899094 0  0.193422330513343 0.5931341361449105 0  0.4135714405390477 0.5522161650629914 0  0.3227689422581369 0.5811152331108762 0  0.7083359327238119 0.1106317400290962 0  0.802039300005142 0.08634150149026827 0  0.7177808818018159 0.1470670978373371 0  0.7949269472844152 0.1120446085174091 0  0.6415573017987302 0.2220571161862884 0  0.8580348382002402 0.2255892874070696 0  0.6836292290759471 0.2977535687793967 0  0.9072191181981841 0.2755826329730371 0  0.813515750916854 0.299872871511865 0  0.4582865495580209 0.2549897549184771 0  0.5519779976547853 0.2306780835812829 0  0.4677493774128743 0.2914572619242682 0  0.5448782466896351 0.2563601518926136 0  0.3915625788200032 0.3664478713970546 0  0.6080418216490397 0.3698738638323946 0  0.4336716287929391 0.4421236793569095 0  0.6572506225871257 0.4198676034809189 0  0.5635591744903614 0.444179274818113 0  0.698827153673554 0.4037901262923093 0  0.7899865800383477 0.3754017198326093 0  0.7120880141263626 0.4463727359818578 0  0.7851513743878028 0.3968526254398655 0  0.6430960661033547 0.5211317040822923 0  0.858906617888977 0.5037879519511859 0  0.6922662284374697 0.592421921756506 0  0.9129119858736373 0.5536272640181422 0  0.8217525595088436 0.5820156704778421 0  0.22204330933576 0.6833498126294661 0  0.3185794858712028 0.665063635514987 0  0.2272390445325955 0.7107790783011844 0  0.3076838680581648 0.6962220580324383 0  0.1410913530098722 0.7849459777490795 0  0.355192749815884 0.8171265912565109 0  0.1727639408483547 0.8655489998984612 0  0.3977609554674045 0.8665711908884415 0  0.3012247789319616 0.8848573680029206 0  0.4466224865065184 0.5493331408044619 0  0.5371164314883676 0.5200032853699907 0  0.4608815690337454 0.5933279239561696 0  0.5327638038748692 0.540407142706486 0  0.3936117101407255 0.6679284931126188 0  0.6089650035616021 0.6456134978676771 0  0.4444125099318794 0.7380660632200804 0  0.6641184309662546 0.6953472106386434 0  0.5736244859844053 0.7246770660731146 0  0.7172254325031588 0.6969232496844535 0  0.7198732379384414 0.7081675669171562 0  0.7195333898008069 0.7332095867916649 0  0.7158852447441715 0.7462906342246373 0  0.7099380487921585 0.7584993861922337 0  0.7018867883122866 0.7694355632657444 0  0.6919954340981168 0.7787406089995251 0  0.6805882867517516 0.7861094456591508 0  0.6680393440769903 0.7913004765821451 0  0.6547600390866499 0.7941435072311971 0  0.6698427341223471 0.8831118914883291 0  0.6570388532609613 0.8907405614875321 0  0.6425552229451571 0.8942563009466528 0  0.6276787772888586 0.8933467209861797 0  0.6137313537728341 0.888092641777227 0  0.6019522421837425 0.8789609113146569 0  0.5933880682780546 0.8667629239240078 0  0.5887997964905488 0.8525825243149249 0  0.588595114904844 0.837679703222334 0  0.5927922103780605 0.823378641700265 0  0.6010181525587528 0.8109500518241284 0  0.6125420303852138 0.8014982683463873 0  0.6263398967408574 0.7958631237075077 0  0.6887932722793939 0.8609599720108388 0  0.6996938153188589 0.8517686545188075 0  0.7121368396177352 0.844806377442152 0  0.7256726218578781 0.8403247756144591 0  0.739811943601992 0.8384858258024808 0  0.7540437729226013 0.8393559924437592 0  0.7678537344273895 0.8429038254486816 0  0.7807427001260698 0.8490010968886611 0  0.7922448292164194 0.8574274354875712 0  0.8019444047846079 0.8678782914138361 0  0.9020381988491315 0.8723299802997304 0  0.8956348311518574 0.8857049385279905 0  0.8855902433459832 0.8966135993662546 0  0.8727879277452848 0.9040964691856697 0  0.8583539382655971 0.9074953768299662 0  0.8435578460440222 0.9065113644088849 0  0.8297010717067042 0.9012309827523343 0  0.8180024162494974 0.8921186786546998 0  0.8696179927297535 0.810089639083147 0  0.8809787552634966 0.8154172446364354 0  0.890655326653621 0.8234056282283364 0  0.8980382752484825 0.8335516804815609 0  0.9026626220410783 0.8452164017821894 0  0.8432038693710107 0.8055392969753622 0  0.8297936834089306 0.8006948085341558 0  0.8175426624429224 0.7933999719297495 0  0.8068935902904218 0.7839184415635381 0  0.7982313521649068 0.7725929046468427 0  0.791869023921475 0.7598326955922315 0  0.7880365566797284 0.7460990016013385 0  0.7868724657911799 0.7318881941577851 0  0.7884188245335506 0.7177138888684791 0  0.792619743472893 0.7040883820573682 0  0.8055072543778092 0.6783174587975566 0  0.7084844165981061 0.6731198127635962 0  0.7078397537320036 0.659317191252343 0  0.7109975192712154 0.6458651851717165 0  0.7177165509343457 0.6337911401037331 0  0.7274837083426906 0.6240171651214417 0  0.7395530621566274 0.6172897102306341 0  0.7530028615797157 0.614122559101854 0  0.7668059295549805 0.6147575908050507 0  0.7799081094891473 0.6191463072195117 0  0.7913087724359112 0.6269535368925859 0  0.8001372363096253 0.6375830324791305 0  0.8057192609038634 0.650223006855021 0  0.01286077446390339 0.1929949116205939 0  0.02295697201369267 0.203913045523848 0  0.02939552803146878 0.2173176659697882 0  0 0.1712575695718785 0  0 0.1569861054408886 0  0 0.1427146413098989 0  0 0.128443177178909 0  0 0.1141717130479191 0  0 0.09990024891692917 0  0 0.08562878478593927 0  0 0.07135732065494937 0  0 0.05708585652395959 0  0 0.04281439239296969 0  0 0.02854292826197979 0  0 0.0142714641309899 0  0.03072629963732831 0.2413657687183533 0  0.01492537313432838 0 0  0.02985074626865675 0 0  0.04477611940298513 0 0  0.05970149253731351 0 0  0.0746268656716419 0 0  0.08955223880597028 0 0  0.1044776119402987 0 0  0.1194029850746271 0 0  0.1343283582089554 0 0  0.1492537313432838 0 0  0.1641791044776121 0 0  0.1791044776119405 0 0  0.1940298507462689 0 0  0.2089552238805972 0 0  0.2238805970149256 0 0  0.2388059701492539 0 0  0.2537313432835824 0 0  0.2686567164179108 0 0  0.2835820895522392 0 0  0.2985074626865676 0 0  0.313432835820896 0 0  0.3283582089552244 0 0  0.3432835820895528 0 0  0.3582089552238813 0 0  0.3731343283582096 0 0  0.3880597014925381 0 0  0.4029850746268665 0 0  0.4179104477611949 0 0  0.4328358208955234 0 0  0.4477611940298517 0 0  0.4626865671641802 0 0  0.4776119402985086 0 0  0.4925373134328369 0 0  0.5074626865671652 0 0  0.5223880597014936 0 0  0.5373134328358218 0 0  0.5522388059701502 0 0  0.5671641791044785 0 0  0.5820895522388068 0 0  0.5970149253731351 0 0  0.6119402985074635 0 0  0.6268656716417917 0 0  0.64179104477612 0 0  0.6567164179104483 0 0  0.6716417910447767 0 0  0.6865671641791049 0 0  0.7014925373134333 0 0  0.7164179104477616 0 0  0.7313432835820899 0 0  0.7462686567164182 0 0  0.7611940298507465 0 0  0.7761194029850749 0 0  0.791044776119403 0 0  0.8059701492537314 0 0  0.8208955223880597 0 0  0.835820895522388 0 0  0.8507462686567163 0 0  0.8656716417910447 0 0  0.8805970149253729 0 0  0.8955223880597013 0 0  0.9104477611940296 0 0  0.925373134328358 0 0  0.9402985074626862 0 0  0.9552238805970146 0 0  0.9701492537313429 0 0  0.9850746268656715 0 0  0.09467537074121862 0.3528454460965094 0  0.08055235753457997 0.3508851772987002 0  0.06705554888442755 0.3462875352883077 0  0.05467275462096987 0.339218690826627 0  0.04385152119194404 0.329934130370198 0  0.03498295616792374 0.3187694221246021 0  0.02838759259569786 0.3061280877351989 0  0.0243038040988188 0.2924670179634969 0  0.02287918943377093 0.2782799594646155 0  0.02416523788634639 0.2640796694967246 0  1 0.01391138975705466 0  1 0.02782277951410932 0  1 0.04173416927116397 0  1 0.05564555902821861 0  1 0.06955694878527326 0  1 0.08346833854232788 0  1 0.09737972829938252 0  1 0.1112911180564372 0  1 0.1252025078134918 0  1 0.1391138975705465 0  1 0.1530252873276011 0  1 0.1669366770846557 0  0.123185748658657 0.3520336343366614 0  0.1368940162911078 0.356004291529233 0  0.1489220940119789 0.3636859623347608 0  0.1582900171865326 0.3744527973116459 0  0.16423
[...]
<PointData  Tensors="$\sigma$"> 
<DataArray  type="Float64"  Name="$\sigma$"  NumberOfComponents="9" format="ascii">-1.1704407557621580e+07 -4.2419650295427404e+07 0.0000000000000000e+00 -4.2419650295427404e+07 -1.4229486808586329e+08 0.0000000000000000e+00 0.0000000000000000e+00 0.0000000000000000e+00 0.0000000000000000e+00  5.4029404499011505e+06 4.5588069073002413e+06 0.0000000000000000e+00 4.5588069073002413e+06 -7.6352463334514514e+07 0.0000000000000000e+00 0.0000000000000000e+00 0.0000000000000000e+00 0.0000000000000000e+00  4.9670110355617680e+07 -1.7380631707280356e+07 0.0000000000000000e+00 -1.7380631707280356e+07 3.3370020364593132e+06 0.0000000000000000e+00 0.0000000000000000e+00 0.0000000000000000e+00 0.0000000000000000e+00  -1.6525230838664048e+06 1.3403067254351282e+06 0.0000000000000000e+00 1.3403067254351282e+06 -1.2656291541279247e+06 0.0000000000000000e+00 0.0000000000000000e+00 0.0000000000000000e+00 0.0000000000000000e+00  -1.8284659351135283e+06 -1.7244734164538293e+06 0.0000000000000000e+00 -1.7244734164538293e+06 -1.7210234329716237e+06 0.0000000000000000e+00 0.0000000000000000e+00 0.0000000000000000e+00 0.0000000000000000e+00  5.7414524100940581e+06 1.5904613822581223e+06 0.0000000000000000e+00 1.5904613822581223e+06 1.8244701187602568e+08 0.0000000000000000e+00 0.0000000000000000e+00 0.0000000000000000e+00 0.0000000000000000e+00  2.2922446668267917e+07 1.1843023167253433e+07 0.0000000000000000e+00 1.1843023167253433e+07 5.0930429601406045e+06 0.0000000000000000e+00 0.0000000000000000e+00 0.0000000000000000e+00 0.0000000000000000e+00  -1.2164818464848239e+07 5.5748256036100902e+07 0.0000000000000000e+00 5.5748256036100902e+07 -1.4067062800558954e+08 0.0000000000000000e+00 0.0000000000000000e+00 0.0000000000000000e+00 0.0000000000000000e+00  -6.0768836846295958e+06 3.1314358302163932e+07 0.0000000000000000e+00 3.1314358302163932e+07 -1.0247332466749439e+08 0.0000000000000000e+00 0.0000000000000000e+00 0.0000000000000000e+00 0.0000000000000000e+00  1.2198975220192382e+06 1.2061043346394359e+06 0.0000000000000000e+00 1.2061043346394359e+06 1.8442982282802714e+06 0.0000000000000000e+00 0.0000000000000000e+00 0.0000000000000000e+00 0.0000000000000000e+00  -8.2187955724973523e+05 5.0125625630068192e+06 0.0000000000000000e+00 5.0125625630068192e+06 -4.4935974967310272e+07 0.0000000000000000e+00 0.0000000000000000e+00 0.0000000000000000e+00 0.0000000000000000e+00  5.0053547378556682e+06 1.1849357679433934e+06 0.0000000000000000e+00 1.1849357679433934e+06 2.2101318171990242e+07 0.0000000000000000e+00 0.0000000000000000e+00 0.0000000000000000e+00 0.0000000000000000e+00  -2.3457196696958300e+06 1.6886557275028374e+07 0.0000000000000000e+00 1.6886557275028374e+07 -6.3718874857008405e+07 0.0000000000000000e+00 0.0000000000000000e+00 0.0000000000000000e+00 0.0000000000000000e+00  2.5913537378063754e+05 -2.1188562809319212e+05 0.0000000000000000e+00 -2.1188562809319212e+05 2.5078948198611218e+07 0.0000000000000000e+00 0.0000000000000000e+00 0.0000000000000000e+00 0.0000000000000000e+00  -7.6434314365471408e+07 6.8031738932810603e+06 0.0000000000000000e+00 6.8031738932810603e+06 4.7098564040095685e+06 0.0000000000000000e+00 0.0000000000000000e+00 0.0000000000000000e+00 0.0000000000000000e+00  -6.2306229807518783e+05 1.0135581470775049e+06 0.0000000000000000e+00 1.0135581470775049e+06 -1.8149534107689146e+05 0.0000000000000000e+00 0.0000000000000000e+00 0.0000000000000000e+00 0.0000000000000000e+00  1.3122627186630808e+07 9.9554706206847150e+06 0.0000000000000000e+00 9.9554706206847150e+06 3.5996205062187260e+08 0.0000000000000000e+00 0.0000000000000000e+00 0.0000000000000000e+00 0.0000000000000000e+00  -1.0186115749133084e+07 -2.9910250668800183e+07 0.0000000000000000e+00 -2.9910250668800183e+07 -5.8206594299901292e+07 0.0000000000000000e+00 0.0000000000000000e+00 0.0000000000000000e+00 0.0000000000000000e+00  3.6382777877048292e+05 5.7033982532785810e+05 0.0000000000000000e+00 5.7033982532785810e+05 1.3680751785890400e+05 0.0000000000000000e+00 0.0000000000000000e+00 0.0000000000000000e+00 0.0000000000000000e+00  3.5739261897257054e+06 1.6708489979156216e+06 0.0000000000000000e+00 1.6708489979156216e+06 -5.2874344579825364e+07 0.0000000000000000e+00 0.0000000000000000e+00 0.0000000000000000e+00 0.0000000000000000e+00  5.2507373705153786e+03 -2.2672874662101881e+03 0.0000000000000000e+00 -2.2672874662101881e+03 5.0960860011917439e+03 0.0000000000000000e+00 0.0000000000000000e+00 0.0000000000000000e+00 0.0000000000000000e+00  5.9575436118454775e+06 -1.1403566894834047e+07 0.0000000000000000e+00 -1.1403566894834047e+07 6.7452543629433652e+06 0.0000000000000000e+00 0.0000000000000000e+00 0.0000000000000000e+00 0.0000000000000000e+00  2.7596952944620090e+04 8.6042512510756933e+03 0.0000000000000000e+00 8.6042512510756933e+03 -1.8155141866265425e+04 0.0000000000000000e+00 0.0000000000000000e+00 0.0000000000000000e+00 0.0000000000000000e+00  5.2574784577782266e+05 -2.3435083209065520e+06 0.0000000000000000e+00 -2.3435083209065520e+06 1.3011280240165233e+06 0.0000000000000000e+00 0.0000000000000000e+00 0.0000000000000000e+00 0.0000000000000000e+00  -7.1444723610499045e+06 2.3277950789512422e+07 0.0000000000000000e+00 2.3277950789512422e+07 -1.3422988962725160e+08 0.0000000000000000e+00 0.0000000000000000e+00 0.0000000000000000e+00 0.0000000000000000e+00  -1.1689249395440402e+04 7.1357943032475605e+03 0.0000000000000000e+00 7.1357943032475605e+03 1.1274785514014664e+04 0.0000000000000000e+00 0.0000000000000000e+00 0.0000000000000000e+00 0.0000000000000000e+00  -3.1708078267765518e+07 8.0112865612599239e+07 0.0000000000000000e+00 8.0112865612599239e+07 -1.4683566798625529e+08 0.0000000000000000e+00 0.0000000000000000e+00 0.0000000000000000e+00 0.0000000000000000e+00  7.1699905552467704e+05 -7.6173396456561715e+05 0.0000000000000000e+00 -7.6173396456561715e+05 8.7478157284112100e+05 0.0000000000000000e+00 0.0000000000000000e+00 0.0000000000000000e+00 0.0000000000000000e+00  1.8231204974273071e+07 1.4770699062710565e+07 0.0000000000000000e+00 1.4770699062710565e+07 8.7452653930918705e+06 0.0000000000000000e+00 0.0000000000000000e+00 0.0000000000000000e+00 0.0000000000000000e+00  -1.1582454795748342e+07 -5.2747845350220516e+07 0.0000000000000000e+00 -5.2747845350220516e+07 -1.6151991004567954e+08 0.0000000000000000e+00 0.0000000000000000e+00 0.0000000000000000e+00 0.0000000000000000e+00  1.3404754758676453e+07 -6.5925306547243772e+06 0.0000000000000000e+00 -6.5925306547243772e+06 1.6901929873387042e+08 0.0000000000000000e+00 0.0000000000000000e+00 0.0000000000000000e+00 0.0000000000000000e+00  4.4950307208740534e+06 3.6221051385696963e+06 0.0000000000000000e+00 3.6221051385696963e+06 -9.6569639050693020e+07 0.0000000000000000e+00 0.0000000000000000e+00 0.0000000000000000e+00 0.0000000000000000e+00  -6.0883821183601476e+05 -6.7131843055612547e+05 0.0000000000000000e+00 -6.7131843055612547e+05 4.9800536692297325e+05 0.0000000000000000e+00 0.0000000000000000e+00 0.0000000000000000e+00 0.0000000000000000e+00  -3.8020060486035578e+07 -9.7398547966994308e+06 0.0000000000000000e+00 -9.7398547966994308e+06 4.6300407318868721e+06 0.0000000000000000e+00 0.0000000000000000e+00 0.0000000000000000e+00 0.0000000000000000e+00  -2.1601356905566836e+03 -7.5273731279634767e+03 0.0000000000000000e+00 -7.5273731279634767e+03 -2.3171541850097561e+04 0.0000000000000000e+00 0.0000000000000000e+00 0.0000000000000000e+00 0.0000000000000000e+00  -1.0957501454393523e+07 7.0705801762502091e+06 0.0000000000000000e+00 7.0705801762502091e+06 -3.8681131022996423e+06 0.0000000000000000e+00 0.0000000000000000e+00 0.0000000000000000e+00 0.0000000000000000e+00  -8.0016512105692105e+04 2.8539832037250893e+04 0.0000000000000000e+00 2.8539832037250893e+04 -5.5670323105007512e+06 0.0000000000000000e+00 0.0000000000000000e+00 0.0000000000000000e+00 0.0000000000000000e+00  1.6765309889741873e+05 1.9389770245639427e+05 0.0000000000000000e+00 1.9389770245639427e+05 2.1631540556634069e+05 0.0000000000000000e+00 0.0000000000000000e+00 0.0000000000000000e+00 0.0000000000000000e+00  -2.2535316413267996e+05 -2.1923691758799614e+05 0.0000000000000000e+00 -2.1923691758799614e+05 -1.0536490439294832e+07 0.0000000000000000e+00 0.0000000000000000e+00 0.0000000000000000e+00 0.0000000000000000e+00  -2.3437800556247859e+05 -4.1954458952083229e+05 0.0000000000000000e+00 -4.1954458952083229e+05 -2.7343868723619231e+06 0.0000000000000000e+00 0.0000000000000000e+00 0.0000000000000000e+00 0.0000000000000000e+00  -6.4765201675855892e+05 -8.7359109037250877e+04 0.0000000000000000e+00 -8.7359109037250877e+04 -7.3397585434540706e+06 0.0000000000000000e+00 0.0000000000000000e+00 0.0000000000000000e+00 0.0000000000000000e+00  6.1746942887355668e+04 9.9283936016790594e+03 0.0000000000000000e+00 9.9283936016790594e+03 -1.1401208226925426e+06 0.0000000000000000e+00 0.0000000000000000e+00 0.0000000000000000e+00 0.0000000000000000e+00  -6.5094665495083376e+05 1.5229063643453105e+06 0.0000000000000000e+00 1.5229063643453105e+06 -4.7327146581341596e+06 0.0000000000000000e+00 0.0000000000000000e+00 0.0000000000000000e+00 0.0000000000000000e+00  -2.4651144619753999e+06 1.4090336624690666e+05 0.0000000000000000e+00 1.4090336624690666e+05 6.0933308245916257e+05 0.0000000000000000e+00 0.0000000000000000e+00 0.0000000000000000e+00 0.0000000000000000e+00  -1.0883094067511622e+07 -3.0011151884704093e+06 0.0000000000000000e+00 -3.0011151884704093e+06 -7.6726705436359171e+05 0.0000000000000000e+00 0.0000000000000000e+00 0.0000000000000000e+00 0.0000000000000000e+00  -6.7134600130549774e+07 7.5065134283129498e+07 0.0000000000000000e+00 7.5065134283129498e+07 -8.2426751220446631e+07 0.0000000000000000e+00 0.0000000000000000e+00 0.0000000000000000e+00 0.0000000000000000e+00  2.1444259524545312e+07 -1.4863608257567905e+07 0.0000000000000000e+00 -1.4863608257567905e+07 1.9392231653489253e+08 0.0000000000000000e+00 0.0000000000000000e+00 0.0000000000000000e+00 0.0000000000000000e+00  -2.0222714346657116e+07 -3.4756583340416417e+07 0.0000000000000000e+00 -3.4756583340416417e+07 -4.6991916952239789e+07 0.0000000000000000e+00 0.0000000000000000e+00 0.0000000000000000e+00 0.0000000000000000e+00  -2.5556840393580902e+07 -7.9146884310545161e+07 0.0000000000000000e+00 -7.9146884310545161e+07 -1.6102212931865492e+08 0.0000000000000000e+00 0.0000000000000000e+00 0.0000000000000000e+00 0.0000000000000000e+00  -3.8002764001217810e+06 1.5646927275427014e+07 0.0000000000000000e+00 1.5646927275427014e+07 -1.3880990375547963e+08 0.0000000000000000e+00 0.0000000000000000e+00 0.0000000000000000e+00 0.0000000000000000e+00  2.7620179811134646e+06 3.0043576544235214e+06 0.0000000000000000e+00 3.0043576544235214e+06 -4.5891575161063410e+07 0.0000000000000000e+00 0.0000000000000000e+00 0.0000000000000000e+00 0.0000000000000000e+00  -9.4138082220145240e+06 4.5660493060411736e+07 0.0000000000000000e+00 4.5660493060411736e+07 -1.5557289041805586e+08 0.0000000000000000e+00 0.0000000000000000e+00 0.0000000000000000e+00 0.0000000000000000e+00  1.9256001840289038e+07 -1.1415553461725306e+07 0.0000000000000000e+00 -1.1415553461725306e+07 4.8403888068281729e+06 0.0000000000000000e+00 0.0000000000000000e+00 0.0000000000000000e+00 0.0000000000000000e+00  -6.8095436194530219e+07 5.2924816858772542e+06 0.0000000000000000e+00 5.2924816858772542e+06 7.1717784464790002e+06 0.0000000000000000e+00 0.0000000000000000e+00 0.0000000000000000e+00 0.0000000000000000e+00  -2.0691154157821044e+07 2.8761791536378734e+07 0.0000000000000000e+00 2.8761791536378734e+07 -3.8514380756889977e+07 0.0000000000000000e+00 0.0000000000000000e+00 0.0000000000000000e+00 0.0000000000000000e+00  3.3545352439275343e+07 2.5652217582473949e+07 0.0000000000000000e+00 2.5652217582473949e+07 2.8765429920385414e+08 0.0000000000000000e+00 0.0000000000000000e+00 0.0000000000000000e+00 0.0000000000000000e+00  -7.1869755106240511e+07 -6.5304452457383201e+07 0.0000000000000000e+00 -6.5304452457383201e+07 -6.0283654132807322e+07 0.0000000000000000e+00 0.0000000000000000e+00 0.0000000000000000e+00 0.0000000000000000e+00  -5.6275642810438573e+05 -1.7989478668732252e+06 0.0000000000000000e+00 -1.7989478668732252e+06 -5.9168379457060862e+06 0.0000000000000000e+00 0.0000000000000000e+00 0.0000000000000000e+00 0.0000000000000000e+00  -9.3657378116998798e+05 -8.3648294290706306e+05 0.0000000000000000e+00 -8.3648294290706306e+05 -1.0368911790257588e+07 0.0000000000000000e+00 0.0000000000000000e+00 0.0000000000000000e+00 0.0000000000000000e+00  1.6688009835417065e+05 6.3855989758762153e+04 0.0000000000000000e+00 6.3855989758762153e+04 -3.0521345172490268e+06 0.0000000000000000e+00 0.0000000000000000e+00 0.0000000000000000e+00 0.0000000000000000e+00  -4.2606929434974998e+05 1.1699623442477563e+06 0.0000000000000000e+00 1.1699623442477563e+06 -3.9658378398097786e+06 0.0000000000000000e+00 0.0000000000000000e+00 0.0000000000000000e+00 0.0000000000000000e+00  -1.3299261925009511e+07 3.9803671512077935e+06 0.0000000000000000e+00 3.9803671512077935e+06 -5.6757659132065286e+05 0.0000000000000000e+00 0.0000000000000000e+00 0.0000000000000000e+00 0.0000000000000000e+00  -6.1712245929500824e+06 -1.5470163605629609e+06 0.0000000000000000e+00 -1.5470163605629609e+06 -5.3193135675303951e+04 0.0000000000000000e+00 0.0000000000000000e+00 0.0000000000000000e+00 0.0000000000000000e+00  -4.3080831986524932e+07 5.2697137153984711e+07 0.0000000000000000e+00 5.2697137153984711e+07 -5.9103273652190588e+07 0.0000000000000000e+00 0.0000000000000000e+00 0.0000000000000000e+00 0.0000000000000000e+00  5.6368473853373965e+06 -3.9498661635324708e+05 0.0000000000000000e+00 -3.9498661635324708e+05 1.9176598129967800e+08 0.0000000000000000e+00 0.0000000000000000e+00 0.0000000000000000e+00 0.0000000000000000e+00  -2.1854131978510883e+07 -3.3691751090007916e+07 0.0000000000000000e+00 -3.3691751090007916e+07 -4.2692997263952829e+07 0.0000000000000000e+00 0.0000000000000000e+00 0.0000000000000000e+00 0.0000000000000000e+00  -1.1945373329641137e+07 -2.7576763519566007e+07 0.0000000000000000e+00 -2.7576763519566007e+07 -4.9359546715675354e+07 0.0000000000000000e+00 0.0000000000000000e+00 0.0000000000000000e+00 0.0000000000000000e+00  1.2926605917567420e+06 1.6865404819195606e+07 0.0000000000000000e+00 1.6865404819195606e+07 4.2820888971997127e+07 0.0000000000000000e+00 0.0000000000000000e+00 0.0000000000000000e+00 0.0000000000000000e+00  4.1527929936921704e+06 1.2840266810243668e+06 0.0000000000000000e+00 1.2840266810243668e+06 -6.2693070877960972e+07 0.0000000000000000e+00 0.0000000000000000e+00 0.0000000000000000e+00 0.0000000000000000e+00  -9.7076007974094730e+06 2.7391030177027833e+07 0.0000000000000000e+00 2.7391030177027833e+07 -6.0500502384493686e+07 0.0000000000000000e+00 0.0000000000000000e+00 0.0000000000000000e+00 0.0000000000000000e+00  -1.9804841024534781e+07 -1.2760606566967113e+07 0.0000000000000000e+00 -1.2760606566967113e+07 6.1833126585618705e+06 0.0000000000000000e+00 0.0000000000000000e+00 0.0000000000000000e+00 0.0000000000000000e+00  -4.6651668649136019e+05 8.2527779081777949e+06 0.0000000000000000e+00 8.2527779081777949e+06 4.6517337674208963e+06 0.0000000000000000e+00 0.0000000000000000e+00 0.0000000000000000e+00 0.0000000000000000e+00  -6.5485944815767840e+07 6.9502076392432541e+07 0.0000000000000000e+00 6.9502076392432541e+07 -6.9453575448874399e+07 0.0000000000000000e+00 0.0000000000000000e+00 0.0000000000000000e+00 0.0000000000000000e+00  2.9116559734980781e+07 1.8866824968475234e+07 0.0000000000000000e+00 1.8866824968475234e+07 3.0632758091235983e+08 0.0000000000000000e+00 0.0000000000000000e+00 0.0000000000000000e+00 0.0000000000000000e+00  -3.8392176039298885e+07 -4.1729560102630995e+07 0.0000000000000000e+00 -4.1729560102630995e+07 -4.8675612460148223e+07 0.0000000000000000e+00 0.0000000000000000e+00 0.0000000000000000e+00 0.0000000000000000e+00  -3.9771625405838124e+07 -8.3623339370560408e+07 0.0000000000000000e+00 -8.3623339370560408e+07 -1.5358753396917185e+08 0.0000000000000000e+00 0.0000000000000000e+00 0.0000000000000000e+00 0.0000000000000000e+00  -3.5832225345219094e+06 1.7533612864005860e+07 0.0000000000000000e+00 1.7533612864005860e+07 -7.1120278154610172e+07 0.0000000000000000e+00 0.0000000000000000e+00 0.0000000000000000e+00 0.0000000000000000e+00  4.0458316831955453e+06 2.7600571295854859e+06 0.0000000000000000e+00 2.7600571295854859e+06 -6.8999995314355120e+07 0.0000000000000000e+00 0.0000000000000000e+00 0.0000000000000000e+00 0.0000000000000000e+00  -7.9840136166325444e+06 3.3324015343536481e+07 0.0000000000000000e+00 3.3324015343536481e+07 -1.0408312013512033e+08 0.0000000000000000e+00 0.0000000000000000e+00 0.0000000000000000e+00 0.0000000000000000e+00  6.4172329681003615e+07 -2.7607952059615813e+07 0.0000000000000000e+00 -2.7607952059615813e+07 1.2832389053708779e+07 0.0000000000000000e+00 0.0000000000000000e+00 0.0000000000000000e+00 0.0000000000000000e+00  -5.0857942556908309e+07 7.4187621042352617e+06 0.0000000000000000e+00 7.4187621042352617e+06 4.4277585415415661e+06 0.0000000000000000e+00 0.0000000000000000e+00 0.0000000000000000e+00 0.0000000000000000e+00  -3.5071253177455656e+07 6.5467908797612615e+07 0.0000000000000000e+00 6.5467908797612615e+07 -9.4867493418710575e+07 0.0000000000000000e+00 0.0000000000000000e+00 0.0000000000000000e+00 0.0000000000000000e+00  2.8406942933275763e+07 1.6165233471229274e+06 0.0000000000000000e+00 1.6165233471229274e+06 2.7151415493771046e+08 0.0000000000000000e+00 0.0000000000000000e+00 0.0000000000000000e+00 0.0000000000000000e+00  -7.0615061980529591e+07 -6.6151327212412186e+07 0.0000000000000000e+00 -6.6151327212412186e+07 -5.9205477599807329e+07 0.0000000000000000e+00 0.0000000000000000e+00 0.0000000000000000e+00 0.0000000000000000e+00  -3.0479521684373659e+06 -1.6344733800821524e+07 0.0000000000000000e+00 -1.6344733800821524e+07 -5.2748992964036413e+07 0.0000000000000000e+00 0.0000000000000000e+00 0.0000000000000000e+00 0.0000000000000000e+00  -3.5752453948989487e+06 2.5098433898358114e+07 0.0000000000000000e+00 2.5098433898358114e+07 -3.1572664433281902e+07 0.0000000000000000e+00 0.0000000000000000e+00 0.0000000000000000e+00 0.0000000000000000e+00  2.8624902409244557e+06 -9.0653644112029269e+03 0.0000000000000000e+00 -9.0653644112029269e+03 -4.7229649167766079e+07 0.0000000000000000e+00 0.0000000000000000e+00 0.0000000000000000e+00 0.0000000000000000e+00  -2.8682872447333016e+07 6.7576601824217916e+07 0.0000000000000000e+00 6.7576601824217916e+07 -1.1524278719607769e+08 0.0000000000000000e+00 0.0000000000000000e+00 0.0000000000000000e+00 0.0000000000000000e+00  -1.9723608371698701e+08 1.2291742901269689e+06 0.0000000000000000e+00 1.2291742901269689e+06 1.3503610997224875e+07 0.0000000000000000e+00 0.0000000000000000e+00 0.0000000000000000e+00 0.0000000000000000e+00  5.5390586247620553e+07 3.4217132848000675e+07 0.0000000000000000e+00 3.4217132848000675e+07 2.0020680180404741e+07 0.0000000000000000e+00 0.0000000000000000e+00 0.0000000000000000e+00 0.0000000000000000e+00  -1.8527542482630354e+06 1.3885226332952136e+06 0.0000000000000000e+00 1.3885226332952136e+06 -1.0278834606902750e+06 0.0000000000000000e+00 0.0000000000000000e+00 0.0000000000000000e+00 0.0000000000000000e+00  5.3043462196937362e+06 6.8759882203671178e+06 0.0000000000000000e+00 6.8759882203671178e+06 1.0005648060149072e+08 0.0000000000000000e+00 0.0000000000000000e+00 0.0000000000000000e+00 0.0000000000000000e+00  -7.0568099105600081e+05 -8.6365491246984503e+05 0.0000000000000000e+00 -8.6365491246984503e+05 -1.1786453742351050e+06 0.0000000000000000e+00 0.0000000000000000e+00 0.0000000000000000e+00 0.0000000000000000e+00  -1.2818787833371408e+07 -5.8975980816211969e+07 0.0000000000000000e+00 -5.8975980816211969e+07 -1.1301197194075672e+08 0.0000000000000000e+00 0.0000000000000000e+00 0.0000000000000000e+00 0.0000000000000000e+00  -2.3399683410074166e+06 2.1190250123487398e+07 0.0000000000000000e+00 2.1190250123487398e+07 -6.5900579176116161e+07 0.0000000000000000e+0