<?xml version="1.0"?>
<VTKFile type="UnstructuredGrid"  version="0.1"  >
<UnstructuredGrid>
<Piece  NumberOfPoints="4716" NumberOfCells="7724">
<Points>
<DataArray  type="Float64"  NumberOfComponents="3"  format="ascii">8.955509944730267e-16 0.04909396912617092 0  0.06545407417725058 0.1204081632653061 0  0.0431920353769017 0.1722857142857149 0  0.04322448979591893 0.1723071632334988 0  0.04322448979591895 0.3215703877869094 0  0.04319203537690178 0.3215918367346934 0  0.06545407417725058 0.3734693877551021 0  0.04319203537690176 0.4253469387755108 0  0.04322448979591895 0.4253683877232947 0  0.04322448979591892 0.5746316122767052 0  0.04319203537690176 0.5746530612244891 0  0.06545407417725058 0.6265306122448979 0  0.04319203537690176 0.6784081632653067 0  0.04322448979591895 0.6784296122130906 0  0.04322448979591892 0.8276928367665011 0  0.04319203537690169 0.8277142857142851 0  0.06545407417725058 0.8795918367346939 0  2.060417808591453e-15 0.9509060308738289 0  0 1 0  1 1 0  0.999999999999998 0.9509060308738289 0  0.9568079646230983 0.8277142857142851 0  0.9567755102040832 0.8276928367665015 0  0.9869566214699573 0.7530612244897958 0  0.9567755102040834 0.6784296122130902 0  0.9568079646230981 0.6784081632653067 0  0.9568079646230981 0.5746530612244891 0  0.9567755102040832 0.5746316122767057 0  0.9869566214699573 0.5 0  0.9567755102040834 0.4253683877232943 0  0.9568079646230981 0.4253469387755109 0  0.9568079646230981 0.3215918367346933 0  0.9567755102040834 0.3215703877869098 0  0.9869566214699573 0.2469387755102041 0  0.9567755102040834 0.1723071632334984 0  0.9568079646230981 0.1722857142857149 0  0.9999999999999996 0.04909396912617082 0  1 0 0  0 0 0  0.08244897959183636 0.05972621337849228 0  0.1583673469387754 0.05972621337849224 0  0.1012423357556717 0.1204081632653061 0  0.1583673469387754 0.18109011315212 0  0.08244897959183645 0.18109011315212 0  0.3076207253970188 0.08244897959183797 0  0.3185152986670465 0.1204081632653061 0  0.1862568256233894 0.08244897959183799 0  0.3076207253970196 0.1583673469387766 0  0.1862568256233886 0.1583673469387766 0  0.1810901131521209 0.208979591836736 0  0.1919846864221485 0.2469387755102041 0  0.05972621337849139 0.208979591836736 0  0.1810901131521216 0.2848979591836747 0  0.05972621337849064 0.2848979591836747 0  0.2089795918367343 0.1862568256233902 0  0.2848979591836734 0.1862568256233902 0  0.2277729480005697 0.2469387755102041 0  0.2848979591836734 0.307620725397018 0  0.2089795918367344 0.307620725397018 0  0.3355102040816323 0.05972621337849228 0  0.4114285714285714 0.05972621337849222 0  0.3543035602454677 0.1204081632653061 0  0.4114285714285714 0.18109011315212 0  0.3355102040816324 0.18109011315212 0  0.4341513376419168 0.2089795918367359 0  0.4450459109119445 0.2469387755102041 0  0.3127874378682873 0.208979591836736 0  0.4341513376419175 0.2848979591836747 0  0.3127874378682866 0.2848979591836746 0  0.4620408163265303 0.1862568256233902 0  0.5379591836734692 0.1862568256233902 0  0.4808341724903656 0.2469387755102041 0  0.5379591836734693 0.307620725397018 0  0.4620408163265304 0.307620725397018 0  0.08244897959183639 0.3127874378682882 0  0.1583673469387754 0.3127874378682882 0  0.1012423357556717 0.3734693877551021 0  0.1583673469387754 0.4341513376419159 0  0.08244897959183647 0.4341513376419159 0  0.3076207253970188 0.3355102040816339 0  0.3185152986670465 0.3734693877551021 0  0.1862568256233894 0.335510204081634 0  0.3076207253970196 0.4114285714285726 0  0.1862568256233886 0.4114285714285726 0  0.3355102040816323 0.3127874378682882 0  0.4114285714285714 0.3127874378682881 0  0.3543035602454677 0.3734693877551021 0  0.4114285714285714 0.434151337641916 0  0.3355102040816325 0.4341513376419159 0  0.5606819498868147 0.082448979591838 0  0.5715765231568424 0.1204081632653061 0  0.4393180501131853 0.08244897959183799 0  0.5606819498868155 0.1583673469387766 0  0.4393180501131845 0.1583673469387766 0  0.5885714285714282 0.05972621337849228 0  0.6644897959183671 0.05972621337849221 0  0.6073647847352636 0.1204081632653061 0  0.6644897959183672 0.18109011315212 0  0.5885714285714283 0.18109011315212 0  0.6872125621317127 0.208979591836736 0  0.6981071354017403 0.2469387755102041 0  0.5658486623580832 0.208979591836736 0  0.6872125621317134 0.2848979591836747 0  0.5658486623580824 0.2848979591836747 0  0.8137431743766106 0.082448979591838 0  0.8246377476466382 0.1204081632653061 0  0.6923792746029811 0.08244897959183799 0  0.8137431743766114 0.1583673469387766 0  0.6923792746029803 0.1583673469387766 0  0.8416326530612241 0.05972621337849228 0  0.9175510204081632 0.05972621337849228 0  0.8604260092250595 0.1204081632653061 0  0.9175510204081633 0.18109011315212 0  0.8416326530612243 0.18109011315212 0  0.7151020408163262 0.1862568256233902 0  0.791020408163265 0.1862568256233902 0  0.7338953969801615 0.2469387755102041 0  0.7910204081632651 0.307620725397018 0  0.7151020408163262 0.307620725397018 0  0.9402737866215085 0.208979591836736 0  0.9511683598915363 0.2469387755102041 0  0.8189098868478792 0.2089795918367359 0  0.9402737866215094 0.2848979591836747 0  0.8189098868478784 0.2848979591836746 0  0.5606819498868147 0.335510204081634 0  0.5715765231568424 0.3734693877551021 0  0.4393180501131853 0.335510204081634 0  0.5606819498868155 0.4114285714285726 0  0.4393180501131845 0.4114285714285726 0  0.5885714285714282 0.3127874378682882 0  0.6644897959183672 0.3127874378682882 0  0.6073647847352636 0.3734693877551021 0  0.6644897959183672 0.4341513376419159 0  0.5885714285714283 0.4341513376419159 0  0.8137431743766106 0.335510204081634 0  0.8246377476466382 0.3734693877551021 0  0.6923792746029811 0.335510204081634 0  0.8137431743766114 0.4114285714285726 0  0.6923792746029803 0.4114285714285726 0  0.8416326530612241 0.3127874378682882 0  0.9175510204081632 0.3127874378682882 0  0.8604260092250595 0.3734693877551021 0  0.9175510204081632 0.4341513376419159 0  0.8416326530612243 0.4341513376419159 0  0.1810901131521208 0.4620408163265319 0  0.1919846864221485 0.5 0  0.0597262133784914 0.4620408163265319 0  0.1810901131521216 0.5379591836734705 0  0.05972621337849061 0.5379591836734705 0  0.2089795918367344 0.4393180501131861 0  0.2848979591836734 0.4393180501131861 0  0.2277729480005697 0.5 0  0.2848979591836734 0.5606819498868139 0  0.2089795918367344 0.5606819498868139 0  0.08244897959183638 0.5658486623580842 0  0.1583673469387754 0.5658486623580841 0  0.1012423357556717 0.6265306122448979 0  0.1583673469387754 0.6872125621317118 0  0.08244897959183645 0.6872125621317118 0  0.3076207253970188 0.5885714285714299 0  0.3185152986670465 0.6265306122448979 0  0.1862568256233894 0.5885714285714299 0  0.3076207253970196 0.6644897959183684 0  0.1862568256233886 0.6644897959183683 0  0.4341513376419168 0.4620408163265318 0  0.4450459109119445 0.5 0  0.3127874378682873 0.4620408163265319 0  0.4341513376419176 0.5379591836734705 0  0.3127874378682866 0.5379591836734704 0  0.4620408163265303 0.4393180501131861 0  0.5379591836734693 0.4393180501131861 0  0.4808341724903656 0.5 0  0.5379591836734693 0.5606819498868139 0  0.4620408163265304 0.5606819498868139 0  0.3355102040816323 0.5658486623580841 0  0.4114285714285714 0.5658486623580841 0  0.3543035602454677 0.6265306122448979 0  0.4114285714285714 0.6872125621317118 0  0.3355102040816324 0.6872125621317118 0  0.1810901131521209 0.7151020408163278 0  0.1919846864221485 0.7530612244897958 0  0.0597262133784914 0.7151020408163278 0  0.1810901131521216 0.7910204081632664 0  0.05972621337849061 0.7910204081632664 0  0.2089795918367343 0.692379274602982 0  0.2848979591836734 0.692379274602982 0  0.2277729480005697 0.7530612244897958 0  0.2848979591836734 0.8137431743766097 0  0.2089795918367344 0.8137431743766097 0  0.08244897959183638 0.8189098868478801 0  0.1583673469387754 0.8189098868478799 0  0.1012423357556717 0.8795918367346939 0  0.1583673469387754 0.9402737866215077 0  0.08244897959183647 0.9402737866215076 0  0.3076207253970189 0.8416326530612257 0  0.3185152986670465 0.8795918367346939 0  0.1862568256233894 0.8416326530612257 0  0.3076207253970196 0.9175510204081644 0  0.1862568256233886 0.9175510204081644 0  0.4341513376419168 0.7151020408163278 0  0.4450459109119445 0.7530612244897958 0  0.3127874378682873 0.7151020408163278 0  0.4341513376419176 0.7910204081632664 0  0.3127874378682866 0.7910204081632662 0  0.4620408163265303 0.692379274602982 0  0.5379591836734692 0.692379274602982 0  0.4808341724903656 0.7530612244897958 0  0.5379591836734693 0.8137431743766097 0  0.4620408163265304 0.8137431743766097 0  0.3355102040816323 0.81890988684788 0  0.4114285714285714 0.8189098868478799 0  0.3543035602454677 0.8795918367346939 0  0.4114285714285714 0.9402737866215078 0  0.3355102040816324 0.9402737866215078 0  0.6872125621317127 0.4620408163265319 0  0.6981071354017403 0.5 0  0.5658486623580832 0.4620408163265319 0  0.6872125621317134 0.5379591836734705 0  0.5658486623580824 0.5379591836734704 0  0.5606819498868147 0.5885714285714299 0  0.5715765231568424 0.6265306122448979 0  0.4393180501131853 0.5885714285714299 0  0.5606819498868155 0.6644897959183684 0  0.4393180501131845 0.6644897959183683 0  0.5885714285714282 0.5658486623580841 0  0.6644897959183671 0.5658486623580841 0  0.6073647847352636 0.6265306122448979 0  0.6644897959183672 0.6872125621317118 0  0.5885714285714283 0.6872125621317118 0  0.7151020408163261 0.4393180501131861 0  0.7910204081632651 0.4393180501131861 0  0.7338953969801615 0.5 0  0.7910204081632651 0.5606819498868139 0  0.7151020408163262 0.5606819498868139 0  0.9402737866215086 0.4620408163265319 0  0.9511683598915363 0.5 0  0.8189098868478792 0.4620408163265319 0  0.9402737866215094 0.5379591836734705 0  0.8189098868478784 0.5379591836734704 0  0.8137431743766106 0.5885714285714299 0  0.8246377476466382 0.6265306122448979 0  0.6923792746029811 0.5885714285714299 0  0.8137431743766114 0.6644897959183684 0  0.6923792746029803 0.6644897959183683 0  0.8416326530612241 0.56584866
[...]
<PointData  Tensors="$\sigma$"> 
<DataArray  type="Float64"  Name="$\sigma$"  NumberOfComponents="9" format="ascii">-2.0464469076961661e+06 -1.4243041613046329e+06 0.0000000000000000e+00 -1.4243041613046329e+06 -3.0577354278800753e+06 0.0000000000000000e+00 0.0000000000000000e+00 0.0000000000000000e+00 0.0000000000000000e+00  6.4384724892665967e+06 -1.7648442641892102e+07 0.0000000000000000e+00 -1.7648442641892102e+07 2.2850926658155838e+08 0.0000000000000000e+00 0.0000000000000000e+00 0.0000000000000000e+00 0.0000000000000000e+00  1.0340347361292560e+08 -9.8309535424344391e+07 0.0000000000000000e+00 -9.8309535424344391e+07 5.5350366592822082e+07 0.0000000000000000e+00 0.0000000000000000e+00 0.0000000000000000e+00 0.0000000000000000e+00  4.0788420662063397e+07 -6.2623546686554432e+07 0.0000000000000000e+00 -6.2623546686554432e+07 8.1904110771823317e+07 0.0000000000000000e+00 0.0000000000000000e+00 0.0000000000000000e+00 0.0000000000000000e+00  2.7238958981241070e+07 4.0993964191836648e+07 0.0000000000000000e+00 4.0993964191836648e+07 5.4500111368648730e+07 0.0000000000000000e+00 0.0000000000000000e+00 0.0000000000000000e+00 0.0000000000000000e+00  7.0657166875217766e+07 6.6567422404025495e+07 0.0000000000000000e+00 6.6567422404025495e+07 1.9898011493986193e+07 0.0000000000000000e+00 0.0000000000000000e+00 0.0000000000000000e+00 0.0000000000000000e+00  1.0090522226689296e+07 3.0997544991147588e+06 0.0000000000000000e+00 3.0997544991147588e+06 3.6237668302219075e+08 0.0000000000000000e+00 0.0000000000000000e+00 0.0000000000000000e+00 0.0000000000000000e+00  7.3779932643319234e+07 -6.7625788255324572e+07 0.0000000000000000e+00 -6.7625788255324572e+07 1.7256827425964173e+07 0.0000000000000000e+00 0.0000000000000000e+00 0.0000000000000000e+00 0.0000000000000000e+00  2.3865673817391176e+07 -3.8280569342756979e+07 0.0000000000000000e+00 -3.8280569342756979e+07 5.3751061437478170e+07 0.0000000000000000e+00 0.0000000000000000e+00 0.0000000000000000e+00 0.0000000000000000e+00  2.3877045980934169e+07 3.8286791446149103e+07 0.0000000000000000e+00 3.8286791446149103e+07 5.3744087040113233e+07 0.0000000000000000e+00 0.0000000000000000e+00 0.0000000000000000e+00 0.0000000000000000e+00  7.3763153120169640e+07 6.7615329433658779e+07 0.0000000000000000e+00 6.7615329433658779e+07 1.7260922297709767e+07 0.0000000000000000e+00 0.0000000000000000e+00 0.0000000000000000e+00 0.0000000000000000e+00  1.0090533247246630e+07 -3.1066510758127738e+06 0.0000000000000000e+00 -3.1066510758127738e+06 3.6237084171547407e+08 0.0000000000000000e+00 0.0000000000000000e+00 0.0000000000000000e+00 0.0000000000000000e+00  7.0680640622481525e+07 -6.6587511263654597e+07 0.0000000000000000e+00 -6.6587511263654597e+07 1.9911571471561935e+07 0.0000000000000000e+00 0.0000000000000000e+00 0.0000000000000000e+00 0.0000000000000000e+00  2.7240898033374995e+07 -4.1002990098912716e+07 0.0000000000000000e+00 -4.1002990098912716e+07 5.4518336515759654e+07 0.0000000000000000e+00 0.0000000000000000e+00 0.0000000000000000e+00 0.0000000000000000e+00  4.0747840686511524e+07 6.2623151073180951e+07 0.0000000000000000e+00 6.2623151073180951e+07 8.1913204769778654e+07 0.0000000000000000e+00 0.0000000000000000e+00 0.0000000000000000e+00 0.0000000000000000e+00  1.0321332899245214e+08 9.8296005841540143e+07 0.0000000000000000e+00 9.8296005841540143e+07 5.5454427843370944e+07 0.0000000000000000e+00 0.0000000000000000e+00 0.0000000000000000e+00 0.0000000000000000e+00  6.9749176509888247e+06 1.6018912002397481e+07 0.0000000000000000e+00 1.6018912002397481e+07 2.2868277871093079e+08 0.0000000000000000e+00 0.0000000000000000e+00 0.0000000000000000e+00 0.0000000000000000e+00  -2.0199609445938524e+06 1.4406970023010508e+06 0.0000000000000000e+00 1.4406970023010508e+06 -3.0787666176409819e+06 0.0000000000000000e+00 0.0000000000000000e+00 0.0000000000000000e+00 0.0000000000000000e+00  4.5095334160344582e+05 8.2813839311793202e+05 0.0000000000000000e+00 8.2813839311793202e+05 -2.5352428401622776e+07 0.0000000000000000e+00 0.0000000000000000e+00 0.0000000000000000e+00 0.0000000000000000e+00  2.0975609280827007e+05 -1.0323281565566662e+06 0.0000000000000000e+00 -1.0323281565566662e+06 -2.5873416635045238e+07 0.0000000000000000e+00 0.0000000000000000e+00 0.0000000000000000e+00 0.0000000000000000e+00  -1.3324983095759789e+06 -1.1543012180930821e+06 0.0000000000000000e+00 -1.1543012180930821e+06 -3.3180975852846368e+06 0.0000000000000000e+00 0.0000000000000000e+00 0.0000000000000000e+00 0.0000000000000000e+00  1.0172088248626702e+08 -9.3169621666892707e+07 0.0000000000000000e+00 -9.3169621666892707e+07 5.8622319228363514e+07 0.0000000000000000e+00 0.0000000000000000e+00 0.0000000000000000e+00 0.0000000000000000e+00  3.9783141362608165e+07 -6.1541625478039540e+07 0.0000000000000000e+00 -6.1541625478039540e+07 8.0545295653276131e+07 0.0000000000000000e+00 0.0000000000000000e+00 0.0000000000000000e+00 0.0000000000000000e+00  3.6394842522353246e+06 -3.8133925447896344e+05 0.0000000000000000e+00 -3.8133925447896344e+05 -1.1175186228649917e+08 0.0000000000000000e+00 0.0000000000000000e+00 0.0000000000000000e+00 0.0000000000000000e+00  2.8269793777107369e+07 4.1025308222526558e+07 0.0000000000000000e+00 4.1025308222526558e+07 5.4911449198629595e+07 0.0000000000000000e+00 0.0000000000000000e+00 0.0000000000000000e+00 0.0000000000000000e+00  6.8942377218792632e+07 6.5253613699761920e+07 0.0000000000000000e+00 6.5253613699761920e+07 1.9555163025348596e+07 0.0000000000000000e+00 0.0000000000000000e+00 0.0000000000000000e+00 0.0000000000000000e+00  7.3898850331973627e+07 -6.7094806089484587e+07 0.0000000000000000e+00 -6.7094806089484587e+07 1.8799544745385356e+07 0.0000000000000000e+00 0.0000000000000000e+00 0.0000000000000000e+00 0.0000000000000000e+00  2.1871695629521869e+07 -3.7264492392791733e+07 0.0000000000000000e+00 -3.7264492392791733e+07 5.1660917895776846e+07 0.0000000000000000e+00 0.0000000000000000e+00 0.0000000000000000e+00 0.0000000000000000e+00  4.4461529476957452e+06 -6.6568838946136355e+05 0.0000000000000000e+00 -6.6568838946136355e+05 -1.3902783283525082e+08 0.0000000000000000e+00 0.0000000000000000e+00 0.0000000000000000e+00 0.0000000000000000e+00  2.5110011856092229e+07 3.8677315907078743e+07 0.0000000000000000e+00 3.8677315907078743e+07 5.4231205289425179e+07 0.0000000000000000e+00 0.0000000000000000e+00 0.0000000000000000e+00 0.0000000000000000e+00  7.1482708979606718e+07 6.6187114331043437e+07 0.0000000000000000e+00 6.6187114331043437e+07 1.7211984214457922e+07 0.0000000000000000e+00 0.0000000000000000e+00 0.0000000000000000e+00 0.0000000000000000e+00  7.1130626164226189e+07 -6.6004210126535140e+07 0.0000000000000000e+00 -6.6004210126535140e+07 2.0773556215725504e+07 0.0000000000000000e+00 0.0000000000000000e+00 0.0000000000000000e+00 0.0000000000000000e+00  2.5443990005389668e+07 -3.9979092874342017e+07 0.0000000000000000e+00 -3.9979092874342017e+07 5.2961710376156814e+07 0.0000000000000000e+00 0.0000000000000000e+00 0.0000000000000000e+00 0.0000000000000000e+00  3.6330437855611485e+06 -5.2667552831716537e+04 0.0000000000000000e+00 -5.2667552831716537e+04 -1.1164501553916241e+08 0.0000000000000000e+00 0.0000000000000000e+00 0.0000000000000000e+00 0.0000000000000000e+00  3.9484648984700367e+07 6.1330378226786993e+07 0.0000000000000000e+00 6.1330378226786993e+07 8.0384385350521147e+07 0.0000000000000000e+00 0.0000000000000000e+00 0.0000000000000000e+00 0.0000000000000000e+00  1.0177235884061994e+08 9.3052437095394313e+07 0.0000000000000000e+00 9.3052437095394313e+07 5.8429507224398315e+07 0.0000000000000000e+00 0.0000000000000000e+00 0.0000000000000000e+00 0.0000000000000000e+00  -4.6524387031803597e+06 2.6698919828221025e+06 0.0000000000000000e+00 2.6698919828221025e+06 -1.4329967514381041e+06 0.0000000000000000e+00 0.0000000000000000e+00 0.0000000000000000e+00 0.0000000000000000e+00  2.8838689551818086e+05 8.8825398776138970e+05 0.0000000000000000e+00 8.8825398776138970e+05 -2.5590831015469246e+07 0.0000000000000000e+00 0.0000000000000000e+00 0.0000000000000000e+00 0.0000000000000000e+00  -4.8449124035890419e+06 -2.1820081220947127e+06 0.0000000000000000e+00 -2.1820081220947127e+06 -2.5777114188734852e+07 0.0000000000000000e+00 0.0000000000000000e+00 0.0000000000000000e+00 0.0000000000000000e+00  8.6366817899726272e+07 -1.6116856171447610e+07 0.0000000000000000e+00 -1.6116856171447610e+07 2.3238654647910756e+08 0.0000000000000000e+00 0.0000000000000000e+00 0.0000000000000000e+00 0.0000000000000000e+00  4.4665129647688776e+07 1.1549951170942381e+07 0.0000000000000000e+00 1.1549951170942381e+07 1.4827061065097690e+08 0.0000000000000000e+00 0.0000000000000000e+00 0.0000000000000000e+00 0.0000000000000000e+00  1.4810227355605855e+06 -5.5387221172919357e+06 0.0000000000000000e+00 -5.5387221172919357e+06 -4.4726357924905874e+07 0.0000000000000000e+00 0.0000000000000000e+00 0.0000000000000000e+00 0.0000000000000000e+00  6.7308848217218325e+07 -1.9816682185645796e+07 0.0000000000000000e+00 -1.9816682185645796e+07 1.1344433918767138e+08 0.0000000000000000e+00 0.0000000000000000e+00 0.0000000000000000e+00 0.0000000000000000e+00  1.6743753112968542e+07 2.1279331639939219e+07 0.0000000000000000e+00 2.1279331639939219e+07 1.3620756156919928e+07 0.0000000000000000e+00 0.0000000000000000e+00 0.0000000000000000e+00 0.0000000000000000e+00  -9.2089856708479255e+07 -7.3019042852719892e+06 0.0000000000000000e+00 -7.3019042852719892e+06 -1.5470742375999684e+07 0.0000000000000000e+00 0.0000000000000000e+00 0.0000000000000000e+00 0.0000000000000000e+00  1.2159879151464116e+07 -1.3926105850211337e+07 0.0000000000000000e+00 -1.3926105850211337e+07 2.8912097428836346e+08 0.0000000000000000e+00 0.0000000000000000e+00 0.0000000000000000e+00 0.0000000000000000e+00  -2.8638156666759785e+07 -2.3945194579786681e+07 0.0000000000000000e+00 -2.3945194579786681e+07 3.7175379049621336e+07 0.0000000000000000e+00 0.0000000000000000e+00 0.0000000000000000e+00 0.0000000000000000e+00  8.0044556533525654e+04 -7.9020321263371736e+07 0.0000000000000000e+00 -7.9020321263371736e+07 9.5791627432237491e+07 0.0000000000000000e+00 0.0000000000000000e+00 0.0000000000000000e+00 0.0000000000000000e+00  -6.0440750230993740e+07 6.3583594324303985e+07 0.0000000000000000e+00 6.3583594324303985e+07 4.2926380182666875e+07 0.0000000000000000e+00 0.0000000000000000e+00 0.0000000000000000e+00 0.0000000000000000e+00  -8.5274852670213684e+07 5.4089098944429897e+07 0.0000000000000000e+00 5.4089098944429897e+07 2.2653305005074762e+07 0.0000000000000000e+00 0.0000000000000000e+00 0.0000000000000000e+00 0.0000000000000000e+00  1.6347819627274498e+07 -7.2709646394651560e+06 0.0000000000000000e+00 -7.2709646394651560e+06 3.4223157723816830e+08 0.0000000000000000e+00 0.0000000000000000e+00 0.0000000000000000e+00 0.0000000000000000e+00  -5.1508194751957573e+07 -5.2398759076200470e+07 0.0000000000000000e+00 -5.2398759076200470e+07 6.6870954743558206e+07 0.0000000000000000e+00 0.0000000000000000e+00 0.0000000000000000e+00 0.0000000000000000e+00  -1.0102584411726546e+07 -7.9529905347431809e+07 0.0000000000000000e+00 -7.9529905347431809e+07 9.2863207795531332e+07 0.0000000000000000e+00 0.0000000000000000e+00 0.0000000000000000e+00 0.0000000000000000e+00  -7.1285878675522789e+07 7.3795971697308972e+07 0.0000000000000000e+00 7.3795971697308972e+07 6.4775088931605309e+07 0.0000000000000000e+00 0.0000000000000000e+00 0.0000000000000000e+00 0.0000000000000000e+00  7.8319511078858063e+07 -2.0060353676575229e+07 0.0000000000000000e+00 -2.0060353676575229e+07 1.2528864370511715e+08 0.0000000000000000e+00 0.0000000000000000e+00 0.0000000000000000e+00 0.0000000000000000e+00  3.0980863015984852e+07 9.2957111391441419e+05 0.0000000000000000e+00 9.2957111391441419e+05 7.7497785877822131e+07 0.0000000000000000e+00 0.0000000000000000e+00 0.0000000000000000e+00 0.0000000000000000e+00  1.0443856694260139e+06 -2.8810973802224747e+06 0.0000000000000000e+00 -2.8810973802224747e+06 -9.4754228259169459e+07 0.0000000000000000e+00 0.0000000000000000e+00 0.0000000000000000e+00 0.0000000000000000e+00  7.0490937766428977e+07 -2.6177867889334872e+07 0.0000000000000000e+00 -2.6177867889334872e+07 1.0734918287651698e+08 0.0000000000000000e+00 0.0000000000000000e+00 0.0000000000000000e+00 0.0000000000000000e+00  4.7943572829143010e+07 2.3696637792850088e+07 0.0000000000000000e+00 2.3696637792850088e+07 6.1211039072985485e+07 0.0000000000000000e+00 0.0000000000000000e+00 0.0000000000000000e+00 0.0000000000000000e+00  8.2642929389375508e+07 -7.9777315891713537e+06 0.0000000000000000e+00 -7.9777315891713537e+06 2.4723232601381370e+08 0.0000000000000000e+00 0.0000000000000000e+00 0.0000000000000000e+00 0.0000000000000000e+00  6.5364243228699602e+07 8.7022206552014649e+06 0.0000000000000000e+00 8.7022206552014649e+06 1.8946139280616698e+08 0.0000000000000000e+00 0.0000000000000000e+00 0.0000000000000000e+00 0.0000000000000000e+00  -4.6439228652104863e+05 -6.0903452910807598e+06 0.0000000000000000e+00 -6.0903452910807598e+06 -4.5375358672844850e+07 0.0000000000000000e+00 0.0000000000000000e+00 0.0000000000000000e+00 0.0000000000000000e+00  5.1342274477606781e+07 -1.7240151172956247e+07 0.0000000000000000e+00 -1.7240151172956247e+07 9.6250456505935594e+07 0.0000000000000000e+00 0.0000000000000000e+00 0.0000000000000000e+00 0.0000000000000000e+00  3.3795039119897075e+07 1.3356449262767211e+07 0.0000000000000000e+00 1.3356449262767211e+07 6.7554198636845410e+07 0.0000000000000000e+00 0.0000000000000000e+00 0.0000000000000000e+00 0.0000000000000000e+00  -7.9186440541934639e+07 5.8056303410387799e+07 0.0000000000000000e+00 5.8056303410387799e+07 3.4048318169615306e+07 0.0000000000000000e+00 0.0000000000000000e+00 0.0000000000000000e+00 0.0000000000000000e+00  1.6191858975857066e+07 -4.0101576856893525e+06 0.0000000000000000e+00 -4.0101576856893525e+06 3.4086583001844901e+08 0.0000000000000000e+00 0.0000000000000000e+00 0.0000000000000000e+00 0.0000000000000000e+00  -5.9582591564097695e+07 -6.2221730412433818e+07 0.0000000000000000e+00 -6.2221730412433818e+07 5.9501542838392988e+07 0.0000000000000000e+00 0.0000000000000000e+00 0.0000000000000000e+00 0.0000000000000000e+00  -3.3873884310299665e+07 -7.2807851903958336e+07 0.0000000000000000e+00 -7.2807851903958336e+07 7.4868630218575880e+07 0.0000000000000000e+00 0.0000000000000000e+00 0.0000000000000000e+00 0.0000000000000000e+00  -4.9421007862746313e+07 6.5530651900234930e+07 0.0000000000000000e+00 6.5530651900234930e+07 5.6665939313479736e+07 0.0000000000000000e+00 0.0000000000000000e+00 0.0000000000000000e+00 0.0000000000000000e+00  5.5452102928320400e+07 -8.2884837857645368e+06 0.0000000000000000e+00 -8.2884837857645368e+06 1.0683807235544889e+08 0.0000000000000000e+00 0.0000000000000000e+00 0.0000000000000000e+00 0.0000000000000000e+00  4.9553351317163520e+07 6.8108370556109743e+06 0.0000000000000000e+00 6.8108370556109743e+06 9.9557080780382499e+07 0.0000000000000000e+00 0.0000000000000000e+00 0.0000000000000000e+00 0.0000000000000000e+00  7.9359003798286442e+05 -1.4597781229935230e+06 0.0000000000000000e+00 -1.4597781229935230e+06 -8.8354887161040127e+07 0.0000000000000000e+00 0.0000000000000000e+00 0.0000000000000000e+00 0.0000000000000000e+00  5.5853044182124913e+07 -2.4358546015629720e+07 0.0000000000000000e+00 -2.4358546015629720e+07 8.6312033258049712e+07 0.0000000000000000e+00 0.0000000000000000e+00 0.0000000000000000e+00 0.0000000000000000e+00  5.9891773042909950e+07 2.2627879150140814e+07 0.0000000000000000e+00 2.2627879150140814e+07 8.6483019363709301e+07 0.0000000000000000e+00 0.0000000000000000e+00 0.0000000000000000e+00 0.0000000000000000e+00  9.3335511765268207e+07 -5.5871276138107568e+07 0.0000000000000000e+00 -5.5871276138107568e+07 9.6018031598546222e+07 0.0000000000000000e+00 0.0000000000000000e+00 0.0000000000000000e+00 0.0000000000000000e+00  4.7302761141990043e+07 1.6766018264400227e+07 0.0000000000000000e+00 1.6766018264400227e+07 7.1254285726548657e+07 0.0000000000000000e+00 0.0000000000000000e+00 0.0000000000000000e+00 0.0000000000000000e+00  5.4483784315925837e+06 -6.4761184442930100e+06 0.0000000000000000e+00 -6.4761184442930100e+06 -1.3876709035013214e+08 0.0000000000000000e+00 0.0000000000000000e+00 0.0000000000000000e+00 0.0000000000000000e+00  5.9080325907673188e+07 -2.4695571752339639e+07 0.0000000000000000e+00 -2.4695571752339639e+07 8.0807554174225166e+07 0.0000000000000000e+00 0.0000000000000000e+00 0.0000000000000000e+00 0.0000000000000000e+00  8.3363723190999895e+07 5.0640186293296821e+07 0.0000000000000000e+00 5.0640186293296821e+07 8.8107385612024635e+07 0.0000000000000000e+00 0.0000000000000000e+00 0.0000000000000000e+00 0.0000000000000000e+00  -5.4715776473617330e+07 6.7785072854296759e+07 0.0000000000000000e+00 6.7785072854296759e+07 4.8810065990826003e+07 0.0000000000000000e+00 0.0000000000000000e+00 0.0000000000000000e+00 0.0000000000000000e+00  1.7164335132805593e+07 -1.8773929872010171e+06 0.0000000000000000e+00 -1.8773929872010171e+06 3.5823939923871821e+08 0.0000000000000000e+00 0.0000000000000000e+00 0.0000000000000000e+00 0.0000000000000000e+00  -3.8879279662168078e+07 -6.4051045441170134e+07 0.0000000000000000e+00 -6.4051045441170134e+07 6.5982684121245600e+07 0.0000000000000000e+00 0.0000000000000000e+00 0.0000000000000000e+00 0.0000000000000000e+00  -3.5742577925654978e+07 -7.3138865852608502e+07 0.0000000000000000e+00 -7.3138865852608502e+07 7.5152921406286374e+07 0.0000000000000000e+00 0.0000000000000000e+00 0.0000000000000000e+00 0.0000000000000000e+00  -4.3513304995853499e+07 6.9132665845023692e+07 0.0000000000000000e+00 6.9132665845023692e+07 6.4263331762226343e+07 0.0000000000000000e+00 0.0000000000000000e+00 0.0000000000000000e+00 0.0000000000000000e+00  7.0107685461144120e+07 -2.4833305142509274e+07 0.0000000000000000e+00 -2.4833305142509274e+07 9.7577872768685490e+07 0.0000000000000000e+00 0.0000000000000000e+00 0.0000000000000000e+00 0.0000000000000000e+00  5.3036047041721262e+07 1.7911030678778779e+07 0.0000000000000000e+00 1.7911030678778779e+07 8.4245759626628026e+07 0.0000000000000000e+00 0.0000000000000000e+00 0.0000000000000000e+00 0.0000000000000000e+00  1.2920282676790012e+06 -5.1479087725593703e+05 0.0000000000000000e+00 -5.1479087725593703e+05 -1.0361920399924414e+08 0.0000000000000000e+00 0.0000000000000000e+00 0.0000000000000000e+00 0.0000000000000000e+00  6.3345025364099085e+07 -2.7254643873900998e+07 0.0000000000000000e+00 -2.7254643873900998e+07 9.0937892512462407e+07 0.0000000000000000e+00 0.0000000000000000e+00 0.0000000000000000e+00 0.0000000000000000e+00  6.4919394676429175e+07 2.6237595364634283e+07 0.0000000000000000e+00 2.6237595364634283e+07 8.4438777081746012e+07 0.0000000000000000e+00 0.0000000000000000e+00 0.0000000000000000e+00 0.0000000000000000e+00  -6.0991555254609399e+07 1.0074763726313332e+07 0.0000000000000000e+00 1.0074763726313332e+07 1.3351965796947213e+07 0.0000000000000000e+00 0.0000000000000000e+00 0.0000000000000000e+00 0.0000000000000000e+00  1.2265990149132447e+07 -7.6627419083993919e+06 0.0000000000000000e+00 -7.6627419083993919e+06 2.9212792481401557e+08 0.0000000000000000e+00 0.0000000000000000e+00 0.0000000000000000e+00 0.0000000000000000e+00  -6.0367044534884341e+07 -9.2229400653630383e+06 0.0000000000000000e+00 -9.2229400653630383e+06 1.0117976730845179e+07 0.0000000000000000e+00 0.0000000000000000e+00 0.0000000000000000e+00 0.0000000000000000e+00  -3.5078420541095957e+07 -7.1362623781910002e+07 0.0000000000000000e+00 -7.1362623781910002e+07 6.8316990243696883e+07 0.0000000000000000e+00 0.0000000000000000e+00 0.0000000000000000e+00 0.0000000000000000e+00  -3.1533459205090720e+07 7.0220865885303706e+07 0.0000000000000000e+00 7.0220865885303706e+07 6.7481871161891028e+07 0.0000000000000000e+00 0.0000000000000000e+00 0.0000000000000000e+00 0.0000000000000000e+00  6.9016495690349162e+07 -1.3181194851555450e+07 0.0000000000000000e+00 -1.3181194851555450e+07 1.9810930068837762e+08 0.0000000000000000e+00 0.0000000000000000e+00 0.00000000000000