<?xml version="1.0"?>
<VTKFile type="UnstructuredGrid"  version="0.1"  >
<UnstructuredGrid>
<Piece  NumberOfPoints="2376" NumberOfCells="4215">
<Points>
<DataArray  type="Float64"  NumberOfComponents="3"  format="ascii">-2.775557561562891e-17 0.15 0  -4.490280015736148e-15 0.35 0  7.235623452589982e-16 0.4 0  7.258508207494421e-16 0.6 0  0 0.65 0  -4.490280015736148e-15 0.85 0  0 1 0  1 1 0  1.000000000000003 0.85 0  1 0.6499999999999999 0  1.000000000000001 0.6 0  0.8999999999999999 0.5 0  1.000000000000001 0.4 0  1.000000000000003 0.35 0  1 0.1499999999999999 0  1 0 0  0 0 0  0.1499999999999999 0.25 0  0.25 0.4 0  0.3999999999999999 0.5 0  0.5 0.15 0  0.65 0.25 0  0.75 0.3999999999999999 0  0.15 0.75 0  0.5 0.65 0  0.6499999999999999 0.7500000000000001 0  0.01614766967798053 0.151312347459417 0  0.03746795402846682 0.1572845621219384 0  0.06115896189522833 0.1708824837352814 0  0.0804014003085078 0.1905389637793699 0  0.09356027767138139 0.214694555065061 0  0.09963992931277782 0.2415215280536738 0  0.09818033921576561 0.2689900234722656 0  0.08929194706708742 0.2950216413402317 0  0.07364729185324025 0.317646702821968 0  0.0524301242892712 0.3351532857088414 0  0.02724583848146227 0.3462167567809374 0  0 0.375 0  0.02817325568414293 0.4040507026385503 0  0.05406408174555968 0.4158746467168818 0  0.07557495743542579 0.4345139266054714 0  0.09096319953545182 0.4584584986998113 0  0.09898214418809326 0.4857685161726714 0  0.09898214418809331 0.5142314838273283 0  0.09096319953545197 0.5415415013001883 0  0.07557495743542611 0.5654860733945282 0  0.05406408174556005 0.5841253532831179 0  0.02817325568414315 0.5959492973614497 0  0 0.637293008756649 0  0 0.6209089657434206 0  0.01614766967798053 0.651312347459417 0  0.03746795402846682 0.6572845621219384 0  0.06115896189522833 0.6708824837352814 0  0.0804014003085078 0.69053896377937 0  0.09356027767138139 0.714694555065061 0  0.09963992931277782 0.7415215280536738 0  0.09818033921576561 0.7689900234722656 0  0.08929194706708742 0.7950216413402317 0  0.07364729185324025 0.8176467028219681 0  0.0524301242892712 0.8351532857088414 0  0.02724583848146227 0.8462167567809374 0  0 0.97 0  0 0.9399999999999999 0  0 0.9099999999999998 0  0 0.8799999999999998 0  0.9705882352941176 1 0  0.9411764705882353 1 0  0.9117647058823528 1 0  0.8823529411764705 1 0  0.8529411764705881 1 0  0.8235294117647057 1 0  0.7941176470588234 1 0  0.7647058823529409 1 0  0.7352941176470585 1 0  0.7058823529411761 1 0  0.6764705882352935 1 0  0.6470588235294111 1 0  0.6176470588235287 1 0  0.5882352941176462 1 0  0.5588235294117638 1 0  0.5294117647058814 1 0  0.4999999999999989 1 0  0.4705882352941168 1 0  0.4411764705882344 1 0  0.4117647058823521 1 0  0.3823529411764699 1 0  0.3529411764705876 1 0  0.3235294117647054 1 0  0.2941176470588232 1 0  0.2647058823529408 1 0  0.2352941176470587 1 0  0.2058823529411764 1 0  0.176470588235294 1 0  0.1470588235294118 1 0  0.1176470588235297 1 0  0.0882352941176473 1 0  0.05882352941176505 1 0  0.02941176470588269 1 0  1 0.88 0  1 0.91 0  1 0.9400000000000002 0  1 0.9700000000000002 0  0.9727541615185379 0.8462167567809376 0  0.947569875710729 0.8351532857088416 0  0.9263527081467601 0.8176467028219683 0  0.9107080529329127 0.795021641340232 0  0.9018196607842345 0.7689900234722659 0  0.9003600706872221 0.741521528053674 0  0.9064397223286186 0.7146945550650611 0  0.9195985996914922 0.6905389637793701 0  0.9388410381047716 0.6708824837352815 0  0.9625320459715332 0.6572845621219384 0  0.9838523303220196 0.651312347459417 0  1 0.6209089657434206 0  1 0.6372930087566488 0  0.9713975191974762 0.5958222212847378 0  0.945184935104962 0.5836379618388252 0  0.9235524552403318 0.5644652844577494 0  0.9083274403308347 0.5399517434375939 0  0.9014729797921768 0.5171004762789578 0  0.9014729797921768 0.4828995237210422 0  0.9083274403308347 0.4600482565624062 0  0.9235524552403317 0.4355347155422509 0  0.9451849351049617 0.4163620381611751 0  0.971397519197476 0.4041777787152623 0  1 0.375 0  0.9727541615185379 0.3462167567809375 0  0.947569875710729 0.3351532857088416 0  0.9263527081467601 0.3176467028219683 0  0.9107080529329127 0.295021641340232 0  0.9018196607842345 0.2689900234722659 0  0.9003600706872221 0.241521528053674 0  0.9064397223286186 0.214694555065061 0  0.9195985996914922 0.19053896377937 0  0.9388410381047716 0.1708824837352815 0  0.9625320459715332 0.1572845621219384 0  0.9838523303220196 0.151312347459417 0  1 0.02911605517766145 0  1 0.05379659001160829 0  1 0.07404872405822628 0  1 0.09066704226178196 0  1 0.1055052349476995 0  1 0.1203368232984663 0  1 0.1351684116492331 0  0.02941176470588239 0 0  0.05882352941176477 0 0  0.08823529411764718 0 0  0.1176470588235296 0 0  0.147058823529412 0 0  0.1764705882352943 0 0  0.2058823529411767 0 0  0.235294117647059 0 0  0.2647058823529415 0 0  0.2941176470588239 0 0  0.3235294117647065 0 0  0.3529411764705889 0 0  0.3823529411764713 0 0  0.4117647058823538 0 0  0.4411764705882362 0 0  0.4705882352941187 0 0  0.5000000000000011 0 0  0.5294117647058832 0 0  0.5588235294117656 0 0  0.5882352941176479 0 0  0.6176470588235301 0 0  0.6470588235294124 0 0  0.6764705882352946 0 0  0.7058823529411768 0 0  0.7352941176470592 0 0  0.7647058823529413 0 0  0.7941176470588236 0 0  0.823529411764706 0 0  0.8529411764705882 0 0  0.8823529411764703 0 0  0.9117647058823527 0 0  0.9411764705882349 0 0  0.9705882352941173 0 0  0 0.1351684116492332 0  0 0.1203368232984664 0  0 0.1055052349476997 0  0 0.09066704226178213 0  0 0.07404872405822638 0  0 0.05379659001160819 0  0 0.02911605517766136 0  0.1511169173774871 0.2350957733823826 0  0.1544427194213859 0.2205244825589096 0  0.159903113209758 0.2066116260882442 0  0.1673761225684004 0.1936679941936378 0  0.1766948128170172 0.1819827262229081 0  0.1876510198141265 0.1718168517531971 0  0.1999999999999998 0.1633974596215562 0  0.2134658975633603 0.1569126251355796 0  0.2277479066043684 0.1525072087818177 0  0.2425269906413574 0.150279620281882 0  0.2574730093586422 0.150279620281882 0  0.2722520933956313 0.1525072087818176 0  0.2865341024366393 0.1569126251355795 0  0.2999999999999998 0.1633974596215561 0  0.3123489801858732 0.1718168517531969 0  0.3233051871829825 0.181982726222908 0  0.3326238774315994 0.1936679941936377 0  0.3400968867902418 0.206611626088244 0  0.345557280578614 0.2205244825589093 0  0.3488830826225128 0.2350957733823822 0  0.35 0.2499999999999996 0  0.3488830826225129 0.264904226617617 0  0.3455572805786142 0.2794755174410899 0  0.3400968867902421 0.2933883739117554 0  0.3326238774315998 0.3063320058063617 0  0.323305187182983 0.3180172737770915 0  0.3123489801858738 0.3281831482468026 0  0.3000000000000005 0.3366025403784435 0  0.2865341024366401 0.3430873748644202 0  0.2722520933956322 0.3474927912181822 0  0.2574730093586432 0.349720379718118 0  0.2425269906413584 0.3497203797181181 0  0.2277479066043693 0.3474927912181826 0  0.2134658975633612 0.3430873748644207 0  0.2000000000000006 0.3366025403784442 0  0.187651019814127 0.3281831482468033 0  0.1766948128170177 0.3180172737770923 0  0.1673761225684007 0.3063320058063626 0  0.1599031132097581 0.2933883739117561 0  0.1544427194213859 0.2794755174410907 0  0.1511169173774871 0.2649042266176176 0  0.2649042266176174 0.4011169173774871 0  0.2794755174410904 0.4044427194213859 0  0.2933883739117558 0.409903113209758 0  0.3063320058063622 0.4173761225684005 0  0.3180172737770919 0.4266948128170173 0  0.3281831482468029 0.4376510198141266 0  0.3366025403784438 0.4499999999999999 0  0.3430873748644204 0.4634658975633604 0  0.3474927912181823 0.4777479066043684 0  0.349720379718118 0.4925269906413575 0  0.349720379718118 0.5074730093586424 0  0.3474927912181824 0.5222520933956314 0  0.3430873748644205 0.5365341024366395 0  0.3366025403784439 0.5499999999999999 0  0.3281831482468031 0.5623489801858733 0  0.318017273777092 0.5733051871829826 0  0.3063320058063623 0.5826238774315995 0  0.2933883739117559 0.5900968867902419 0  0.2794755174410906 0.595557280578614 0  0.2649042266176177 0.5988830826225129 0  0.2500000000000003 0.6 0  0.2350957733823829 0.5988830826225129 0  0.22052448255891 0.5955572805786142 0  0.2066116260882447 0.5900968867902422 0  0.1936679941936383 0.5826238774315998 0  0.1819827262229085 0.5733051871829831 0  0.1718168517531974 0.5623489801858739 0  0.1633974596215565 0.5500000000000006 0  0.1569126251355799 0.5365341024366401 0  0.1525072087818178 0.5222520933956323 0  0.150279620281882 0.5074730093586433 0  0.1502796202818819 0.4925269906413585 0  0.1525072087818174 0.4777479066043694 0  0.1569126251355793 0.4634658975633612 0  0.1633974596215558 0.4500000000000006 0  0.1718168517531967 0.4376510198141271 0  0.1819827262229077 0.4266948128170177 0  0.1936679941936375 0.4173761225684007 0  0.2066116260882439 0.4099031132097582 0  0.2205244825589093 0.404442719421386 0  0.2350957733823824 0.4011169173774872 0  0.401116917377487 0.4850957733823826 0  0.4044427194213858 0.4705244825589096 0  0.409903113209758 0.4566116260882442 0  0.4173761225684004 0.4436679941936378 0  0.4266948128170172 0.4319827262229081 0  0.4376510198141265 0.4218168517531971 0  0.4499999999999997 0.4133974596215562 0  0.4634658975633603 0.4069126251355796 0  0.4777479066043683 0.4025072087818177 0  0.4925269906413574 0.400279620281882 0  0.5074730093586421 0.400279620281882 0  0.5222520933956313 0.4025072087818176 0  0.5365341024366392 0.4069126251355795 0  0.5499999999999998 0.4133974596215561 0  0.5623489801858732 0.4218168517531969 0  0.5733051871829824 0.431982726222908 0  0.5826238774315993 0.4436679941936377 0  0.5900968867902417 0.456611626088244 0  0.5955572805786139 0.4705244825589093 0  0.5988830826225127 0.4850957733823822 0  0.5999999999999999 0.4999999999999996 0  0.5988830826225128 0.514904226617617 0  0.5955572805786141 0.5294755174410899 0  0.590096886790242 0.5433883739117554 0  0.5826238774315997 0.5563320058063618 0  0.573305187182983 0.5680172737770915 0  0.5623489801858736 0.578183148246
[...]
<PointData  Tensors="$\sigma$"> 
<DataArray  type="Float64"  Name="$\sigma$"  NumberOfComponents="9" format="ascii">-2.9264045102058644e+06 -2.0452819519718634e+06 0.0000000000000000e+00 -2.0452819519718622e+06 7.1990124082476157e+05 0.0000000000000000e+00 0.0000000000000000e+00 0.0000000000000000e+00 0.0000000000000000e+00  -3.1449587001811322e+06 4.0945464656405421e+06 0.0000000000000000e+00 4.0945464656405416e+06 -5.6366526676468011e+06 0.0000000000000000e+00 0.0000000000000000e+00 0.0000000000000000e+00 0.0000000000000000e+00  -4.3434238195514074e+06 -3.7293451360894083e+06 0.0000000000000000e+00 -3.7293451360894083e+06 -1.6056852664698765e+06 0.0000000000000000e+00 0.0000000000000000e+00 0.0000000000000000e+00 0.0000000000000000e+00  -4.9897692398575796e+06 3.8539293863068274e+06 0.0000000000000000e+00 3.8539293863068270e+06 -3.3367457733838039e+05 0.0000000000000000e+00 0.0000000000000000e+00 0.0000000000000000e+00 0.0000000000000000e+00  -1.9109845734403431e+06 -1.1827589416249311e+06 0.0000000000000000e+00 -1.1827589416249315e+06 -2.6392128518459415e+06 0.0000000000000000e+00 0.0000000000000000e+00 0.0000000000000000e+00 0.0000000000000000e+00  2.7536272731798515e+06 -5.3167802631964879e+06 0.0000000000000000e+00 -5.3167802631964879e+06 2.5241058819005014e+06 0.0000000000000000e+00 0.0000000000000000e+00 0.0000000000000000e+00 0.0000000000000000e+00  -3.5961012769156275e+05 9.1863223237059181e+04 0.0000000000000000e+00 9.1863223237059981e+04 5.8863162782444812e+07 0.0000000000000000e+00 0.0000000000000000e+00 0.0000000000000000e+00 0.0000000000000000e+00  -8.8731953473598941e+05 1.4494481304767699e+05 0.0000000000000000e+00 1.4494481304767699e+05 5.8140001424981229e+07 0.0000000000000000e+00 0.0000000000000000e+00 0.0000000000000000e+00 0.0000000000000000e+00  -2.1480997553765546e+06 -5.7699348949670680e+06 0.0000000000000000e+00 -5.7699348949670652e+06 -6.6356310505845947e+06 0.0000000000000000e+00 0.0000000000000000e+00 0.0000000000000000e+00 0.0000000000000000e+00  -1.0857992343915817e+06 1.2240754427042636e+06 0.0000000000000000e+00 1.2240754427042629e+06 -2.0961939178671446e+06 0.0000000000000000e+00 0.0000000000000000e+00 0.0000000000000000e+00 0.0000000000000000e+00  -5.2866613304498866e+06 -1.5077604213026369e+06 0.0000000000000000e+00 -1.5077604213026369e+06 7.9837542720263789e+05 0.0000000000000000e+00 0.0000000000000000e+00 0.0000000000000000e+00 0.0000000000000000e+00  2.0609970861625340e+07 5.3585674737328123e+06 0.0000000000000000e+00 5.3585674737328151e+06 4.3135746001411164e+08 0.0000000000000000e+00 0.0000000000000000e+00 0.0000000000000000e+00 0.0000000000000000e+00  -3.0294746252772287e+06 1.1034365558896712e+06 0.0000000000000000e+00 1.1034365558896712e+06 -1.8654419682525289e+06 0.0000000000000000e+00 0.0000000000000000e+00 0.0000000000000000e+00 0.0000000000000000e+00  -3.6022475946588092e+06 -4.5491155167187154e+06 0.0000000000000000e+00 -4.5491155167187154e+06 -4.6288620873846579e+06 0.0000000000000000e+00 0.0000000000000000e+00 0.0000000000000000e+00 0.0000000000000000e+00  -4.0053374776574341e+06 1.9677532608516298e+06 0.0000000000000000e+00 1.9677532608516277e+06 9.4935876370893256e+05 0.0000000000000000e+00 0.0000000000000000e+00 0.0000000000000000e+00 0.0000000000000000e+00  2.1578416734243862e+05 5.5092814577724239e+04 0.0000000000000000e+00 5.5092814577723868e+04 5.8676418380576320e+07 0.0000000000000000e+00 0.0000000000000000e+00 0.0000000000000000e+00 0.0000000000000000e+00  2.1859101924106240e+05 -5.7183291727369084e+04 0.0000000000000000e+00 -5.7183291727370466e+04 5.8569700211364537e+07 0.0000000000000000e+00 0.0000000000000000e+00 0.0000000000000000e+00 0.0000000000000000e+00  1.3538494798461203e+07 -6.5424946083109966e+05 0.0000000000000000e+00 -6.5424946083109966e+05 4.0789379208397448e+08 0.0000000000000000e+00 0.0000000000000000e+00 0.0000000000000000e+00 0.0000000000000000e+00  -2.6236132900257348e+06 5.5716971099469636e+05 0.0000000000000000e+00 5.5716971099469636e+05 -1.2773419947842597e+06 0.0000000000000000e+00 0.0000000000000000e+00 0.0000000000000000e+00 0.0000000000000000e+00  2.1924307991294861e+07 -1.1669879645001655e+06 0.0000000000000000e+00 -1.1669879645001655e+06 4.0115530314102584e+08 0.0000000000000000e+00 0.0000000000000000e+00 0.0000000000000000e+00 0.0000000000000000e+00  -5.0233551170077637e+07 -2.1601856005863310e+06 0.0000000000000000e+00 -2.1601856005863310e+06 -2.3901875487561477e+06 0.0000000000000000e+00 0.0000000000000000e+00 0.0000000000000000e+00 0.0000000000000000e+00  1.7609873274647292e+07 3.1186685569318803e+05 0.0000000000000000e+00 3.1186685569318803e+05 4.1611821201578248e+08 0.0000000000000000e+00 0.0000000000000000e+00 0.0000000000000000e+00 0.0000000000000000e+00  -2.0765421898278522e+06 -5.0845969633224292e+05 0.0000000000000000e+00 -5.0845969633224298e+05 -6.3102848436416371e+05 0.0000000000000000e+00 0.0000000000000000e+00 0.0000000000000000e+00 0.0000000000000000e+00  1.0780811367588211e+07 -3.3381598467559461e+06 0.0000000000000000e+00 -3.3381598467559461e+06 4.0381091148908371e+08 0.0000000000000000e+00 0.0000000000000000e+00 0.0000000000000000e+00 0.0000000000000000e+00  3.6947470923931350e+05 -5.3597753206066564e+03 0.0000000000000000e+00 -5.3597753206067127e+03 -1.0467728437323435e+06 0.0000000000000000e+00 0.0000000000000000e+00 0.0000000000000000e+00 0.0000000000000000e+00  1.6332498670529857e+07 -2.1755914837037730e+06 0.0000000000000000e+00 -2.1755914837037730e+06 4.1132813619286352e+08 0.0000000000000000e+00 0.0000000000000000e+00 0.0000000000000000e+00 0.0000000000000000e+00  -4.2288515668865405e+06 -1.3500663042896059e+06 0.0000000000000000e+00 -1.3500663042896087e+06 5.7284671844748678e+06 0.0000000000000000e+00 0.0000000000000000e+00 0.0000000000000000e+00 0.0000000000000000e+00  2.1706808441423666e+07 1.2912099752776142e+07 0.0000000000000000e+00 1.2912099752776148e+07 1.2550590021611182e+07 0.0000000000000000e+00 0.0000000000000000e+00 0.0000000000000000e+00 0.0000000000000000e+00  6.1276045037135281e+07 6.2916261306934938e+07 0.0000000000000000e+00 6.2916261306934938e+07 6.7571025132327929e+07 0.0000000000000000e+00 0.0000000000000000e+00 0.0000000000000000e+00 0.0000000000000000e+00  6.6072947115351789e+07 8.7803433846413568e+07 0.0000000000000000e+00 8.7803433846413568e+07 1.7578744064581740e+08 0.0000000000000000e+00 0.0000000000000000e+00 0.0000000000000000e+00 0.0000000000000000e+00  4.1361556039085239e+07 8.8721399950007245e+07 0.0000000000000000e+00 8.8721399950007245e+07 3.0700227859729612e+08 0.0000000000000000e+00 0.0000000000000000e+00 0.0000000000000000e+00 0.0000000000000000e+00  1.1595223496903777e+07 2.5919529259931937e+07 0.0000000000000000e+00 2.5919529259931929e+07 3.9506181506013066e+08 0.0000000000000000e+00 0.0000000000000000e+00 0.0000000000000000e+00 0.0000000000000000e+00  2.2725873567391139e+07 -4.2219267420433961e+07 0.0000000000000000e+00 -4.2219267420433939e+07 3.6814444511270756e+08 0.0000000000000000e+00 0.0000000000000000e+00 0.0000000000000000e+00 0.0000000000000000e+00  4.2918672231193051e+07 -8.4545463984612644e+07 0.0000000000000000e+00 -8.4545463984612718e+07 2.4816364233455837e+08 0.0000000000000000e+00 0.0000000000000000e+00 0.0000000000000000e+00 0.0000000000000000e+00  3.0891328230911389e+07 -5.6461531365118317e+07 0.0000000000000000e+00 -5.6461531365118288e+07 1.0322527250645101e+08 0.0000000000000000e+00 0.0000000000000000e+00 0.0000000000000000e+00 0.0000000000000000e+00  -8.2912185808260250e+05 -1.4315153690710163e+07 0.0000000000000000e+00 -1.4315153690710153e+07 2.3270721132518377e+07 0.0000000000000000e+00 0.0000000000000000e+00 0.0000000000000000e+00 0.0000000000000000e+00  -8.2141870477432329e+06 4.6777693658748874e+06 0.0000000000000000e+00 4.6777693658748874e+06 3.5969927377598069e+05 0.0000000000000000e+00 0.0000000000000000e+00 0.0000000000000000e+00 0.0000000000000000e+00  5.3346679582746583e+05 -5.5365780518638005e+05 0.0000000000000000e+00 -5.5365780518638005e+05 -4.2883848509185044e+06 0.0000000000000000e+00 0.0000000000000000e+00 0.0000000000000000e+00 0.0000000000000000e+00  -1.1093476396150071e+07 -4.0227659123402392e+06 0.0000000000000000e+00 -4.0227659123402401e+06 -1.8977108662600564e+06 0.0000000000000000e+00 0.0000000000000000e+00 0.0000000000000000e+00 0.0000000000000000e+00  3.2023195054230373e+06 1.5338573396990409e+07 0.0000000000000000e+00 1.5338573396990411e+07 3.1516273409251336e+07 0.0000000000000000e+00 0.0000000000000000e+00 0.0000000000000000e+00 0.0000000000000000e+00  2.6168683058419470e+07 5.7265307906963959e+07 0.0000000000000000e+00 5.7265307906963982e+07 1.3041961130558223e+08 0.0000000000000000e+00 0.0000000000000000e+00 0.0000000000000000e+00 0.0000000000000000e+00  3.5150095447782360e+07 1.0128632445889707e+08 0.0000000000000000e+00 1.0128632445889707e+08 2.6312368259188488e+08 0.0000000000000000e+00 0.0000000000000000e+00 0.0000000000000000e+00 0.0000000000000000e+00  2.4706570121504009e+07 4.2982304409510233e+07 0.0000000000000000e+00 4.2982304409510233e+07 3.7845491765704161e+08 0.0000000000000000e+00 0.0000000000000000e+00 0.0000000000000000e+00 0.0000000000000000e+00  2.7305668514270540e+07 -3.8193891794697620e+07 0.0000000000000000e+00 -3.8193891794697620e+07 3.8082293658736145e+08 0.0000000000000000e+00 0.0000000000000000e+00 0.0000000000000000e+00 0.0000000000000000e+00  3.8771444408671148e+07 -7.8124280655353054e+07 0.0000000000000000e+00 -7.8124280655353054e+07 2.5959551073916343e+08 0.0000000000000000e+00 0.0000000000000000e+00 0.0000000000000000e+00 0.0000000000000000e+00  1.8311127518151298e+07 -5.6116339016389355e+07 0.0000000000000000e+00 -5.6116339016389355e+07 1.3605035303200358e+08 0.0000000000000000e+00 0.0000000000000000e+00 0.0000000000000000e+00 0.0000000000000000e+00  4.9074268244903721e+06 -1.9450244075837072e+07 0.0000000000000000e+00 -1.9450244075837072e+07 3.5111470663362861e+07 0.0000000000000000e+00 0.0000000000000000e+00 0.0000000000000000e+00 0.0000000000000000e+00  -1.0597711408293335e+07 3.6928383106531175e+06 0.0000000000000000e+00 3.6928383106531170e+06 -9.0429956838579848e+05 0.0000000000000000e+00 0.0000000000000000e+00 0.0000000000000000e+00 0.0000000000000000e+00  -3.4925311113089301e+04 -1.1470589304871240e+06 0.0000000000000000e+00 -1.1470589304871236e+06 -3.1669466555132079e+06 0.0000000000000000e+00 0.0000000000000000e+00 0.0000000000000000e+00 0.0000000000000000e+00  3.6275419335194025e+05 5.7618633400100586e+05 0.0000000000000000e+00 5.7618633400100551e+05 -4.8449111562779238e+06 0.0000000000000000e+00 0.0000000000000000e+00 0.0000000000000000e+00 0.0000000000000000e+00  -9.9708717842405066e+06 -3.7430795421697842e+06 0.0000000000000000e+00 -3.7430795421697814e+06 3.9389584062205459e+05 0.0000000000000000e+00 0.0000000000000000e+00 0.0000000000000000e+00 0.0000000000000000e+00  -9.4024887615652792e+06 -5.1458384011534955e+06 0.0000000000000000e+00 -5.1458384011534955e+06 7.6072491212810576e+05 0.0000000000000000e+00 0.0000000000000000e+00 0.0000000000000000e+00 0.0000000000000000e+00  1.0114523330580115e+07 2.3561972879815653e+07 0.0000000000000000e+00 2.3561972879815653e+07 4.5823398883184768e+07 0.0000000000000000e+00 0.0000000000000000e+00 0.0000000000000000e+00 0.0000000000000000e+00  4.0259984407715291e+07 6.9420396763985172e+07 0.0000000000000000e+00 6.9420396763985172e+07 1.5748563248805842e+08 0.0000000000000000e+00 0.0000000000000000e+00 0.0000000000000000e+00 0.0000000000000000e+00  3.2763670054530442e+07 9.5207146261003718e+07 0.0000000000000000e+00 9.5207146261003718e+07 3.0505897644841427e+08 0.0000000000000000e+00 0.0000000000000000e+00 0.0000000000000000e+00 0.0000000000000000e+00  2.4185726635774937e+07 2.9391609466327522e+07 0.0000000000000000e+00 2.9391609466327522e+07 3.9260664137636667e+08 0.0000000000000000e+00 0.0000000000000000e+00 0.0000000000000000e+00 0.0000000000000000e+00  2.2515128049241029e+07 -4.3593382288764447e+07 0.0000000000000000e+00 -4.3593382288764447e+07 3.7495948267088282e+08 0.0000000000000000e+00 0.0000000000000000e+00 0.0000000000000000e+00 0.0000000000000000e+00  5.6069428080172352e+07 -9.3840200301352799e+07 0.0000000000000000e+00 -9.3840200301352799e+07 2.5735203313322604e+08 0.0000000000000000e+00 0.0000000000000000e+00 0.0000000000000000e+00 0.0000000000000000e+00  6.8266031955972612e+07 -8.2445239046240032e+07 0.0000000000000000e+00 -8.2445239046240032e+07 1.3541746224719799e+08 0.0000000000000000e+00 0.0000000000000000e+00 0.0000000000000000e+00 0.0000000000000000e+00  3.8671290240865432e+07 -4.3010346094430618e+07 0.0000000000000000e+00 -4.3010346094430618e+07 4.3449157372255638e+07 0.0000000000000000e+00 0.0000000000000000e+00 0.0000000000000000e+00 0.0000000000000000e+00  1.0906849275136963e+07 -9.9846304253815375e+06 0.0000000000000000e+00 -9.9846304253815375e+06 1.1000204114454063e+07 0.0000000000000000e+00 0.0000000000000000e+00 0.0000000000000000e+00 0.0000000000000000e+00  -3.3704532456459489e+05 -1.1281079132489369e+06 0.0000000000000000e+00 -1.1281079132489369e+06 5.5093698650621369e+07 0.0000000000000000e+00 0.0000000000000000e+00 0.0000000000000000e+00 0.0000000000000000e+00  1.6640149936946624e+05 -3.0475980896196351e+06 0.0000000000000000e+00 -3.0475980896196365e+06 4.4690457500455886e+07 0.0000000000000000e+00 0.0000000000000000e+00 0.0000000000000000e+00 0.0000000000000000e+00  -5.4213298431489151e+05 -4.5047750917981230e+06 0.0000000000000000e+00 -4.5047750917981230e+06 2.3169575307373337e+07 0.0000000000000000e+00 0.0000000000000000e+00 0.0000000000000000e+00 0.0000000000000000e+00  3.4570747411399093e+06 -5.1812507484689876e+06 0.0000000000000000e+00 -5.1812507484689876e+06 1.0154450166843418e+07 0.0000000000000000e+00 0.0000000000000000e+00 0.0000000000000000e+00 0.0000000000000000e+00  -1.9771008080231193e+06 4.0169247973356640e+05 0.0000000000000000e+00 4.0169247973356640e+05 6.2070673375772357e+07 0.0000000000000000e+00 0.0000000000000000e+00 0.0000000000000000e+00 0.0000000000000000e+00  -8.8166111158078797e+06 4.9144286730177031e+05 0.0000000000000000e+00 4.9144286730177031e+05 7.1409672959337726e+07 0.0000000000000000e+00 0.0000000000000000e+00 0.0000000000000000e+00 0.0000000000000000e+00  -1.4882470449349310e+07 4.9793400478321605e+05 0.0000000000000000e+00 4.9793400478321605e+05 8.1008930542378753e+07 0.0000000000000000e+00 0.0000000000000000e+00 0.0000000000000000e+00 0.0000000000000000e+00  -1.7377945041512478e+07 -6.4780813022620219e+04 0.0000000000000000e+00 -6.4780813022620147e+04 8.6022007032134727e+07 0.0000000000000000e+00 0.0000000000000000e+00 0.0000000000000000e+00 0.0000000000000000e+00  -1.5814489810588483e+07 -3.8428315073918283e+05 0.0000000000000000e+00 -3.8428315073918295e+05 8.3952978226955369e+07 0.0000000000000000e+00 0.0000000000000000e+00 0.0000000000000000e+00 0.0000000000000000e+00  -1.0487881986440850e+07 -6.0186442431438318e+05 0.0000000000000000e+00 -6.0186442431438318e+05 7.6830808666582495e+07 0.0000000000000000e+00 0.0000000000000000e+00 0.0000000000000000e+00 0.0000000000000000e+00  -4.3649172423564736e+06 -5.1259856927310652e+05 0.0000000000000000e+00 -5.1259856927310652e+05 6.6817331796265513e+07 0.0000000000000000e+00 0.0000000000000000e+00 0.0000000000000000e+00 0.0000000000000000e+00  -9.3811222690672366e+03 -6.4168256240844355e+04 0.0000000000000000e+00 -6.4168256240844355e+04 6.0276801591098174e+07 0.0000000000000000e+00 0.0000000000000000e+00 0.0000000000000000e+00 0.0000000000000000e+00  1.1654973854435381e+05 3.3413970674250457e+04 0.0000000000000000e+00 3.3413970674250457e+04 6.0789789618232369e+07 0.0000000000000000e+00 0.0000000000000000e+00 0.0000000000000000e+00 0.0000000000000000e+00  -3.4292216410427014e+06 5.5795050356218684e+05 0.0000000000000000e+00 5.5795050356218684e+05 6.6988937925924443e+07 0.0000000000000000e+00 0.0000000000000000e+00 0.0000000000000000e+00 0.0000000000000000e+00  -1.0308939047780799e+07 4.5141239603004075e+05 0.0000000000000000e+00 4.5141239603004075e+05 7.5092000127649516e+07 0.0000000000000000e+00 0.0000000000000000e+00 0.0000000000000000e+00 0.0000000000000000e+00  -1.4454658208795371e+07 1.8488796088032340e+05 0.0000000000000000e+00 1.8488796088032340e+05 8.3523206717274040e+07 0.0000000000000000e+00 0.0000000000000000e+00 0.0000000000000000e+00 0.0000000000000000e+00  -1.5239914285317795e+07 4.4048471781836459e+04 0.0000000000000000e+00 4.4048471781836459e+04 8.4494095617284089e+07 0.0000000000000000e+00 0.0000000000000000e+00 0.0000000000000000e+00 0.0000000000000000e+00  -1.2675086305760609e+07 -3.7161190726643283e+05 0.0000000000000000e+00 -3.7161190726643283e+05 7.8980216380713135e+07 0.0000000000000000e+00 0.0000000000000000e+00 0.0000000000000000e+00 0.0000000000000000e+00  -5.5019892765743714e+06 -5.1516426585933345e+05 0.0000000000000000e+00 -5.1516426585933345e+05 7.1674726082949936e+07 0.0000000000000000e+00 0.0000000000000000e+00 0.0000000000000000e+00 0.0000000000000000e+00  -1.7190897663315455e+06 -6.0706036811109679e+05 0.0000000000000000e+00 -6.0706036811109679e+05 6.1876908581074968e+07 0.0000000000000000e+00 0.0000000000000000e+00 0.0000000000000000e+00 0.0000000000000000e+00  6.9929915382310795e+05 -2.8221963120206248e+05 0.0000000000000000e+00 -2.8221963120206248e+05 5.8650415444900878e+07 0.0000000000000000e+00 0.0000000000000000e+00 0.0000000000000000e+00 0.0000000000000000e+00  -9.3506553995195287e+05 3.1087131827719230e+05 0.0000000000000000e+00 3.1087131827719230e+05 6.2602917918328144e+07 0.0000000000000000e+00 0.0000000000000000e+00 0.0000000000000000e+00 0.0000000000000000e+00  -6.9044519915369302e+06 6.4796799672355969e+05 0.0000000000000000e+00 6.4796799672355969e+05 7.0189987092323691e+07 0.0000000000000000e+00 0.0000000000000000e+00 0.0000000000000000e+00 0.0000000000000000e+00  -1.2308338422824306e+07 3.5903104582079116e+05 0.0000000000000000e+00 3.5903104582079116e+05 7.9484815450709015e+07 0.0000000000000000e+00 0.0000000000000000e+00 0.0000000000000000e+00 0.0000000000000000e+00  -1.5120805745495345e+07 2.4143331240587143e+05 0.0000000000000000e+00 2.4143331240587143e+05 8.4500728679202378e+07 0.0000000000000000e+00 0.0000000000000000e+00 0.0000000000000000e+00 0.0000000000000000e+00  -1.4786905172606476e+07 -3.3643045250797970e+05 0.0000000000000000e+00 -3.3643045250797970e+05 8.2756173092253089e+07 0.0000000000000000e+00 0.0000000000000000e+00 0.0000000000000000e+00 0.0000000000000000e+00  -9.2240472247646544e+06 -6.0823702270260442e+05 0.0000000000000000e+00 -6.0823702270260442e+05 7.6759911175048336e+07 0.0000000000000000e+00 0.0000000000000000e+00 0.0000000000000000e+00 0.0000000000000000e+00  -3.6923683115783646e+06 -2.4279880400144643e+05 0.0000000000000000e+00 -2.4279880400144643e+05 6.6992043400969006e+07 0.0000000000000000e+00 0.0000000000000000e+00 0.0000000000000000e+00 0.0000000000000000e+00  -2.9778080792698649e+04 -4.2571308586926811e+05 0.0000000000000000e+00 -4.2571308586926811e+05 6.0797989794479162e+07 0.0000000000000000e+00 0.0000000000000000e+00 0.0000000000000000e+00 0.0000000000000000e+00  -1.8328201746338535e+04 7.7749241161487356e+04 0.0000000000000000e+00 7.7749241161487356e+04 6.1004230132700242e+07 0.0000000000000000e+00 0.0000000000000000e+00 0.0000000000000000e+00 0.0000000000000000e+00  -4.4524603475586660e+06 5.1178471629311121e+05 0.0000000000000000e+00 5.1178471629311121e+05 6.7121982654224634e+07 0.0000000000000000e+00 0.0000000000000000e+00 0.0000000000000000e+00 0.0000000000000000e+00  -1.0195085744644420e+07 5.4159681811435160e+05 0.0000000000000000e+00 5.4159681811435160e+05 7.7285203735609055e+07 0.0000000000000000e+00 0.0000000000000000e+00 0.0000000000000000e+00 0.0000000000000000e+00  -1.5827126042520493e+07 3.1333850609569717e+05 0.0000000000000000e+00 3.1333850609569735e+05 8.3812888223760515e+07 0.0000000000000000e+00 0.0000000000000000e+00 0.0000000000000000e+00 0.0000000000000000e+00  -1.7330402972834233e+07 1.8803940704176712e+04 0.0000000000000000e+00 1.8803940704176250e+04 8.6286193641990945e+07 0.0000000000000000e+00 0.0000000000000000e+0