<?xml version="1.0"?>
<VTKFile type="UnstructuredGrid"  version="0.1"  >
<UnstructuredGrid>
<Piece  NumberOfPoints="1348" NumberOfCells="2160">
<Points>
<DataArray  type="Float64"  NumberOfComponents="3"  format="ascii">1 0.7811091677391417 0  0.9711026168748578 0.8389370003116963 0  0.9396512021921654 0.8684411845722625 0  0.9151605050022675 0.8667715470567836 0  0.9113198738603643 0.8386801261396357 0  0.9332602142123799 0.784005619352599 0  0.9278466522307919 0.7734440438393584 0  0.9127383939490237 0.763820880636204 0  0.9047205644964494 0.75 0  0.9127383939490238 0.736179119363796 0  0.9278466522307918 0.7265559561606416 0  0.9332602142123799 0.715994380647401 0  0.9113198738603643 0.6613198738603643 0  0.9151605050022675 0.6332284529432165 0  0.9396512021921654 0.6315588154277375 0  0.9711026168748578 0.6610629996883037 0  1 0.7188908322608583 0  -5.714661404381703e-18 0.2188908322608583 0  0.0288973831251423 0.1610629996883036 0  0.06034879780783453 0.1315588154277376 0  0.08483949499773247 0.1332284529432164 0  0.08868012613963573 0.1613198738603642 0  0.0667397857876201 0.215994380647401 0  0.07215334776920816 0.2265559561606416 0  0.0872616060509762 0.2361791193637959 0  0.09527943550355054 0.25 0  0.08726160605097626 0.263820880636204 0  0.07215334776920819 0.2734440438393583 0  0.06673978578762009 0.284005619352599 0  0.08868012613963572 0.3386801261396357 0  0.08483949499773254 0.3667715470567836 0  0.0603487978078347 0.3684411845722625 0  0.02889738312514226 0.3389370003116962 0  0.007809508068444862 0.2993072933960106 0  1.904887134793901e-18 0.2811091677391417 0  -1.750254835709847e-17 0.4047205644964494 0  0.01382088063620403 0.4127383939490237 0  0.02344404383935835 0.4278466522307918 0  0.03400561935259901 0.4332602142123799 0  0.08868012613963569 0.4113198738603643 0  0.1167715470567835 0.4151605050022675 0  0.1184411845722625 0.4396512021921653 0  0.08893700031169623 0.4711026168748578 0  0.04930729339601062 0.4921904919315551 0  0.03110916773914173 0.5 0  0.08893700031169625 0.5288973831251422 0  0.1184411845722625 0.5603487978078346 0  0.1167715470567836 0.5848394949977325 0  0.0886801261396357 0.5886801261396357 0  0.03400561935259902 0.5667397857876201 0  0.02344404383935837 0.5721533477692081 0  0.01382088063620405 0.5872616060509763 0  5.834182785699493e-18 0.5952794355035506 0  -5.714661404381703e-18 0.7188908322608583 0  0.0288973831251423 0.6610629996883036 0  0.06034879780783453 0.6315588154277376 0  0.08483949499773247 0.6332284529432164 0  0.08868012613963573 0.6613198738603643 0  0.0667397857876201 0.715994380647401 0  0.07215334776920816 0.7265559561606416 0  0.0872616060509762 0.736179119363796 0  0.09527943550355054 0.75 0  0.08726160605097626 0.763820880636204 0  0.07215334776920819 0.7734440438393584 0  0.06673978578762009 0.784005619352599 0  0.08868012613963572 0.8386801261396357 0  0.08483949499773254 0.8667715470567835 0  0.0603487978078347 0.8684411845722625 0  0.02889738312514226 0.8389370003116963 0  0.007809508068444862 0.7993072933960106 0  1.904887134793901e-18 0.7811091677391417 0  0 1 0  1 1 0  1 0.5952794355035506 0  0.986179119363796 0.5872616060509762 0  0.9765559561606416 0.5721533477692082 0  0.965994380647401 0.5667397857876201 0  0.9113198738603643 0.5886801261396357 0  0.8832284529432165 0.5848394949977325 0  0.8815588154277375 0.5603487978078346 0  0.9110629996883037 0.5288973831251422 0  0.9688908322608583 0.5 0  0.9110629996883036 0.4711026168748577 0  0.8815588154277376 0.4396512021921655 0  0.8832284529432164 0.4151605050022675 0  0.9113198738603643 0.4113198738603643 0  0.965994380647401 0.4332602142123799 0  0.9765559561606416 0.4278466522307918 0  0.986179119363796 0.4127383939490238 0  1 0.4047205644964494 0  1 0.2811091677391417 0  0.9711026168748578 0.3389370003116963 0  0.9396512021921654 0.3684411845722624 0  0.9151605050022675 0.3667715470567836 0  0.9113198738603643 0.3386801261396357 0  0.9332602142123799 0.284005619352599 0  0.9278466522307919 0.2734440438393584 0  0.9127383939490237 0.2638208806362041 0  0.9047205644964494 0.25 0  0.9127383939490238 0.236179119363796 0  0.9278466522307918 0.2265559561606416 0  0.9332602142123799 0.215994380647401 0  0.9113198738603643 0.1613198738603643 0  0.9151605050022675 0.1332284529432164 0  0.9396512021921654 0.1315588154277375 0  0.9711026168748578 0.1610629996883037 0  1 0.2188908322608583 0  1 0 0  0 0 0  0.2811091677391417 0.25 0  0.3389370003116963 0.2788973831251422 0  0.2993072933960106 0.2421904919315551 0  0.3684411845722624 0.3103487978078346 0  0.3389370003116962 0.2211026168748577 0  0.3667715470567836 0.3348394949977325 0  0.3684411845722625 0.1896512021921653 0  0.3386801261396357 0.3386801261396357 0  0.3667715470567836 0.1651605050022675 0  0.284005619352599 0.3167397857876201 0  0.3386801261396357 0.1613198738603643 0  0.2734440438393584 0.3221533477692082 0  0.284005619352599 0.1832602142123799 0  0.2638208806362041 0.3372616060509763 0  0.2734440438393583 0.1778466522307918 0  0.25 0.3452794355035506 0  0.263820880636204 0.1627383939490237 0  0.2361791193637959 0.3372616060509762 0  0.25 0.1547205644964494 0  0.2265559561606416 0.3221533477692082 0  0.236179119363796 0.1627383939490238 0  0.215994380647401 0.3167397857876201 0  0.2265559561606416 0.1778466522307918 0  0.1613198738603643 0.3386801261396357 0  0.215994380647401 0.1832602142123799 0  0.1332284529432164 0.3348394949977325 0  0.1613198738603642 0.1613198738603643 0  0.1315588154277375 0.3103487978078346 0  0.1332284529432164 0.1651605050022675 0  0.1610629996883037 0.2788973831251422 0  0.1315588154277376 0.1896512021921655 0  0.2188908322608583 0.25 0  0.1610629996883036 0.2211026168748577 0  0.5 0.2811091677391417 0  0.4711026168748578 0.3389370003116963 0  0.5078095080684448 0.2993072933960106 0  0.4396512021921654 0.3684411845722624 0  0.5288973831251422 0.3389370003116962 0  0.4151605050022675 0.3667715470567836 0  0.5603487978078348 0.3684411845722625 0  0.4113198738603643 0.3386801261396357 0  0.5848394949977326 0.3667715470567836 0  0.4332602142123799 0.284005619352599 0  0.5886801261396357 0.3386801261396357 0  0.4278466522307918 0.2734440438393584 0  0.5667397857876201 0.284005619352599 0  0.4127383939490237 0.2638208806362041 0  0.5721533477692082 0.2734440438393583 0  0.4047205644964494 0.25 0  0.5872616060509762 0.263820880636204 0  0.4127383939490238 0.236179119363796 0  0.5952794355035506 0.25 0  0.4278466522307918 0.2265559561606416 0  0.5872616060509762 0.2361791193637959 0  0.4332602142123799 0.215994380647401 0  0.5721533477692081 0.2265559561606416 0  0.4113198738603643 0.1613198738603643 0  0.5667397857876201 0.215994380647401 0  0.4151605050022675 0.1332284529432164 0  0.5886801261396357 0.1613198738603642 0  0.4396512021921653 0.1315588154277375 0  0.5848394949977325 0.1332284529432164 0  0.4711026168748577 0.1610629996883037 0  0.5603487978078345 0.1315588154277376 0  0.5 0.2188908322608583 0  0.5288973831251423 0.1610629996883036 0  0.7811091677391417 0.25 0  0.8389370003116963 0.2788973831251422 0  0.7993072933960106 0.2421904919315551 0  0.8684411845722625 0.3103487978078346 0  0.8389370003116963 0.2211026168748577 0  0.8667715470567836 0.3348394949977325 0  0.8684411845722625 0.1896512021921653 0  0.8386801261396357 0.3386801261396357 0  0.8667715470567835 0.1651605050022675 0  0.784005619352599 0.3167397857876201 0  0.8386801261396357 0.1613198738603643 0  0.7734440438393584 0.3221533477692082 0  0.784005619352599 0.1832602142123799 0  0.763820880636204 0.3372616060509763 0  0.7734440438393584 0.1778466522307918 0  0.75 0.3452794355035506 0  0.763820880636204 0.1627383939490237 0  0.736179119363796 0.3372616060509762 0  0.75 0.1547205644964494 0  0.7265559561606416 0.3221533477692082 0  0.736179119363796 0.1627383939490238 0  0.715994380647401 0.3167397857876201 0  0.7265559561606416 0.1778466522307918 0  0.6613198738603643 0.3386801261396357 0  0.715994380647401 0.1832602142123799 0  0.6332284529432165 0.3348394949977325 0  0.6613198738603643 0.1613198738603643 0  0.6315588154277375 0.3103487978078346 0  0.6332284529432164 0.1651605050022675 0  0.6610629996883037 0.2788973831251422 0  0.6315588154277376 0.1896512021921655 0  0.7188908322608583 0.25 0  0.6610629996883036 0.2211026168748577 0  0.25 0.5311091677391417 0  0.2211026168748578 0.5889370003116963 0  0.2578095080684449 0.5493072933960106 0  0.1896512021921654 0.6184411845722625 0  0.2788973831251422 0.5889370003116963 0  0.1651605050022675 0.6167715470567836 0  0.3103487978078347 0.6184411845722625 0  0.1613198738603643 0.5886801261396357 0  0.3348394949977325 0.6167715470567835 0  0.1832602142123799 0.534005619352599 0  0.3386801261396357 0.5886801261396357 0  0.1778466522307918 0.5234440438393584 0  0.3167397857876201 0.534005619352599 0  0.1627383939490237 0.513820880636204 0  0.3221533477692082 0.5234440438393584 0  0.1547205644964494 0.5 0  0.3372616060509763 0.513820880636204 0  0.1627383939490238 0.4861791193637959 0  0.3452794355035506 0.5 0  0.1778466522307918 0.4765559561606416 0  0.3372616060509762 0.4861791193637959 0  0.1832602142123799 0.465994380647401 0  0.3221533477692082 0.4765559561606416 0  0.1613198738603643 0.4113198738603643 0  0.3167397857876201 0.465994380647401 0  0.1651605050022675 0.3832284529432164 0  0.3386801261396357 0.4113198738603642 0  0.1896512021921653 0.3815588154277375 0  0.3348394949977325 0.3832284529432164 0  0.2211026168748577 0.4110629996883037 0  0.3103487978078345 0.3815588154277376 0  0.25 0.4688908322608583 0  0.2788973831251423 0.4110629996883036 0  0.2811091677391417 0.75 0  0.3389370003116963 0.7788973831251422 0  0.2993072933960106 0.7421904919315552 0  0.3684411845722624 0.8103487978078346 0  0.3389370003116962 0.7211026168748578 0  0.3667715470567836 0.8348394949977325 0  0.3684411845722625 0.6896512021921652 0  0.3386801261396357 0.8386801261396357 0  0.3667715470567836 0.6651605050022675 0  0.284005619352599 0.8167397857876201 0  0.3386801261396357 0.6613198738603643 0  0
[...]
<PointData  Tensors="$\sigma$"> 
<DataArray  type="Float64"  Name="$\sigma$"  NumberOfComponents="9" format="ascii">-8.7763167778833339e+05 1.9141368291405198e+05 0.0000000000000000e+00 1.9141368291405198e+05 8.7925103887595795e+05 0.0000000000000000e+00 0.0000000000000000e+00 0.0000000000000000e+00 0.0000000000000000e+00  -5.9426759980866686e+06 -2.1889304529521642e+06 0.0000000000000000e+00 -2.1889304529521642e+06 1.5052915626007286e+06 0.0000000000000000e+00 0.0000000000000000e+00 0.0000000000000000e+00 0.0000000000000000e+00  2.1606814728814390e+07 2.2824017657484628e+07 0.0000000000000000e+00 2.2824017657484628e+07 -1.0664927169010056e+07 0.0000000000000000e+00 0.0000000000000000e+00 0.0000000000000000e+00 0.0000000000000000e+00  6.9119812944647849e+07 6.6994288130875215e+07 0.0000000000000000e+00 6.6994288130875215e+07 2.3112041617993733e+08 0.0000000000000000e+00 0.0000000000000000e+00 0.0000000000000000e+00 0.0000000000000000e+00  2.2650716472939111e+07 3.3650711039274089e+07 0.0000000000000000e+00 3.3650711039274089e+07 2.4372152004761028e+08 0.0000000000000000e+00 0.0000000000000000e+00 0.0000000000000000e+00 0.0000000000000000e+00  1.5640322524593225e+07 1.4305005393904097e+07 0.0000000000000000e+00 1.4305005393904092e+07 -8.2690036747625396e+06 0.0000000000000000e+00 0.0000000000000000e+00 0.0000000000000000e+00 0.0000000000000000e+00  1.3938783857229556e+05 -2.6698512755241435e+07 0.0000000000000000e+00 -2.6698512755241435e+07 -1.9669709743469995e+07 0.0000000000000000e+00 0.0000000000000000e+00 0.0000000000000000e+00 0.0000000000000000e+00  8.6206754139538091e+06 7.6035233333153889e+07 0.0000000000000000e+00 7.6035233333153889e+07 1.7486599145445594e+08 0.0000000000000000e+00 0.0000000000000000e+00 0.0000000000000000e+00 0.0000000000000000e+00  7.1465585608535141e+07 8.7067657281819172e+06 0.0000000000000000e+00 8.7067657281819172e+06 3.1577868466476494e+08 0.0000000000000000e+00 0.0000000000000000e+00 0.0000000000000000e+00 0.0000000000000000e+00  -1.3259082136999015e+07 -5.3787834168335207e+07 0.0000000000000000e+00 -5.3787834168335199e+07 1.4314439728495428e+08 0.0000000000000000e+00 0.0000000000000000e+00 0.0000000000000000e+00 0.0000000000000000e+00  -7.4286288479056396e+06 4.4303610906787321e+07 0.0000000000000000e+00 4.4303610906787328e+07 -2.3805718215172905e+07 0.0000000000000000e+00 0.0000000000000000e+00 0.0000000000000000e+00 0.0000000000000000e+00  1.5102262500389934e+07 -2.3675846575835557e+06 0.0000000000000000e+00 -2.3675846575835613e+06 -4.5932216192674883e+07 0.0000000000000000e+00 0.0000000000000000e+00 0.0000000000000000e+00 0.0000000000000000e+00  1.1707993480178811e+07 -1.1551394477520796e+07 0.0000000000000000e+00 -1.1551394477520788e+07 2.5279426712304950e+07 0.0000000000000000e+00 0.0000000000000000e+00 0.0000000000000000e+00 0.0000000000000000e+00  -1.8187604735547073e+07 -3.2757467330752099e+06 0.0000000000000000e+00 -3.2757467330752108e+06 2.5332064605116658e+07 0.0000000000000000e+00 0.0000000000000000e+00 0.0000000000000000e+00 0.0000000000000000e+00  -4.9885304748448133e+06 4.2304477988596139e+06 0.0000000000000000e+00 4.2304477988596158e+06 -3.1103971649067174e+06 0.0000000000000000e+00 0.0000000000000000e+00 0.0000000000000000e+00 0.0000000000000000e+00  -3.8925732668865973e+05 -9.6288943601468054e+05 0.0000000000000000e+00 -9.6288943601468066e+05 3.6243293744819396e+05 0.0000000000000000e+00 0.0000000000000000e+00 0.0000000000000000e+00 0.0000000000000000e+00  -2.0700217779107232e+05 -1.7169035634447623e+05 0.0000000000000000e+00 -1.7169035634447625e+05 2.1546525257182322e+04 0.0000000000000000e+00 0.0000000000000000e+00 0.0000000000000000e+00 0.0000000000000000e+00  -8.7761303334114247e+05 1.9064148213512826e+05 0.0000000000000000e+00 1.9064148213512826e+05 8.7819249641019548e+05 0.0000000000000000e+00 0.0000000000000000e+00 0.0000000000000000e+00 0.0000000000000000e+00  -5.9408544333413951e+06 -2.1921677584609552e+06 0.0000000000000000e+00 -2.1921677584609552e+06 1.5030475657657611e+06 0.0000000000000000e+00 0.0000000000000000e+00 0.0000000000000000e+00 0.0000000000000000e+00  2.1611877663827769e+07 2.2857880718220707e+07 0.0000000000000000e+00 2.2857880718220707e+07 -1.0649910105845977e+07 0.0000000000000000e+00 0.0000000000000000e+00 0.0000000000000000e+00 0.0000000000000000e+00  6.9062491477064833e+07 6.6905703678960986e+07 0.0000000000000000e+00 6.6905703678960986e+07 2.3114881456178594e+08 0.0000000000000000e+00 0.0000000000000000e+00 0.0000000000000000e+00 0.0000000000000000e+00  2.2848455959154148e+07 3.3741129317046478e+07 0.0000000000000000e+00 3.3741129317046478e+07 2.4460664473055694e+08 0.0000000000000000e+00 0.0000000000000000e+00 0.0000000000000000e+00 0.0000000000000000e+00  1.5904019199260483e+07 1.4009485202292344e+07 0.0000000000000000e+00 1.4009485202292344e+07 -8.5592365441432074e+06 0.0000000000000000e+00 0.0000000000000000e+00 0.0000000000000000e+00 0.0000000000000000e+00  1.1615572550947361e+06 -2.7070188424142260e+07 0.0000000000000000e+00 -2.7070188424142260e+07 -1.8426805267051719e+07 0.0000000000000000e+00 0.0000000000000000e+00 0.0000000000000000e+00 0.0000000000000000e+00  7.6942916486564735e+06 7.6225839833211839e+07 0.0000000000000000e+00 7.6225839833211839e+07 1.7486518600461259e+08 0.0000000000000000e+00 0.0000000000000000e+00 0.0000000000000000e+00 0.0000000000000000e+00  6.3765263133232415e+07 1.5086816229184048e+07 0.0000000000000000e+00 1.5086816229184048e+07 3.2073701128735280e+08 0.0000000000000000e+00 0.0000000000000000e+00 0.0000000000000000e+00 0.0000000000000000e+00  -1.5702008586051736e+07 -5.2280140502969548e+07 0.0000000000000000e+00 -5.2280140502969548e+07 1.4089553750985432e+08 0.0000000000000000e+00 0.0000000000000000e+00 0.0000000000000000e+00 0.0000000000000000e+00  -5.4288113340169992e+06 3.9786855459366217e+07 0.0000000000000000e+00 3.9786855459366217e+07 -2.2623261012208242e+07 0.0000000000000000e+00 0.0000000000000000e+00 0.0000000000000000e+00 0.0000000000000000e+00  1.5735931350262607e+07 -8.1628798440457312e+06 0.0000000000000000e+00 -8.1628798440457312e+06 -4.1247628074485660e+07 0.0000000000000000e+00 0.0000000000000000e+00 0.0000000000000000e+00 0.0000000000000000e+00  5.5108867332791081e+06 -1.3705057156127559e+07 0.0000000000000000e+00 -1.3705057156127559e+07 4.1489780231881507e+07 0.0000000000000000e+00 0.0000000000000000e+00 0.0000000000000000e+00 0.0000000000000000e+00  -7.3374468254327076e+06 1.1127966623280281e+06 0.0000000000000000e+00 1.1127966623280281e+06 3.8991638560637809e+07 0.0000000000000000e+00 0.0000000000000000e+00 0.0000000000000000e+00 0.0000000000000000e+00  -3.9186077818136611e+06 3.4418085968372324e+06 0.0000000000000000e+00 3.4418085968372319e+06 -7.5890914912714129e+06 0.0000000000000000e+00 0.0000000000000000e+00 0.0000000000000000e+00 0.0000000000000000e+00  1.1236060947090540e+05 -9.8003718341297924e+05 0.0000000000000000e+00 -9.8003718341297947e+05 1.4427826421015039e+06 0.0000000000000000e+00 0.0000000000000000e+00 0.0000000000000000e+00 0.0000000000000000e+00  -2.1543973856673919e+05 4.5601233628658112e+05 0.0000000000000000e+00 4.5601233628658124e+05 -5.6387009911598370e+05 0.0000000000000000e+00 0.0000000000000000e+00 0.0000000000000000e+00 0.0000000000000000e+00  3.3763798923384174e+03 -1.9254145657910075e+05 0.0000000000000000e+00 -1.9254145657910075e+05 2.3702490940578643e+05 0.0000000000000000e+00 0.0000000000000000e+00 0.0000000000000000e+00 0.0000000000000000e+00  7.8448808762496663e+05 9.0037093154993534e+04 0.0000000000000000e+00 9.0037093154993694e+04 4.4668171691142325e+05 0.0000000000000000e+00 0.0000000000000000e+00 0.0000000000000000e+00 0.0000000000000000e+00  -1.1630038211476812e+06 -1.6495903858530314e+06 0.0000000000000000e+00 -1.6495903858530317e+06 -1.1290004416041613e+04 0.0000000000000000e+00 0.0000000000000000e+00 0.0000000000000000e+00 0.0000000000000000e+00  -2.3440199307186729e+06 -1.6155907526697672e+06 0.0000000000000000e+00 -1.6155907526697682e+06 2.3443265479912637e+06 0.0000000000000000e+00 0.0000000000000000e+00 0.0000000000000000e+00 0.0000000000000000e+00  3.0581485234769126e+06 4.0328969210271491e+06 0.0000000000000000e+00 4.0328969210271500e+06 -2.0691950823639892e+06 0.0000000000000000e+00 0.0000000000000000e+00 0.0000000000000000e+00 0.0000000000000000e+00  7.2885989375941874e+06 1.3637603311785847e+07 0.0000000000000000e+00 1.3637603311785841e+07 -3.8259424551976413e+07 0.0000000000000000e+00 0.0000000000000000e+00 0.0000000000000000e+00 0.0000000000000000e+00  6.1697158793286875e+07 8.8848880199217334e+07 0.0000000000000000e+00 8.8848880199217334e+07 3.9137656043416733e+08 0.0000000000000000e+00 0.0000000000000000e+00 0.0000000000000000e+00 0.0000000000000000e+00  6.4458698499986470e+07 -2.6286083878543355e+07 0.0000000000000000e+00 -2.6286083878543351e+07 4.0253822344217718e+08 0.0000000000000000e+00 0.0000000000000000e+00 0.0000000000000000e+00 0.0000000000000000e+00  -3.3056591278372249e+06 -3.1696949131903280e+07 0.0000000000000000e+00 -3.1696949131903283e+07 9.3238026871748433e+07 0.0000000000000000e+00 0.0000000000000000e+00 0.0000000000000000e+00 0.0000000000000000e+00  3.0621260058146995e+06 1.5035116565473558e+07 0.0000000000000000e+00 1.5035116565473562e+07 -3.3622577862236062e+06 0.0000000000000000e+00 0.0000000000000000e+00 0.0000000000000000e+00 0.0000000000000000e+00  3.9150800304198698e+06 7.4935989403464925e+06 0.0000000000000000e+00 7.4935989403464887e+06 -8.5805060024721865e+06 0.0000000000000000e+00 0.0000000000000000e+00 0.0000000000000000e+00 0.0000000000000000e+00  5.7068995692181028e+06 3.8990556642891653e+07 0.0000000000000000e+00 3.8990556642891645e+07 7.0581403162680045e+07 0.0000000000000000e+00 0.0000000000000000e+00 0.0000000000000000e+00 0.0000000000000000e+00  6.5244255709553264e+07 2.8085051271988511e+07 0.0000000000000000e+00 2.8085051271988519e+07 3.8946008734817535e+08 0.0000000000000000e+00 0.0000000000000000e+00 0.0000000000000000e+00 0.0000000000000000e+00  6.3882628323266789e+07 -9.7136481788637683e+07 0.0000000000000000e+00 -9.7136481788637713e+07 3.6174601094929248e+08 0.0000000000000000e+00 0.0000000000000000e+00 0.0000000000000000e+00 0.0000000000000000e+00  1.9774793020757232e+07 -2.4364269445635885e+07 0.0000000000000000e+00 -2.4364269445635885e+07 -3.2765717538810778e+07 0.0000000000000000e+00 0.0000000000000000e+00 0.0000000000000000e+00 0.0000000000000000e+00  2.7607091557689812e+06 -3.6980840226217732e+06 0.0000000000000000e+00 -3.6980840226217732e+06 -5.3851186548390761e+06 0.0000000000000000e+00 0.0000000000000000e+00 0.0000000000000000e+00 0.0000000000000000e+00  -2.7238812918472188e+06 2.9693458390715951e+06 0.0000000000000000e+00 2.9693458390715951e+06 3.1355928239354389e+06 0.0000000000000000e+00 0.0000000000000000e+00 0.0000000000000000e+00 0.0000000000000000e+00  -5.7811080942599720e+05 1.6019564313157313e+06 0.0000000000000000e+00 1.6019564313157313e+06 5.4951067048094817e+05 0.0000000000000000e+00 0.0000000000000000e+00 0.0000000000000000e+00 0.0000000000000000e+00  1.1270536542634682e+06 1.3214965367223212e+05 0.0000000000000000e+00 1.3214965367223212e+05 7.7550055841026374e+05 0.0000000000000000e+00 0.0000000000000000e+00 0.0000000000000000e+00 0.0000000000000000e+00  -9.2603544627464275e+04 1.1750845938785635e+05 0.0000000000000000e+00 1.1750845938785635e+05 3.9614218919331476e+05 0.0000000000000000e+00 0.0000000000000000e+00 0.0000000000000000e+00 0.0000000000000000e+00  8.4914618310625447e+04 8.0224118876908196e+05 0.0000000000000000e+00 8.0224118876908196e+05 1.1930643580548407e+06 0.0000000000000000e+00 0.0000000000000000e+00 0.0000000000000000e+00 0.0000000000000000e+00  -5.1841740535448799e+06 -3.1774806559451548e+06 0.0000000000000000e+00 -3.1774806559451548e+06 -6.9163145168121159e+06 0.0000000000000000e+00 0.0000000000000000e+00 0.0000000000000000e+00 0.0000000000000000e+00  -5.8397218562525241e+06 -2.3384627779581090e+06 0.0000000000000000e+00 -2.3384627779581090e+06 5.3665773566333964e+07 0.0000000000000000e+00 0.0000000000000000e+00 0.0000000000000000e+00 0.0000000000000000e+00  9.7321792155338638e+06 1.4528133285072954e+07 0.0000000000000000e+00 1.4528133285072954e+07 3.9471944408912368e+07 0.0000000000000000e+00 0.0000000000000000e+00 0.0000000000000000e+00 0.0000000000000000e+00  1.6167626316407591e+07 8.1051723701809542e+06 0.0000000000000000e+00 8.1051723701809542e+06 -4.1234876832385190e+07 0.0000000000000000e+00 0.0000000000000000e+00 0.0000000000000000e+00 0.0000000000000000e+00  -5.4778121064313035e+06 -3.9753332725928783e+07 0.0000000000000000e+00 -3.9753332725928783e+07 -2.2619206111615237e+07 0.0000000000000000e+00 0.0000000000000000e+00 0.0000000000000000e+00 0.0000000000000000e+00  -1.5628310205384349e+07 5.2277808048593670e+07 0.0000000000000000e+00 5.2277808048593670e+07 1.4089867673856983e+08 0.0000000000000000e+00 0.0000000000000000e+00 0.0000000000000000e+00 0.0000000000000000e+00  6.3793296407198235e+07 -1.5104760423173720e+07 0.0000000000000000e+00 -1.5104760423173720e+07 3.2074094062687320e+08 0.0000000000000000e+00 0.0000000000000000e+00 0.0000000000000000e+00 0.0000000000000000e+00  7.7025032931323275e+06 -7.6221805419673532e+07 0.0000000000000000e+00 -7.6221805419673532e+07 1.7485728137033355e+08 0.0000000000000000e+00 0.0000000000000000e+00 0.0000000000000000e+00 0.0000000000000000e+00  1.1644053625232575e+06 2.7077773119893506e+07 0.0000000000000000e+00 2.7077773119893506e+07 -1.8471077286290985e+07 0.0000000000000000e+00 0.0000000000000000e+00 0.0000000000000000e+00 0.0000000000000000e+00  1.5908291866916245e+07 -1.4004318922928454e+07 0.0000000000000000e+00 -1.4004318922928454e+07 -8.5632437274528239e+06 0.0000000000000000e+00 0.0000000000000000e+00 0.0000000000000000e+00 0.0000000000000000e+00  2.2868420933620669e+07 -3.3800220101594262e+07 0.0000000000000000e+00 -3.3800220101594262e+07 2.4470747040911096e+08 0.0000000000000000e+00 0.0000000000000000e+00 0.0000000000000000e+00 0.0000000000000000e+00  6.8855944177382424e+07 -6.6793205608730577e+07 0.0000000000000000e+00 -6.6793205608730577e+07 2.3084805787769738e+08 0.0000000000000000e+00 0.0000000000000000e+00 0.0000000000000000e+00 0.0000000000000000e+00  2.2269055418607146e+07 -2.3951603863021031e+07 0.0000000000000000e+00 -2.3951603863021031e+07 -9.8150180702822413e+06 0.0000000000000000e+00 0.0000000000000000e+00 0.0000000000000000e+00 0.0000000000000000e+00  -5.4962707850771956e+06 2.1376057453868156e+06 0.0000000000000000e+00 2.1376057453868166e+06 1.5644067322677146e+06 0.0000000000000000e+00 0.0000000000000000e+00 0.0000000000000000e+00 0.0000000000000000e+00  3.6087101182904434e+06 -2.0533415311066301e+06 0.0000000000000000e+00 -2.0533415311066301e+06 -9.5302246232522361e+05 0.0000000000000000e+00 0.0000000000000000e+00 0.0000000000000000e+00 0.0000000000000000e+00  -2.0404082799215708e+06 7.3463467974062089e+05 0.0000000000000000e+00 7.3463467974062089e+05 6.1179648692051589e+05 0.0000000000000000e+00 0.0000000000000000e+00 0.0000000000000000e+00 0.0000000000000000e+00  -1.4889669987415003e+06 -3.0848622194984503e+05 0.0000000000000000e+00 -3.0848622194984520e+05 1.6886605143272258e+07 0.0000000000000000e+00 0.0000000000000000e+00 0.0000000000000000e+00 0.0000000000000000e+00  -1.7127459029690856e+06 -2.3406946249386069e+05 0.0000000000000000e+00 -2.3406946249386040e+05 1.7101404078871287e+07 0.0000000000000000e+00 0.0000000000000000e+00 0.0000000000000000e+00 0.0000000000000000e+00  1.1124378078371540e+06 -2.2821841643713600e+04 0.0000000000000000e+00 -2.2821841643713567e+04 6.4714678179860406e+05 0.0000000000000000e+00 0.0000000000000000e+00 0.0000000000000000e+00 0.0000000000000000e+00  2.6589117207987356e+05 -1.7441284887981729e+06 0.0000000000000000e+00 -1.7441284887981729e+06 1.4208447963560553e+05 0.0000000000000000e+00 0.0000000000000000e+00 0.0000000000000000e+00 0.0000000000000000e+00  -8.4508308086868492e+05 -2.8224490628941488e+06 0.0000000000000000e+00 -2.8224490628941497e+06 2.7715069383311183e+06 0.0000000000000000e+00 0.0000000000000000e+00 0.0000000000000000e+00 0.0000000000000000e+00  1.2932417205853730e+06 4.3806752389362846e+06 0.0000000000000000e+00 4.3806752389362864e+06 -3.3540090232196152e+06 0.0000000000000000e+00 0.0000000000000000e+00 0.0000000000000000e+00 0.0000000000000000e+00  1.4024929422832051e+07 2.4862250023801196e+07 0.0000000000000000e+00 2.4862250023801219e+07 -3.3994546196046852e+07 0.0000000000000000e+00 0.0000000000000000e+00 0.0000000000000000e+00 0.0000000000000000e+00  5.6386958380574152e+07 8.6080367923638627e+07 0.0000000000000000e+00 8.6080367923638627e+07 3.7248973797804451e+08 0.0000000000000000e+00 0.0000000000000000e+00 0.0000000000000000e+00 0.0000000000000000e+00  6.3724437323284902e+07 -2.7085765367973730e+07 0.0000000000000000e+00 -2.7085765367973726e+07 3.9553450876112342e+08 0.0000000000000000e+00 0.0000000000000000e+00 0.0000000000000000e+00 0.0000000000000000e+00  -1.0906240326118835e+06 -4.1158729889631771e+07 0.0000000000000000e+00 -4.1158729889631771e+07 4.7220973338328548e+07 0.0000000000000000e+00 0.0000000000000000e+00 0.0000000000000000e+00 0.0000000000000000e+00  -4.3868368913301071e+06 -3.7703556921594153e+05 0.0000000000000000e+00 -3.7703556921594153e+05 -5.4450990660157790e+06 0.0000000000000000e+00 0.0000000000000000e+00 0.0000000000000000e+00 0.0000000000000000e+00  -2.2798608033655840e+06 4.0758165192217335e+07 0.0000000000000000e+00 4.0758165192217335e+07 4.8259559198134586e+07 0.0000000000000000e+00 0.0000000000000000e+00 0.0000000000000000e+00 0.0000000000000000e+00  6.6183962157977708e+07 2.5288795248391923e+07 0.0000000000000000e+00 2.5288795248391923e+07 3.8968330756694597e+08 0.0000000000000000e+00 0.0000000000000000e+00 0.0000000000000000e+00 0.0000000000000000e+00  6.6052576852755986e+07 -9.1393728919238076e+07 0.0000000000000000e+00 -9.1393728919238076e+07 4.1145864659490836e+08 0.0000000000000000e+00 0.0000000000000000e+00 0.0000000000000000e+00 0.0000000000000000e+00  8.1150903725211918e+06 -1.1540203423349170e+07 0.0000000000000000e+00 -1.1540203423349170e+07 -5.1332035385598071e+07 0.0000000000000000e+00 0.0000000000000000e+00 0.0000000000000000e+00 0.0000000000000000e+00  2.1623226802394325e+06 -4.0984414831962725e+06 0.0000000000000000e+00 -4.0984414831962744e+06 -4.1498330407512775e+06 0.0000000000000000e+00 0.0000000000000000e+00 0.0000000000000000e+00 0.0000000000000000e+00  -1.7227380819701375e+06 2.7223408209095225e+06 0.0000000000000000e+00 2.7223408209095229e+06 3.0644587634116458e+06 0.0000000000000000e+00 0.0000000000000000e+00 0.0000000000000000e+00 0.0000000000000000e+00  -4.9717825560710560e+04 1.9020289987643240e+06 0.0000000000000000e+00 1.9020289987643240e+06 3.6960760345512454e+05 0.0000000000000000e+00 0.0000000000000000e+00 0.0000000000000000e+00 0.0000000000000000e+00  1.3530579457724676e+06 2.3206676134982912e+05 0.0000000000000000e+00 2.3206676134982923e+05 7.7191825095291296e+05 0.0000000000000000e+00 0.0000000000000000e+00 0.0000000000000000e+00 0.0000000000000000e+00  -1.7989975757269151e+05 1.8505793345933437e+05 0.0000000000000000e+00 1.8505793345933445e+05 1.4875211321418968e+05 0.0000000000000000e+00 0.0000000000000000e+00 0.0000000000000000e+00 0.0000000000000000e+00  -1.8558145914713229e+05 1.0552161664153575e+06 0.0000000000000000e+00 1.0552161664153575e+06 7.4791339324922138e+05 0.0000000000000000e+00 0.0000000000000000e+00 0.0000000000000000e+00 0.0000000000000000e+00  -6.5539696136859916e+06 -4.5476480203827964e+06 0.0000000000000000e+00 -4.5476480203827964e+06 -5.2061607688873876e+06 0.0000000000000000e+00 0.0000000000000000e+00 0.0000000000000000e+00 0.0000000000000000e+00  -1.6237894009739283e+07 2.8013815426780619e+06 0.0000000000000000e+00 2.8013815426780633e+06 2.8959514271293808e+07 0.0000000000000000e+00 0.0000000000000000e+00 0.0000000000000000e+00 0.0000000000000000e+00  7.4240113852737453e+06 1.2406957857262664e+07 0.0000000000000000e+00 1.2406957857262667e+07 3.9560621992089443e+07 0.0000000000000000e+00 0.0000000000000000e+00 0.000000000