<?xml version="1.0"?>
<VTKFile type="UnstructuredGrid"  version="0.1"  >
<UnstructuredGrid>
<Piece  NumberOfPoints="1377" NumberOfCells="2555">
<Points>
<DataArray  type="Float64"  NumberOfComponents="3"  format="ascii">0.5833333333333333 0.5 0  0 0 0  1 0 0  0 1 0  1 1 0  0.5825430430870073 0.5198625417429286 0  0.5801771688174167 0.5395995061018037 0  0.5762506683434359 0.5590861096332261 0  0.5707883662652791 0.5781991517555567 0  0.563824797015385 0.5968177936626602 0  0.5554039865206163 0.6148243223057444 0  0.5455791738561744 0.6321048946131548 0  0.5344124746510246 0.6485502572429276 0  0.521974488372891 0.6640564373175939 0  0.5083438519756898 0.6785253997741874 0  0.4936067427313884 0.6918656671734769 0  0.4778563333895455 0.7039928980497902 0  0.461192203109189 0.7148304201449152 0  0.4437197078873114 0.724309715154803 0  0.4255493144643354 0.7323708519243467 0  0.4067959019178137 0.7389628653514402 0  0.387578035359913 0.7440440786047626 0  0.3680172163306005 0.7475823666181254 0  0.3482371146257884 0.7495553591954832 0  0.3283627864170659 0.7499505824425163 0  0.308519883606318 0.7487655376306068 0  0.2888338594139459 0.7460077169946052 0  0.2694291752232147 0.7416945563645093 0  0.2504285136953165 0.7358533249305337 0  0.231952003130085 0.7285209528385087 0  0.2141164579762069 0.7197437977056085 0  0.1970346402926665 0.7095773515325692 0  0.1808145468307023 0.6980858898653937 0  0.1655587262435743 0.6853420654246547 0  0.1513636307409599 0.6714264487716035 0  0.1383190062870304 0.6564270189151401 0  0.1265073251975691 0.6404386070801928 0  0.1160032647234378 0.623562297154181 0  0.1068732349169526 0.6059047866021323 0  0.09917495876615143 0.5875777118909563 0  0.09295710725147827 0.5686969426877566 0  0.08825899163217435 0.5493818492944886 0  0.08511031490783999 0.5297545479504765 0  0.08353098402650785 0.5099391287742318 0  0.08353098402650783 0.490060871225769 0  0.08511031490783991 0.4702454520495242 0  0.08825899163217418 0.4506181507055124 0  0.09295710725147807 0.4313030573122441 0  0.09917495876615112 0.4124222881090445 0  0.1068732349169523 0.3940952133978683 0  0.1160032647234374 0.3764377028458198 0  0.1265073251975686 0.3595613929198078 0  0.1383190062870298 0.3435729810848606 0  0.1513636307409593 0.3285735512283973 0  0.1655587262435736 0.3146579345753459 0  0.1808145468307016 0.3019141101346069 0  0.1970346402926658 0.2904226484674313 0  0.214116457976206 0.280256202294392 0  0.2319520031300841 0.2714790471614917 0  0.2504285136953154 0.2641466750694667 0  0.2694291752232135 0.258305443635491 0  0.2888338594139447 0.253992283005395 0  0.3085198836063167 0.2512344623693933 0  0.3283627864170644 0.2500494175574837 0  0.3482371146257867 0.2504446408045167 0  0.3680172163305989 0.2524176333818743 0  0.3875780353599114 0.255955921395237 0  0.406795901917812 0.2610371346485594 0  0.4255493144643336 0.2676291480756526 0  0.4437197078873098 0.2756902848451962 0  0.4611922031091875 0.285169579855084 0  0.4778563333895444 0.296007101950209 0  0.4936067427313874 0.3081343328265223 0  0.5083438519756889 0.3214746002258118 0  0.5219744883728901 0.3359435626824053 0  0.534412474651024 0.3514497427570717 0  0.5455791738561739 0.3678951053868445 0  0.555403986520616 0.3851756776942549 0  0.5638247970153847 0.4031822063373391 0  0.5707883662652788 0.4218008482444427 0  0.5762506683434357 0.4409138903667735 0  0.5801771688174167 0.460400493898196 0  0.5825430430870073 0.4801374582570713 0  0.03333333333333333 0 0  0.06666666666666667 0 0  0.1 0 0  0.1333333333333333 0 0  0.1666666666666667 0 0  0.2 0 0  0.2333333333333333 0 0  0.2666666666666667 0 0  0.3 0 0  0.3333333333333333 0 0  0.3666666666666666 0 0  0.4 0 0  0.4333333333333333 0 0  0.4666666666666667 0 0  0.5 0 0  0.5333333333333333 0 0  0.5666666666666667 0 0  0.6 0 0  0.6333333333333333 0 0  0.6666666666666666 0 0  0.7 0 0  0.7333333333333333 0 0  0.7666666666666667 0 0  0.8 0 0  0.8333333333333334 0 0  0.8666666666666667 0 0  0.9 0 0  0.9333333333333333 0 0  0.9666666666666667 0 0  0 0.9666666666666667 0  0 0.9333333333333333 0  0 0.9 0  0 0.8666666666666667 0  0 0.8333333333333334 0  0 0.8 0  0 0.7666666666666666 0  0 0.7333333333333334 0  0 0.7 0  0 0.6666666666666667 0  0 0.6333333333333333 0  0 0.6 0  0 0.5666666666666667 0  0 0.5333333333333333 0  0 0.5 0  0 0.4666666666666667 0  0 0.4333333333333333 0  0 0.4 0  0 0.3666666666666667 0  0 0.3333333333333334 0  0 0.3 0  0 0.2666666666666667 0  0 0.2333333333333333 0  0 0.2 0  0 0.1666666666666666 0  0 0.1333333333333333 0  0 0.09999999999999998 0  0 0.06666666666666665 0  0 0.03333333333333333 0  1 0.03333333333333333 0  1 0.06666666666666667 0  1 0.1 0  1 0.1333333333333333 0  1 0.1666666666666667 0  1 0.2 0  1 0.2333333333333333 0  1 0.2666666666666667 0  1 0.3 0  1 0.3333333333333333 0  1 0.3666666666666666 0  1 0.4 0  1 0.4333333333333333 0  1 0.4666666666666667 0  1 0.5 0  1 0.5333333333333333 0  1 0.5666666666666667 0  1 0.6 0  1 0.6333333333333333 0  1 0.6666666666666666 0  1 0.7 0  1 0.7333333333333333 0  1 0.7666666666666667 0  1 0.8 0  1 0.8333333333333334 0  1 0.8666666666666667 0  1 0.9 0  1 0.9333333333333333 0  1 0.9666666666666667 0  0.9666666666666667 1 0  0.9333333333333333 1 0  0.9 1 0  0.8666666666666667 1 0  0.8333333333333334 1 0  0.8 1 0  0.7666666666666666 1 0  0.7333333333333334 1 0  0.7 1 0  0.6666666666666667 1 0  0.6333333333333333 1 0  0.6 1 0  0.5666666666666667 1 0  0.5333333333333333 1 0  0.5 1 0  0.4666666666666667 1 0  0.4333333333333333 1 0  0.4 1 0  0.3666666666666667 1 0  0.3333333333333334 1 0  0.3 1 0  0.2666666666666667 1 0  0.2333333333333333 1 0  0.2 1 0  0.1666666666666666 1 0  0.1333333333333333 1 0  0.09999999999999998 1 0  0.06666666666666665 1 0  0.03333333333333333 1 0  0.5653378779104344 0.3677227310174183 0  0.5895300715533245 0.4259841724774882 0  0.600609088097365 0.488566421473062 0  0.5943497086963287 0.5504901665800807 0  0.5753171641061698 0.6131797719694998 0  0.5417187179123343 0.6688295275827174 0  0.970364751442516 0.7487469477592736 0  0.9715958179767185 0.2510699681656525 0  0.5277255018085195 0.317393083266942 0  0.7201443897904324 0.02667288739543289 0  0.7167577750444047 0.972974452885408 0  0.9710051130542832 0.617488407756291 0  0.9749106885750831 0.3827458334315161 0  0.4958162406509659 0.7107252873828213 0  0.4776690801125222 0.2774518630641962 0  0.2139166479786467 0.2604610416251199 0  0.2121274226483225 0.7423712910049488 0  0.6172109977593431 0.02348342042863399 0  0.4411986647659791 0.742655192921312 0  0.6191648532398051 0.9724122080356951 0  0.4218814592810237 0.2480922096891685 0  0.9732697330304692 0.5167688388879252 0  0.2762724061481774 0.2395171539866489 0  0.2756610278073505 0.7595681694975553 0  0.3808630272413479 0.7650644126808982 0  0.8166666666666667 0.9711324865405186 0  0.8166690275287531 0.02558093239735904 0  0.360012382933884 0.2336829334420747 0  0.5135811927635008 0.03076434133344152 0  0.5171276635507557 0.9710266000269996 0  0.1494799116013782 0.02623921840497617 0  0.1520362413623806 0.9712609318296657 0  0.1632587294089552 0.7035745239559141 0  0.1629602002369356 0.296015378836949 0  0.4160834820588597 0.02857182483830839 0  0.3197861805289995 0.971785923352479 0  0.4164161967486624 0.9721849917746459 0  0.3169036920396033 0.03348771729576844 0  0.02703398047490879 0.1836614549381382 0  0.0281903435981028 0.81726159773926 0  0.9679851098893919 0.8479444746680195 0  0.9703011273859853 0.1520098685631579 0  0.3414276634228461 0.7683111977496644 0  0.3162045243197855 0.2343583319677648 0  0.1296657013686432 0.6733292310695844 0  0.1295600460203984 0.3239161212725422 0  0.03111493383383102 0.7496685719509358 0  0.02720480338177411 0.2499755786258898 0  0.1072286472555487 0.6400128621624686 0  0.1043328974354436 0.3593994925015268 0  0.02851126302899493 0.8827015843854573 0  0.0288675134594813 0.1166666666666666 0  0.2510304064782843 0.02596221467116322 0  0.2497899246751966 0.9721046213751088 0  0.9713084490290133 0.6830056715615285 0  0.9711324865405186 0.45 0  0.9713075970843867 0.3169906812149532 0  0.8833333333333333 0.9711324865405186 0  0.8865558435476331 0.03019195953289899 0  0.08782422046594507 0.3972318724364493 0  0.08804372769977653 0.6030672275263091 0  0.08369461706573356 0.02856702459838012 0  0.08516107516340254 0.9696753590079276 0  0.9711324865405186 0.9166666666666666 0  0.9722515470747057 0.08002878281817727 0  0.02938495592979662 0.6812070205178518 0  0.02852114526294414 0.3086001376892206 0  0.07195370081135954 0.5619745129700832 0  0.07190214608523016 0.4382202676194531 0  0.06678601524658656 0.4789646738064353 0  0.066943861090208 0.521209315501113 0  0.02845489587136968 0.3857539250716158 0  0.02845489587136968 0.6142460749283843 0  0.03266503083798511 0.9494515174812923 0  0.03047618585537498 0.05291299461020249 0  0.9499513033999822 0.969749962406965 0  0.9465962014895595 0.02796832877335326 0  0.02961779070035242 0.5512710067032205 0  0.02944427602563532 0.4490928844031458 0  0.02722343605833299 0.4159710603701147 0  0.05129026142334142 0.3972902133758697 0  0.05556985155011229 0.3728164780844272 0  0.03063511309698475 0.3563973371647876 0  0.06074686883702674 0.3425366583672472 0  0.02725235517078589 0.5840895881476131 0  0.05151865948913359 0.603016889723694 0  0.05173472941662921 0.6262610230033966 0  0.03266794851087262 0.6479299456796983 0  0.05678728628930257 0.6685914197942997 0  0.05540681229330824 0.6965344013835111 0  0.07948941180382152 0.6833024352822037 0  0.07900010774934607 0.7098450783889307 0  0.101055873114749 0.6981976470281912 0  0.1015275358393981 0.7233727651769885 0  0.0788770857321977 0.7357418077443713 0  0.1018666765594439 0.7493866176846483 0  0.07852345996852644 0.7625192298608033 0  0.1018963723867397 0.775700762088232 0  0.124861376965808 0.7625468643193938 0  0.1251319553361797 0.7885550549252489 0  0.1473557772825643 0.7751464847701786 0  0.1478762344076034 0.8011740609578075 0  0.1260731742196206 0.8148581343019616 0  0.1488221870844629
[...]
<PointData  Tensors="$\sigma$"> 
<DataArray  type="Float64"  Name="$\sigma$"  NumberOfComponents="9" format="ascii">1.5332176958977304e+07 7.6457170726185711e+05 0.0000000000000000e+00 7.6457170726185711e+05 4.3521599486359388e+08 0.0000000000000000e+00 0.0000000000000000e+00 0.0000000000000000e+00 0.0000000000000000e+00  8.2144662007034430e+05 5.6804134864399931e+05 0.0000000000000000e+00 5.6804134864399931e+05 1.7589388764402249e+08 0.0000000000000000e+00 0.0000000000000000e+00 0.0000000000000000e+00 0.0000000000000000e+00  -1.5098707561505748e+03 -5.7919799543910124e+05 0.0000000000000000e+00 -5.7919799543910124e+05 2.3687958836944729e+08 0.0000000000000000e+00 0.0000000000000000e+00 0.0000000000000000e+00 0.0000000000000000e+00  1.0688014441111134e+06 -3.3123063663475326e+05 0.0000000000000000e+00 -3.3123063663475326e+05 1.7600036044033828e+08 0.0000000000000000e+00 0.0000000000000000e+00 0.0000000000000000e+00 0.0000000000000000e+00  7.8386859745332302e+04 6.2249200455718581e+05 0.0000000000000000e+00 6.2249200455718581e+05 2.3642386988568166e+08 0.0000000000000000e+00 0.0000000000000000e+00 0.0000000000000000e+00 0.0000000000000000e+00  1.5097096354960533e+07 -3.1917013012509227e+07 0.0000000000000000e+00 -3.1917013012509227e+07 4.2867170545121825e+08 0.0000000000000000e+00 0.0000000000000000e+00 0.0000000000000000e+00 0.0000000000000000e+00  1.9159496520773645e+07 -6.2662455213331401e+07 0.0000000000000000e+00 -6.2662455213331401e+07 4.1514840607920295e+08 0.0000000000000000e+00 0.0000000000000000e+00 0.0000000000000000e+00 0.0000000000000000e+00  2.3271852920244053e+07 -8.5272614257526115e+07 0.0000000000000000e+00 -8.5272614257526115e+07 3.8186932929461706e+08 0.0000000000000000e+00 0.0000000000000000e+00 0.0000000000000000e+00 0.0000000000000000e+00  3.8686810707393229e+07 -9.5246692380286783e+07 0.0000000000000000e+00 -9.5246692380286783e+07 3.3196149998928046e+08 0.0000000000000000e+00 0.0000000000000000e+00 0.0000000000000000e+00 0.0000000000000000e+00  5.1064632600893594e+07 -1.1540555406063730e+08 0.0000000000000000e+00 -1.1540555406063730e+08 2.9521509905961484e+08 0.0000000000000000e+00 0.0000000000000000e+00 0.0000000000000000e+00 0.0000000000000000e+00  5.9034529385112524e+07 -1.1127176927778883e+08 0.0000000000000000e+00 -1.1127176927778883e+08 2.3592023075835302e+08 0.0000000000000000e+00 0.0000000000000000e+00 0.0000000000000000e+00 0.0000000000000000e+00  6.3319908726089194e+07 -1.0270825601109074e+08 0.0000000000000000e+00 -1.0270825601109074e+08 1.8513933726374033e+08 0.0000000000000000e+00 0.0000000000000000e+00 0.0000000000000000e+00 0.0000000000000000e+00  6.5652396785014503e+07 -9.0869280459975660e+07 0.0000000000000000e+00 -9.0869280459975660e+07 1.3781852656010863e+08 0.0000000000000000e+00 0.0000000000000000e+00 0.0000000000000000e+00 0.0000000000000000e+00  5.7716213992952108e+07 -6.9847802183227986e+07 0.0000000000000000e+00 -6.9847802183227986e+07 9.8576753996190324e+07 0.0000000000000000e+00 0.0000000000000000e+00 0.0000000000000000e+00 0.0000000000000000e+00  5.1580993069816761e+07 -5.5267188140958466e+07 0.0000000000000000e+00 -5.5267188140958466e+07 6.5584605042626195e+07 0.0000000000000000e+00 0.0000000000000000e+00 0.0000000000000000e+00 0.0000000000000000e+00  3.5642357207677878e+07 -3.3925885364897721e+07 0.0000000000000000e+00 -3.3925885364897721e+07 3.3510601117614828e+07 0.0000000000000000e+00 0.0000000000000000e+00 0.0000000000000000e+00 0.0000000000000000e+00  1.6707942464167623e+07 -1.6935041358455647e+07 0.0000000000000000e+00 -1.6935041358455647e+07 1.8062415753276933e+07 0.0000000000000000e+00 0.0000000000000000e+00 0.0000000000000000e+00 0.0000000000000000e+00  2.4461933264131440e+05 -3.4093781092267847e+06 0.0000000000000000e+00 -3.4093781092267847e+06 4.3240076209336733e+06 0.0000000000000000e+00 0.0000000000000000e+00 0.0000000000000000e+00 0.0000000000000000e+00  -1.8648122802540731e+07 6.2689217224651910e+06 0.0000000000000000e+00 6.2689217224651910e+06 -1.8265955136273650e+06 0.0000000000000000e+00 0.0000000000000000e+00 0.0000000000000000e+00 0.0000000000000000e+00  -3.7387438405217893e+07 1.2929134720312295e+07 0.0000000000000000e+00 1.2929134720312295e+07 -5.0579601435621362e+06 0.0000000000000000e+00 0.0000000000000000e+00 0.0000000000000000e+00 0.0000000000000000e+00  -5.3408625574567765e+07 1.4010382836883569e+07 0.0000000000000000e+00 1.4010382836883569e+07 -4.2909571928541074e+06 0.0000000000000000e+00 0.0000000000000000e+00 0.0000000000000000e+00 0.0000000000000000e+00  -6.2682278885781996e+07 1.1347166213603597e+07 0.0000000000000000e+00 1.1347166213603597e+07 -3.3651053282818212e+06 0.0000000000000000e+00 0.0000000000000000e+00 0.0000000000000000e+00 0.0000000000000000e+00  -7.8216016694406360e+07 1.1160275322630856e+07 0.0000000000000000e+00 1.1160275322630856e+07 -2.7265887462737360e+06 0.0000000000000000e+00 0.0000000000000000e+00 0.0000000000000000e+00 0.0000000000000000e+00  -8.5510980405449510e+07 2.0709477156116078e+06 0.0000000000000000e+00 2.0709477156116078e+06 -1.1235505482992774e+06 0.0000000000000000e+00 0.0000000000000000e+00 0.0000000000000000e+00 0.0000000000000000e+00  -9.0476785352875754e+07 -1.5236324995563182e+06 0.0000000000000000e+00 -1.5236324995563182e+06 -2.4567492995539838e+06 0.0000000000000000e+00 0.0000000000000000e+00 0.0000000000000000e+00 0.0000000000000000e+00  -9.6774874986985102e+07 -1.0225514110660583e+07 0.0000000000000000e+00 -1.0225514110660583e+07 -2.9719358268147637e+06 0.0000000000000000e+00 0.0000000000000000e+00 0.0000000000000000e+00 0.0000000000000000e+00  -1.0019273230346045e+08 -1.8885736822100602e+07 0.0000000000000000e+00 -1.8885736822100602e+07 -5.2820253278186051e+06 0.0000000000000000e+00 0.0000000000000000e+00 0.0000000000000000e+00 0.0000000000000000e+00  -1.0177394896571968e+08 -2.6938030924755532e+07 0.0000000000000000e+00 -2.6938030924755532e+07 -8.9891254811102990e+06 0.0000000000000000e+00 0.0000000000000000e+00 0.0000000000000000e+00 0.0000000000000000e+00  -1.0152669660602185e+08 -3.6342268866969645e+07 0.0000000000000000e+00 -3.6342268866969645e+07 -1.5387974035039403e+07 0.0000000000000000e+00 0.0000000000000000e+00 0.0000000000000000e+00 0.0000000000000000e+00  -9.0066829546850726e+07 -4.0497709171837181e+07 0.0000000000000000e+00 -4.0497709171837181e+07 -2.1304515522917405e+07 0.0000000000000000e+00 0.0000000000000000e+00 0.0000000000000000e+00 0.0000000000000000e+00  -8.6775103306505978e+07 -4.3207238190096639e+07 0.0000000000000000e+00 -4.3207238190096639e+07 -2.1711614053300921e+07 0.0000000000000000e+00 0.0000000000000000e+00 0.0000000000000000e+00 0.0000000000000000e+00  -7.1726724439822316e+07 -4.2692386208072975e+07 0.0000000000000000e+00 -4.2692386208072975e+07 -2.8938376956032120e+07 0.0000000000000000e+00 0.0000000000000000e+00 0.0000000000000000e+00 0.0000000000000000e+00  -5.5792636866509818e+07 -3.9008963458377525e+07 0.0000000000000000e+00 -3.9008963458377525e+07 -2.9206625082203660e+07 0.0000000000000000e+00 0.0000000000000000e+00 0.0000000000000000e+00 0.0000000000000000e+00  -3.7857588781326659e+07 -2.9628046329043839e+07 0.0000000000000000e+00 -2.9628046329043839e+07 -2.4434536364496995e+07 0.0000000000000000e+00 0.0000000000000000e+00 0.0000000000000000e+00 0.0000000000000000e+00  -1.8425041755521968e+07 -1.5037711584139680e+07 0.0000000000000000e+00 -1.5037711584139680e+07 -1.2240922728751848e+07 0.0000000000000000e+00 0.0000000000000000e+00 0.0000000000000000e+00 0.0000000000000000e+00  -1.4521707089749149e+06 4.9931136052141516e+06 0.0000000000000000e+00 4.9931136052141516e+06 1.3949018174886968e+07 0.0000000000000000e+00 0.0000000000000000e+00 0.0000000000000000e+00 0.0000000000000000e+00  1.1308974624095313e+07 2.4274954980367690e+07 0.0000000000000000e+00 2.4274954980367690e+07 5.1906457890353799e+07 0.0000000000000000e+00 0.0000000000000000e+00 0.0000000000000000e+00 0.0000000000000000e+00  2.3593460191221453e+07 4.9129942476023741e+07 0.0000000000000000e+00 4.9129942476023741e+07 1.0654648961757207e+08 0.0000000000000000e+00 0.0000000000000000e+00 0.0000000000000000e+00 0.0000000000000000e+00  2.8978759112446133e+07 6.8333110352969736e+07 0.0000000000000000e+00 6.8333110352969736e+07 1.7403894886259389e+08 0.0000000000000000e+00 0.0000000000000000e+00 0.0000000000000000e+00 0.0000000000000000e+00  3.1472424304535035e+07 8.1028280973738357e+07 0.0000000000000000e+00 8.1028280973738357e+07 2.5992951771004385e+08 0.0000000000000000e+00 0.0000000000000000e+00 0.0000000000000000e+00 0.0000000000000000e+00  2.4277990612283476e+07 7.9471342634511650e+07 0.0000000000000000e+00 7.9471342634511650e+07 3.4209824957123774e+08 0.0000000000000000e+00 0.0000000000000000e+00 0.0000000000000000e+00 0.0000000000000000e+00  2.1970559128518179e+07 7.3659696527838632e+07 0.0000000000000000e+00 7.3659696527838632e+07 4.1873472647797966e+08 0.0000000000000000e+00 0.0000000000000000e+00 0.0000000000000000e+00 0.0000000000000000e+00  4.3945051660124056e+07 5.3332054547221489e+07 0.0000000000000000e+00 5.3332054547221489e+07 4.4360950200269991e+08 0.0000000000000000e+00 0.0000000000000000e+00 0.0000000000000000e+00 0.0000000000000000e+00  5.1921342180322416e+07 1.5836413666610839e+07 0.0000000000000000e+00 1.5836413666610839e+07 4.4971770150344092e+08 0.0000000000000000e+00 0.0000000000000000e+00 0.0000000000000000e+00 0.0000000000000000e+00  5.0355748863466233e+07 -1.9063530187936731e+07 0.0000000000000000e+00 -1.9063530187936731e+07 4.5021810789140797e+08 0.0000000000000000e+00 0.0000000000000000e+00 0.0000000000000000e+00 0.0000000000000000e+00  4.2774741011471234e+07 -5.1975207277170382e+07 0.0000000000000000e+00 -5.1975207277170382e+07 4.4315891002638501e+08 0.0000000000000000e+00 0.0000000000000000e+00 0.0000000000000000e+00 0.0000000000000000e+00  2.2550091385142498e+07 -7.3323772874611512e+07 0.0000000000000000e+00 -7.3323772874611512e+07 4.1844497085378796e+08 0.0000000000000000e+00 0.0000000000000000e+00 0.0000000000000000e+00 0.0000000000000000e+00  2.4113299151229989e+07 -7.9330472470677286e+07 0.0000000000000000e+00 -7.9330472470677286e+07 3.4310985196452820e+08 0.0000000000000000e+00 0.0000000000000000e+00 0.0000000000000000e+00 0.0000000000000000e+00  3.1147104612573031e+07 -8.1008708657828495e+07 0.0000000000000000e+00 -8.1008708657828495e+07 2.5997687154182380e+08 0.0000000000000000e+00 0.0000000000000000e+00 0.0000000000000000e+00 0.0000000000000000e+00  2.7057887862595130e+07 -6.7102392872757085e+07 0.0000000000000000e+00 -6.7102392872757085e+07 1.7867999015303713e+08 0.0000000000000000e+00 0.0000000000000000e+00 0.0000000000000000e+00 0.0000000000000000e+00  2.2329395624790717e+07 -4.7483237004630364e+07 0.0000000000000000e+00 -4.7483237004630364e+07 1.0642387809466954e+08 0.0000000000000000e+00 0.0000000000000000e+00 0.0000000000000000e+00 0.0000000000000000e+00  1.1616406178679647e+07 -2.6378214267218076e+07 0.0000000000000000e+00 -2.6378214267218076e+07 5.4134396400684267e+07 0.0000000000000000e+00 0.0000000000000000e+00 0.0000000000000000e+00 0.0000000000000000e+00  -2.1079666988143576e+06 -3.9750744664623607e+06 0.0000000000000000e+00 -3.9750744664623607e+06 1.4766690035419904e+07 0.0000000000000000e+00 0.0000000000000000e+00 0.0000000000000000e+00 0.0000000000000000e+00  -1.8213943165642709e+07 1.5360795484445922e+07 0.0000000000000000e+00 1.5360795484445922e+07 -1.2998938092363924e+07 0.0000000000000000e+00 0.0000000000000000e+00 0.0000000000000000e+00 0.0000000000000000e+00  -3.7080449641503811e+07 2.9077277359429635e+07 0.0000000000000000e+00 2.9077277359429635e+07 -2.5059220356527068e+07 0.0000000000000000e+00 0.0000000000000000e+00 0.0000000000000000e+00 0.0000000000000000e+00  -5.5851221333683439e+07 4.0416827942069702e+07 0.0000000000000000e+00 4.0416827942069702e+07 -3.0354825553040091e+07 0.0000000000000000e+00 0.0000000000000000e+00 0.0000000000000000e+00 0.0000000000000000e+00  -7.1064240282386035e+07 4.4641205933280542e+07 0.0000000000000000e+00 4.4641205933280542e+07 -2.9368249887616880e+07 0.0000000000000000e+00 0.0000000000000000e+00 0.0000000000000000e+00 0.0000000000000000e+00  -8.3170880166324452e+07 4.3734228043700248e+07 0.0000000000000000e+00 4.3734228043700248e+07 -2.5863228374152519e+07 0.0000000000000000e+00 0.0000000000000000e+00 0.0000000000000000e+00 0.0000000000000000e+00  -9.3362360602290794e+07 4.1298082891100176e+07 0.0000000000000000e+00 4.1298082891100176e+07 -2.0312922595396552e+07 0.0000000000000000e+00 0.0000000000000000e+00 0.0000000000000000e+00 0.0000000000000000e+00  -9.8997327528215513e+07 3.3402087490520008e+07 0.0000000000000000e+00 3.3402087490520008e+07 -1.4109779870083397e+07 0.0000000000000000e+00 0.0000000000000000e+00 0.0000000000000000e+00 0.0000000000000000e+00  -1.0036765906034048e+08 2.9070083701796610e+07 0.0000000000000000e+00 2.9070083701796610e+07 -1.1128276502450198e+07 0.0000000000000000e+00 0.0000000000000000e+00 0.0000000000000000e+00 0.0000000000000000e+00  -1.0007338469684368e+08 1.8817418966388330e+07 0.0000000000000000e+00 1.8817418966388330e+07 -5.6033609204603555e+06 0.0000000000000000e+00 0.0000000000000000e+00 0.0000000000000000e+00 0.0000000000000000e+00  -9.8197792203996643e+07 1.0397327678664044e+07 0.0000000000000000e+00 1.0397327678664044e+07 -3.2088005771057825e+06 0.0000000000000000e+00 0.0000000000000000e+00 0.0000000000000000e+00 0.0000000000000000e+00  -9.2355799620176837e+07 2.3845179402759010e+06 0.0000000000000000e+00 2.3845179402759010e+06 -1.6464808366386793e+06 0.0000000000000000e+00 0.0000000000000000e+00 0.0000000000000000e+00 0.0000000000000000e+00  -8.2461891541833043e+07 -2.3638527043422400e+06 0.0000000000000000e+00 -2.3638527043422400e+06 -2.2018168499379139e+06 0.0000000000000000e+00 0.0000000000000000e+00 0.0000000000000000e+00 0.0000000000000000e+00  -7.7377264114780024e+07 -8.8656874319798015e+06 0.0000000000000000e+00 -8.8656874319798015e+06 -2.4174515742140966e+06 0.0000000000000000e+00 0.0000000000000000e+00 0.0000000000000000e+00 0.0000000000000000e+00  -6.4693095695783921e+07 -1.1878808927665051e+07 0.0000000000000000e+00 -1.1878808927665051e+07 -3.6772147485395195e+06 0.0000000000000000e+00 0.0000000000000000e+00 0.0000000000000000e+00 0.0000000000000000e+00  -5.2785193193071343e+07 -1.3758365851584168e+07 0.0000000000000000e+00 -1.3758365851584168e+07 -4.5127649037943678e+06 0.0000000000000000e+00 0.0000000000000000e+00 0.0000000000000000e+00 0.0000000000000000e+00  -3.6782230420612425e+07 -1.1595177606210813e+07 0.0000000000000000e+00 -1.1595177606210813e+07 -3.9737415880992813e+06 0.0000000000000000e+00 0.0000000000000000e+00 0.0000000000000000e+00 0.0000000000000000e+00  -1.9443756726798274e+07 -5.7189273122522011e+06 0.0000000000000000e+00 -5.7189273122522011e+06 -1.3747279547003829e+06 0.0000000000000000e+00 0.0000000000000000e+00 0.0000000000000000e+00 0.0000000000000000e+00  -2.3375191495998704e+05 3.8736039682424660e+06 0.0000000000000000e+00 3.8736039682424660e+06 4.7284471392344115e+06 0.0000000000000000e+00 0.0000000000000000e+00 0.0000000000000000e+00 0.0000000000000000e+00  1.9017660183210865e+07 1.6803974023052637e+07 0.0000000000000000e+00 1.6803974023052637e+07 1.6868253976620257e+07 0.0000000000000000e+00 0.0000000000000000e+00 0.0000000000000000e+00 0.0000000000000000e+00  3.5050620330880143e+07 3.2626436281425167e+07 0.0000000000000000e+00 3.2626436281425167e+07 3.4964492142317474e+07 0.0000000000000000e+00 0.0000000000000000e+00 0.0000000000000000e+00 0.0000000000000000e+00  5.0796498191875495e+07 5.4186082167381361e+07 0.0000000000000000e+00 5.4186082167381361e+07 6.3116745825921319e+07 0.0000000000000000e+00 0.0000000000000000e+00 0.0000000000000000e+00 0.0000000000000000e+00  5.9845628108217120e+07 7.2815195795473725e+07 0.0000000000000000e+00 7.2815195795473725e+07 9.7232142847626135e+07 0.0000000000000000e+00 0.0000000000000000e+00 0.0000000000000000e+00 0.0000000000000000e+00  6.5217712635187075e+07 9.0196285732318133e+07 0.0000000000000000e+00 9.0196285732318133e+07 1.3614418398997614e+08 0.0000000000000000e+00 0.0000000000000000e+00 0.0000000000000000e+00 0.0000000000000000e+00  6.5499518015806928e+07 1.0476734182913280e+08 0.0000000000000000e+00 1.0476734182913280e+08 1.8446224665964818e+08 0.0000000000000000e+00 0.0000000000000000e+00 0.0000000000000000e+00 0.0000000000000000e+00  5.9600323792881481e+07 1.1146090143651827e+08 0.0000000000000000e+00 1.1146090143651827e+08 2.3516798655715001e+08 0.0000000000000000e+00 0.0000000000000000e+00 0.0000000000000000e+00 0.0000000000000000e+00  5.0676243660950534e+07 1.1122192539684513e+08 0.0000000000000000e+00 1.1122192539684513e+08 2.8828563350933391e+08 0.0000000000000000e+00 0.0000000000000000e+00 0.0000000000000000e+00 0.0000000000000000e+00  3.9846899821928732e+07 1.0274080543971357e+08 0.0000000000000000e+00 1.0274080543971357e+08 3.3831680463455415e+08 0.0000000000000000e+00 0.0000000000000000e+00 0.0000000000000000e+00 0.0000000000000000e+00  2.8514040438447408e+07 8.5540261080331549e+07 0.0000000000000000e+00 8.5540261080331549e+07 3.8023687165458041e+08 0.0000000000000000e+00 0.0000000000000000e+00 0.0000000000000000e+00 0.0000000000000000e+00  2.0070417009669356e+07 6.2961277357684121e+07 0.0000000000000000e+00 6.2961277357684121e+07 4.1348864740061271e+08 0.0000000000000000e+00 0.0000000000000000e+00 0.0000000000000000e+00 0.0000000000000000e+00  1.6900634118568640e+07 3.2505366146290742e+07 0.0000000000000000e+00 3.2505366146290742e+07 4.3009096957721162e+08 0.0000000000000000e+00 0.0000000000000000e+00 0.0000000000000000e+00 0.0000000000000000e+00  1.1854809355866313e+06 8.2245337422251771e+05 0.0000000000000000e+00 8.2245337422251771e+05 1.5677902614928409e+08 0.0000000000000000e+00 0.0000000000000000e+00 0.0000000000000000e+00 0.0000000000000000e+00  5.8696891261833562e+06 4.8287888391516195e+05 0.0000000000000000e+00 4.8287888391516195e+05 1.3551379160162395e+08 0.0000000000000000e+00 0.0000000000000000e+00 0.0000000000000000e+00 0.0000000000000000e+00  1.2156524327278746e+07 3.4192396027109690e+05 0.0000000000000000e+00 3.4192396027109690e+05 1.1183004359455684e+08 0.0000000000000000e+00 0.0000000000000000e+00 0.0000000000000000e+00 0.0000000000000000e+00  1.8097768732508097e+07 2.3423130274845340e+05 0.0000000000000000e+00 2.3423130274845340e+05 8.5937281462888122e+07 0.0000000000000000e+00 0.0000000000000000e+00 0.0000000000000000e+00 0.0000000000000000e+00  2.3969939169316974e+07 4.6811907650561770e+05 0.0000000000000000e+00 4.6811907650561770e+05 6.2518707834427267e+07 0.0000000000000000e+00 0.0000000000000000e+00 0.0000000000000000e+00 0.0000000000000000e+00  2.8605464084607638e+07 2.1710433502100265e+05 0.0000000000000000e+00 2.1710433502100265e+05 4.0451417790611140e+07 0.0000000000000000e+00 0.0000000000000000e+00 0.0000000000000000e+00 0.0000000000000000e+00  3.2040499383394644e+07 4.5666050628595997e+05 0.0000000000000000e+00 4.5666050628595997e+05 2.6296597792474236e+07 0.0000000000000000e+00 0.0000000000000000e+00 0.0000000000000000e+00 0.0000000000000000e+00  3.3582506111360788e+07 3.8454779358267540e+05 0.0000000000000000e+00 3.8454779358267540e+05 1.4579233638784582e+07 0.0000000000000000e+00 0.0000000000000000e+00 0.0000000000000000e+00 0.0000000000000000e+00  3.3573018618100137e+07 2.7907826770166779e+05 0.0000000000000000e+00 2.7907826770166779e+05 8.9785372976221237e+06 0.0000000000000000e+00 0.0000000000000000e+00 0.0000000000000000e+00 0.0000000000000000e+00  3.1140142663197320e+07 5.0012215911202697e+05 0.0000000000000000e+00 5.0012215911202697e+05 9.1287581437830199e+06 0.0000000000000000e+00 0.0000000000000000e+00 0.0000000000000000e+00 0.0000000000000000e+00  2.7984967812367149e+07 2.6034359632764742e+05 0.0000000000000000e+00 2.6034359632764742e+05 1.4590869974400386e+07 0.0000000000000000e+00 0.0000000000000000e+00 0.0000000000000000e+00 0.0000000000000000e+00  2.3073169118893564e+07 2.1521614150347171e+05 0.0000000000000000e+00 2.1521614150347171e+05 2.4656041190615352e+07 0.0000000000000000e+00 0.0000000000000000e+00 0.000000000000000