<?xml version="1.0"?>
<VTKFile type="UnstructuredGrid"  version="0.1"  >
<UnstructuredGrid>
<Piece  NumberOfPoints="1799" NumberOfCells="3156">
<Points>
<DataArray  type="Float64"  NumberOfComponents="3"  format="ascii">1.694065894508601e-21 0.008447317744001559 0  0 0.006243487017789186 0  0 0.01 0  0.01 0.01 0  0.01 0.004739447698251261 0  0.01 0.003038811340045742 0  0.01 0 0  0 0 0  0.00972274937591714 0.00446136709 0  0.009653726258356362 0.004545183154286949 0  0.009783606631901408 0.0043734488461064 0  0.009577812281436313 0.004624366443043088 0  0.009835143529851395 0.004282096254618384 0  0.009496374895431106 0.004698536913086191 0  0.009876351429728553 0.004188097333533943 0  0.009410843899527923 0.004767474310794485 0  0.009906389591104073 0.004092339945416686 0  0.009322680015752169 0.00483112308721043 0  0.009924603388293412 0.003995788691361544 0  0.009233342881914028 0.004889592860194898 0  0.009930538269388231 0.00389945963832429 0  0.009144259222736564 0.004943154406398476 0  0.009923949134101986 0.003804393533973133 0  0.009056791952980949 0.004992231280310688 0  0.009904804916195522 0.003711628202889073 0  0.00897221094262878 0.005037387269757166 0  0.009873288272257268 0.003622170840092915 0  0.008891666132610079 0.005079310004121139 0  0.009829790396922524 0.003536970921943865 0  0.008816163631214721 0.005118791130579932 0  0.009774901102315603 0.003456894440322572 0  0.008746545347644217 0.005156703562277342 0  0.009709394413691105 0.003382700134020289 0  0.008683472631978471 0.005193976378365099 0  0.009634210041128223 0.00331501834219343 0  0.008627414292309099 0.005231568017322153 0  0.009550431186043644 0.003254333039822774 0  0.008578639252366998 0.005270438450342868 0  0.009459259228807002 0.003200967535951617 0  0.008537213999305775 0.005311521049719365 0  0.00936198591772306 0.003155074224035663 0  0.008503004854204898 0.00535569487730484 0  0.009259963738278846 0.00311662867229655 0  0.008475684980220988 0.005403758110057852 0  0.009154575183414377 0.003085428233059718 0  0.008454745928046752 0.005456403293512485 0  0.009047201669650919 0.00306109523639258 0  0.008439513408278112 0.005514195070427174 0  0.008939192849631329 0.003043084717779311 0  0.008429166878152986 0.005577550971903466 0  0.008831837058876933 0.003030696514962359 0  0.008422762438422462 0.005646725783411865 0  0.008726333603687408 0.003023091458314896 0  0.008419258457098896 0.005721799910265017 0  0.008623767548895558 0.003019311274956418 0  0.008417543272430451 0.005802672068315741 0  0.008525087599857118 0.003018301731897273 0  0.008416464279248125 0.00588905651847861 0  0.008431087594226352 0.003018938460180701 0  0.008414857671986093 0.005980484950740676 0  0.008342392027717107 0.003020054832380215 0  0.008411578104923951 0.00607631300744762 0  0.008259445936461489 0.003020471211663848 0  0.008405527535824455 0.006175731319709577 0  0.008182509349292211 0.003019024853329008 0  0.008395682542970321 0.006277780817654691 0  0.008111656409014527 0.003014599720199745 0  0.008381119447013561 0.006381371967788657 0  0.008046779145346881 0.003006155472077048 0  0.008361036626979524 0.006485307491577932 0  0.007987595766591686 0.002992754906602592 0  0.008334773492744059 0.006588308031041598 0  0.007933663225123278 0.002973589164041123 0  0.008301825662481763 0.006689040151823762 0  0.007884393706229835 0.002948000060762873 0  0.008261855990795578 0.006786146013815808 0  0.007839074593337327 0.002915498984345503 0  0.00821470119903896 0.006878273995427361 0  0.00779689137756701 0.002875781865550529 0  0.008160373971076945 0.006964109531182152 0  0.007756952908035942 0.002828739836943341 0  0.008099060492600814 0.007042405414120494 0  0.007718318323066783 0.002774465292296384 0  0.008031113527237115 0.007112010824752832 0  0.007680024962909086 0.00271325317257295 0  0.00795704123519566 0.007171898376800313 0  0.007641116542652925 0.002645597420482335 0  0.007877492047271241 0.007221188515997342 0  0.007600670860259881 0.002572182663460059 0  0.007793236005976425 0.007259170670701667 0  0.007557826329114609 0.002493871301548735 0  0.007705143073969071 0.007285320630435001 0  0.007511806656826274 0.002411686289155665 0  0.007614158985545023 0.007299313718867113 0  0.007461943041351158 0.002326790005260706 0  0.007521279277912055 0.0073010334289404 0  0.007407693320609463 0.002240459702730237 0  0.007427522183731196 0.007290575297323677 0  0.007348657590981677 0.002154060111582997 0  0.007333901093897399 0.007268245910489354 0  0.007284589901391725 0.00206901384126507 0  0.007241397309057064 0.007234557052593699 0  0.007215405730813352 0.001986770281484875 0  0.007150933789699272 0.00719021512310135 0  0.007141185065425865 0.001908773738582196 0  0.007063350588039396 0.007136106066830752 0  0.007062171004568673 0.001836431563827099 0  0.006979382601016691 0.007073276167978721 0  0.006978763939261549 0.001771083030979474 0  0.006899640223662019 0.007002909160025809 0  0.006891511460488134 0.001713969702858609 0  0.006824593407373458 0.006926300192755933 0  0.006801094263833782 0.001666207991002947 0  0.006754559540147956 0.006844827273742502 0  0.006708308419676155 0.00162876455961884 0  0.006689695467758148 0.006759920862683462 0  0.006614044471369561 0.001602435156224392 0  0.006629993868701035 0.006673032341407502 0  0.006519263905397843 0.001587827368384263 0  0.006575284084148806 0.006585602109130518 0  0.006424973605244305 0.00158534771074889 0  0.006525237389907268 0.006499028060960921 0  0.006332198953034525 0.001595193341602671 0  0.006479376583406328 0.006414635197532647 0  0.006241956278528544 0.001617348595877673 0  0.006437089647876208 0.006333647085242707 0  0.006155225372873471 0.001651586404869184 0  0.006397647150892512 0.00625715984059454 0  0.00607292278421836 0.001697474554571888 0  0.006360222938045857 0.006186119249742206 0  0.005995876593836629 0.001754386617555196 0  0.006323917597038065 0.006121301557042314 0  0.005924803335248409 0.001821517280492992 0  0.006287784095183865 0.006063298366166584 0  0.005860287665879005 0.001897901683632007 0  0.0062508549359344 0.00601250599634399 0  0.00580276533234513 0.001982438292224905 0  0.006212170139093256 0.005969119527087292 0  0.005752509888229881 0.002073914735631396 0  0.006170805325914 0.005933131650016665 0  0.005709623529238961 0.002171035979469365 0  0.00612589918486164 0.005904336328960144 0  0.005674032307267846 0.002272454141595308 0  0.006076679606648487 0.005882337152288339 0  0.005645485874731519 0.002376799225137041 0  0.006022487807921907 0.005866560147323738 0  0.005623561796267508 0.002482710022195841 0  0.005962799810943057 0.005856270718467968 0  0.005607674349474454 0.002588864440638754 0  0.005897244710577686 0.005850594271079678 0  0.005597087622580383 0.002694008523617222 0  0.005825619238346946 0.005848539994562327 0  0.005590932607696336 0.002796983466621648 0  0.005747898224220681 0.005849027202760175 0  0.005588227886339777 0.002896749989114506 0  0.005664240658026499 0.005850913569457749 0  0.005587903411768036 0.002992409485755934 0  0.005574991161285845 0.005853024553003058 0  0.00558882681266186 0.003083221464236011 0  0.005480676794268173 0.0058541832778865 0  0.005589831576859201 0.003168616870700337 0  0.005381999239242995 0.005853240133126504 0  0.005589746423825433 0.003248207007348517 0  0.005279822516415462 0.005849101357707455 0  0.005587425141631403 0.00332178785741102 0  0.005175156500976945 0.005840755911796739 0  0.005581776149243588 0.003389339747608045 0  0.00506913661529584 0.005827299978297529 0  0.005571791048314209 0.003451022394501277 0  0.004963000166879053 0.005807958501303589 0  0.005556571450340227 0.003507165495970296 0  0.004858059887934908 0.005782103244641807 0  0.005535353404530312 0.003558255139524018 0  0.004755675304028876 0.005749266942985061 0  0.005507528808027482 0.003604916402549837 0  0.004657222615643685 0.005709153217746636 0  0.005472663251911699 0.003647892613343369 0  0.004564063816013228 0.005661642037623928 0  0.005430509841895833 0.003688021823527707 0  0.004477515790388595 0.00560679061654508 0  0.005381018629732107 0.003726211110241175 0  0.004398820145347423 0.005544829757060492 0  0.005324341397676651 0.003763409378575775 0  0.004329114501762111 0.00547615576202805 0  0.00526083165129817 0.003800579369906148 0  0.004269405951942947 0.005401318148896703 0  0.005191039792677943 0.00383866959910631 0  0.004220547331062618 0.005321003506214064 0  0.005115703563750334 0.003878586942798619 0  0.004183216886472467 0.005236015928541855 0  0.005035733965268281 0.003921170581761714 0  0.004157901847560569 0.005147254551350707 0  0.004952196967785547 0.00396716796394016 0  0.004144886305359802 0.005055688779556268 0  0.004866291434383562 0.004017213401087919 0  0.004144243707482425 0.004962331860358698 0  0.004779323768077839 0.004071809843297703 0  0.004155834162682716 0.004868213491542542 0  0.004692679877608203 0.004131314293258991 0  0.004179306633167043 0.004774352179382177 0  0.004607795121646793 0.004195927228129257 0  0.004214105974540842 0.0046817280652164 0  0.004526122941701917 0.004265686293763611 0  0.004259484665915422 0.004591256926493267 0  0.004449102926905492 0.004340464426324128 0  0.004314518959085191 0.004503766026986902 0  0.004378129068627031 0.004419972442741865 0  0.00593001182314166 0.006372403387971871 0  0.005939572443554628 0.006436360317137665 0  0.005925376372385204 0.006368751471385894 0  0.005946732308607814 0.006530898816930391 0  0.005866840669782601 0.00633199119654035 0  0.00594701266737181 0.006625814903473438 0  0.005804249765180952 0.006301600770407027 0  0.005940440295727538 0.006720641436504761 0  0.00573695820405656 0.00627701458488837 0  0.005927101959384199 0.006814914480349616 0  0.00566445506679863 0.006257506825568757 0  0.005907143630376305 0.006908179927508449 0  0.005586382222683439 0.006242212086839124 0  0.005880768731714959 0.007 0  0.005502548881191342 0.006230149145824911 0  0.00584823543546249 0.007089959498878739 0  0.0054129
[...]
<PointData  Tensors="$\sigma$"> 
<DataArray  type="Float64"  Name="$\sigma$"  NumberOfComponents="9" format="ascii">-1.0718188042261710e+07 3.2676907598449141e+07 0.0000000000000000e+00 3.2676907598449141e+07 2.7120644055586940e+08 0.0000000000000000e+00 0.0000000000000000e+00 0.0000000000000000e+00 0.0000000000000000e+00  -1.5134481238513758e+07 -2.6090844701728150e+07 0.0000000000000000e+00 -2.6090844701728139e+07 1.6342309215501460e+08 0.0000000000000000e+00 0.0000000000000000e+00 0.0000000000000000e+00 0.0000000000000000e+00  9.0863798289445229e+06 1.8541340964006332e+06 0.0000000000000000e+00 1.8541340964006328e+06 1.3718561271733668e+08 0.0000000000000000e+00 0.0000000000000000e+00 0.0000000000000000e+00 0.0000000000000000e+00  7.8171748712382949e+04 3.8712062735542463e+05 0.0000000000000000e+00 3.8712062735542416e+05 4.8728097062752768e+07 0.0000000000000000e+00 0.0000000000000000e+00 0.0000000000000000e+00 0.0000000000000000e+00  -1.0198542360100351e+07 -2.3828617896649800e+07 0.0000000000000000e+00 -2.3828617896649811e+07 1.4192712055028617e+08 0.0000000000000000e+00 0.0000000000000000e+00 0.0000000000000000e+00 0.0000000000000000e+00  -1.0770190861315306e+07 5.3831440577135354e+07 0.0000000000000000e+00 5.3831440577135347e+07 2.1385265808017752e+08 0.0000000000000000e+00 0.0000000000000000e+00 0.0000000000000000e+00 0.0000000000000000e+00  2.5491474680955461e+06 3.2218229712548724e+05 0.0000000000000000e+00 3.2218229712548637e+05 8.4720094140335724e+07 0.0000000000000000e+00 0.0000000000000000e+00 0.0000000000000000e+00 0.0000000000000000e+00  1.4559517996416244e+05 9.2534775428346387e+04 0.0000000000000000e+00 9.2534775428346271e+04 4.7367235682156518e+07 0.0000000000000000e+00 0.0000000000000000e+00 0.0000000000000000e+00 0.0000000000000000e+00  1.9456204844676539e+07 1.4503577227837069e+07 0.0000000000000000e+00 1.4503577227837084e+07 2.6915641188257104e+08 0.0000000000000000e+00 0.0000000000000000e+00 0.0000000000000000e+00 0.0000000000000000e+00  4.8041994578214504e+07 2.2860163351698697e+07 0.0000000000000000e+00 2.2860163351698689e+07 1.4238768484528795e+08 0.0000000000000000e+00 0.0000000000000000e+00 0.0000000000000000e+00 0.0000000000000000e+00  -1.8651691066338476e+07 -3.3910670924897447e+07 0.0000000000000000e+00 -3.3910670924897462e+07 3.8738784106036317e+08 0.0000000000000000e+00 0.0000000000000000e+00 0.0000000000000000e+00 0.0000000000000000e+00  6.0942778252312288e+07 -2.9185693011739966e+06 0.0000000000000000e+00 -2.9185693011739925e+06 7.4763880199456781e+07 0.0000000000000000e+00 0.0000000000000000e+00 0.0000000000000000e+00 0.0000000000000000e+00  -2.4223083186367026e+05 -9.2265176263754159e+07 0.0000000000000000e+00 -9.2265176263754129e+07 4.6031001969182408e+08 0.0000000000000000e+00 0.0000000000000000e+00 0.0000000000000000e+00 0.0000000000000000e+00  6.6803324157459460e+07 -4.6577673493704258e+05 0.0000000000000000e+00 -4.6577673493703420e+05 2.6908226780502010e+07 0.0000000000000000e+00 0.0000000000000000e+00 0.0000000000000000e+00 0.0000000000000000e+00  -1.8336887303489190e+07 -1.2721426149438217e+08 0.0000000000000000e+00 -1.2721426149438219e+08 4.8757527387209797e+08 0.0000000000000000e+00 0.0000000000000000e+00 0.0000000000000000e+00 0.0000000000000000e+00  -1.8886428476020798e+07 -2.3963807835856445e+07 0.0000000000000000e+00 -2.3963807835856434e+07 3.8481449202358812e+07 0.0000000000000000e+00 0.0000000000000000e+00 0.0000000000000000e+00 0.0000000000000000e+00  5.3202456035086654e+07 -1.3907941884587467e+08 0.0000000000000000e+00 -1.3907941884587467e+08 4.6873261499286813e+08 0.0000000000000000e+00 0.0000000000000000e+00 0.0000000000000000e+00 0.0000000000000000e+00  9.1652103516781460e+06 1.6142600859330483e+07 0.0000000000000000e+00 1.6142600859330487e+07 3.4854858079692125e+07 0.0000000000000000e+00 0.0000000000000000e+00 0.0000000000000000e+00 0.0000000000000000e+00  1.2879212826972954e+05 2.8223390422433060e+08 0.0000000000000000e+00 2.8223390422433060e+08 7.6360435535268056e+08 0.0000000000000000e+00 0.0000000000000000e+00 0.0000000000000000e+00 0.0000000000000000e+00  -7.0857657078055302e+06 1.9607169363092851e+07 0.0000000000000000e+00 1.9607169363092858e+07 1.1145730025496269e+07 0.0000000000000000e+00 0.0000000000000000e+00 0.0000000000000000e+00 0.0000000000000000e+00  -2.3208000238555393e+08 5.0289151238502204e+07 0.0000000000000000e+00 5.0289151238502204e+07 1.3326568154315801e+09 0.0000000000000000e+00 0.0000000000000000e+00 0.0000000000000000e+00 0.0000000000000000e+00  -1.6359571197230332e+07 3.6173860093581781e+05 0.0000000000000000e+00 3.6173860093581514e+05 -1.4324101105621817e+07 0.0000000000000000e+00 0.0000000000000000e+00 0.0000000000000000e+00 0.0000000000000000e+00  1.7454075626680698e+07 -2.0652603954223850e+08 0.0000000000000000e+00 -2.0652603954223853e+08 9.5905718047764480e+08 0.0000000000000000e+00 0.0000000000000000e+00 0.0000000000000000e+00 0.0000000000000000e+00  -1.8998254297952600e+07 7.4880807642690139e+06 0.0000000000000000e+00 7.4880807642690139e+06 -2.9177631713256431e+06 0.0000000000000000e+00 0.0000000000000000e+00 0.0000000000000000e+00 0.0000000000000000e+00  -5.9397137182769179e+07 9.8118306633244604e+07 0.0000000000000000e+00 9.8118306633244589e+07 4.8842651145040613e+08 0.0000000000000000e+00 0.0000000000000000e+00 0.0000000000000000e+00 0.0000000000000000e+00  -2.3921975868729815e+07 1.3833474498510309e+07 0.0000000000000000e+00 1.3833474498510309e+07 -5.9531954130437011e+06 0.0000000000000000e+00 0.0000000000000000e+00 0.0000000000000000e+00 0.0000000000000000e+00  -9.1020967585331932e+07 6.1207434339742936e+07 0.0000000000000000e+00 6.1207434339742951e+07 4.9693193472729886e+08 0.0000000000000000e+00 0.0000000000000000e+00 0.0000000000000000e+00 0.0000000000000000e+00  -1.7884620144069478e+07 6.6229715103338007e+06 0.0000000000000000e+00 6.6229715103338007e+06 -1.1212981694422811e+07 0.0000000000000000e+00 0.0000000000000000e+00 0.0000000000000000e+00 0.0000000000000000e+00  -1.2575047032896186e+08 4.8968709695827868e+06 0.0000000000000000e+00 4.8968709695827859e+06 4.5066372058583421e+08 0.0000000000000000e+00 0.0000000000000000e+00 0.0000000000000000e+00 0.0000000000000000e+00  -1.7941630907606438e+07 8.5991160354759712e+06 0.0000000000000000e+00 8.5991160354759749e+06 -5.3079940262899511e+06 0.0000000000000000e+00 0.0000000000000000e+00 0.0000000000000000e+00 0.0000000000000000e+00  -1.1691327082477616e+08 -8.0615679833721414e+07 0.0000000000000000e+00 -8.0615679833721399e+07 3.4145647816885638e+08 0.0000000000000000e+00 0.0000000000000000e+00 0.0000000000000000e+00 0.0000000000000000e+00  -1.5288087358518997e+07 9.1824979638840947e+06 0.0000000000000000e+00 9.1824979638840929e+06 -4.2046326293427069e+06 0.0000000000000000e+00 0.0000000000000000e+00 0.0000000000000000e+00 0.0000000000000000e+00  -1.0959771895425171e+08 -1.6041579730427116e+08 0.0000000000000000e+00 -1.6041579730427116e+08 2.3070282618587556e+08 0.0000000000000000e+00 0.0000000000000000e+00 0.0000000000000000e+00 0.0000000000000000e+00  -8.8667104380405881e+06 7.4894235659182863e+06 0.0000000000000000e+00 7.4894235659182854e+06 -4.5662055692569641e+06 0.0000000000000000e+00 0.0000000000000000e+00 0.0000000000000000e+00 0.0000000000000000e+00  -8.0955005883960314e+06 -1.5855943021600354e+08 0.0000000000000000e+00 -1.5855943021600354e+08 1.5007638323896285e+07 0.0000000000000000e+00 0.0000000000000000e+00 0.0000000000000000e+00 0.0000000000000000e+00  -8.5503014279672224e+06 6.7983594479277218e+06 0.0000000000000000e+00 6.7983594479277199e+06 -4.0318424158211942e+06 0.0000000000000000e+00 0.0000000000000000e+00 0.0000000000000000e+00 0.0000000000000000e+00  -3.4851118416814077e+08 -1.2388443949603340e+07 0.0000000000000000e+00 -1.2388443949603340e+07 -8.7791043760181889e+07 0.0000000000000000e+00 0.0000000000000000e+00 0.0000000000000000e+00 0.0000000000000000e+00  -6.5661647963461140e+06 5.5309289782117801e+06 0.0000000000000000e+00 5.5309289782117791e+06 -4.5702379914922118e+06 0.0000000000000000e+00 0.0000000000000000e+00 0.0000000000000000e+00 0.0000000000000000e+00  -1.7769979732044920e+08 -1.4188661169761476e+08 0.0000000000000000e+00 -1.4188661169761476e+08 -3.8737100502525710e+07 0.0000000000000000e+00 0.0000000000000000e+00 0.0000000000000000e+00 0.0000000000000000e+00  -4.6665244379822249e+06 4.6468884218418375e+06 0.0000000000000000e+00 4.6468884218418328e+06 -5.2601417043225067e+06 0.0000000000000000e+00 0.0000000000000000e+00 0.0000000000000000e+00 0.0000000000000000e+00  -1.9108034300725603e+08 -5.1760741625478536e+07 0.0000000000000000e+00 -5.1760741625478536e+07 -6.9546526791161805e+07 0.0000000000000000e+00 0.0000000000000000e+00 0.0000000000000000e+00 0.0000000000000000e+00  -3.9188981629379778e+06 4.1030657516812407e+06 0.0000000000000000e+00 4.1030657516812421e+06 -6.5789199780255873e+06 0.0000000000000000e+00 0.0000000000000000e+00 0.0000000000000000e+00 0.0000000000000000e+00  -9.4372200902969062e+07 -5.7234266848265633e+07 0.0000000000000000e+00 -5.7234266848265633e+07 -3.5712244499220721e+07 0.0000000000000000e+00 0.0000000000000000e+00 0.0000000000000000e+00 0.0000000000000000e+00  -2.0079944773453786e+06 3.6010883920915015e+06 0.0000000000000000e+00 3.6010883920915066e+06 -7.2839358694185894e+06 0.0000000000000000e+00 0.0000000000000000e+00 0.0000000000000000e+00 0.0000000000000000e+00  -2.1115771264596620e+08 -3.6012023902292110e+07 0.0000000000000000e+00 -3.6012023902292110e+07 -9.8932495029905310e+05 0.0000000000000000e+00 0.0000000000000000e+00 0.0000000000000000e+00 0.0000000000000000e+00  -1.5588016231555350e+06 2.9528681286667436e+06 0.0000000000000000e+00 2.9528681286667427e+06 -9.3167245118290521e+06 0.0000000000000000e+00 0.0000000000000000e+00 0.0000000000000000e+00 0.0000000000000000e+00  -1.2867291953775312e+08 -3.2363608858115412e+07 0.0000000000000000e+00 -3.2363608858115420e+07 4.7509760883147791e+06 0.0000000000000000e+00 0.0000000000000000e+00 0.0000000000000000e+00 0.0000000000000000e+00  -2.3413852155917324e+06 2.5036014334691917e+06 0.0000000000000000e+00 2.5036014334691912e+06 -1.0938447069499094e+07 0.0000000000000000e+00 0.0000000000000000e+00 0.0000000000000000e+00 0.0000000000000000e+00  -1.0566701366531107e+08 -1.5954330062010091e+07 0.0000000000000000e+00 -1.5954330062010093e+07 -2.2106806282605687e+06 0.0000000000000000e+00 0.0000000000000000e+00 0.0000000000000000e+00 0.0000000000000000e+00  -2.1172334640615303e+06 1.6884579412096683e+06 0.0000000000000000e+00 1.6884579412096676e+06 -1.2961072171992872e+07 0.0000000000000000e+00 0.0000000000000000e+00 0.0000000000000000e+00 0.0000000000000000e+00  -9.9540349673204497e+07 -6.8650832111722007e+06 0.0000000000000000e+00 -6.8650832111722007e+06 1.5840149799540774e+06 0.0000000000000000e+00 0.0000000000000000e+00 0.0000000000000000e+00 0.0000000000000000e+00  3.3124389511552110e+05 1.7165338459864208e+06 0.0000000000000000e+00 1.7165338459864210e+06 -1.5507924412485842e+07 0.0000000000000000e+00 0.0000000000000000e+00 0.0000000000000000e+00 0.0000000000000000e+00  -8.3246086618395701e+07 -4.0628010085617006e+06 0.0000000000000000e+00 -4.0628010085617029e+06 6.8125739190210623e+05 0.0000000000000000e+00 0.0000000000000000e+00 0.0000000000000000e+00 0.0000000000000000e+00  -1.2743264563633830e+06 8.1600428649122233e+05 0.0000000000000000e+00 8.1600428649122245e+05 -1.7904544271153320e+07 0.0000000000000000e+00 0.0000000000000000e+00 0.0000000000000000e+00 0.0000000000000000e+00  -6.7427109267280847e+07 -4.1292087550830157e+06 0.0000000000000000e+00 -4.1292087550830124e+06 1.8586456864380633e+05 0.0000000000000000e+00 0.0000000000000000e+00 0.0000000000000000e+00 0.0000000000000000e+00  -2.7740517195351650e+06 -2.5797398122551924e+05 0.0000000000000000e+00 -2.5797398122551953e+05 -1.8884866812187847e+07 0.0000000000000000e+00 0.0000000000000000e+00 0.0000000000000000e+00 0.0000000000000000e+00  -5.7036999570730843e+07 -1.4321026068528180e+06 0.0000000000000000e+00 -1.4321026068528192e+06 2.3927503649236960e+05 0.0000000000000000e+00 0.0000000000000000e+00 0.0000000000000000e+00 0.0000000000000000e+00  -7.8780731582101132e+05 1.6161579800549117e+06 0.0000000000000000e+00 1.6161579800549122e+06 -2.2095422718961868e+07 0.0000000000000000e+00 0.0000000000000000e+00 0.0000000000000000e+00 0.0000000000000000e+00  -4.5172038957938582e+07 -1.0259162070306780e+04 0.0000000000000000e+00 -1.0259162070308768e+04 -2.8610402359574538e+05 0.0000000000000000e+00 0.0000000000000000e+00 0.0000000000000000e+00 0.0000000000000000e+00  -2.3027577198045822e+06 3.1611775096567296e+06 0.0000000000000000e+00 3.1611775096567320e+06 -2.3751027797804076e+07 0.0000000000000000e+00 0.0000000000000000e+00 0.0000000000000000e+00 0.0000000000000000e+00  -3.5643057715233311e+07 -7.9378338783127791e+05 0.0000000000000000e+00 -7.9378338783127943e+05 5.7817748383557843e+05 0.0000000000000000e+00 0.0000000000000000e+00 0.0000000000000000e+00 0.0000000000000000e+00  -4.7157168792400472e+06 4.0874561952829026e+06 0.0000000000000000e+00 4.0874561952828998e+06 -2.3294455427500948e+07 0.0000000000000000e+00 0.0000000000000000e+00 0.0000000000000000e+00 0.0000000000000000e+00  -2.7193146183058050e+07 -7.9458106822706549e+05 0.0000000000000000e+00 -7.9458106822706515e+05 -2.0732930202986699e+05 0.0000000000000000e+00 0.0000000000000000e+00 0.0000000000000000e+00 0.0000000000000000e+00  -4.4294285216452098e+06 5.9516506264914330e+06 0.0000000000000000e+00 5.9516506264914358e+06 -2.3319785367557120e+07 0.0000000000000000e+00 0.0000000000000000e+00 0.0000000000000000e+00 0.0000000000000000e+00  -2.1488263133020326e+07 -1.1439269681948272e+06 0.0000000000000000e+00 -1.1439269681948281e+06 3.6540185057752198e+04 0.0000000000000000e+00 0.0000000000000000e+00 0.0000000000000000e+00 0.0000000000000000e+00  8.5171922534517501e+05 6.3665531146132797e+06 0.0000000000000000e+00 6.3665531146132778e+06 -3.3498555421974130e+07 0.0000000000000000e+00 0.0000000000000000e+00 0.0000000000000000e+00 0.0000000000000000e+00  -1.5202791562284462e+07 -1.8888509508138273e+06 0.0000000000000000e+00 -1.8888509508138278e+06 2.6896863836254267e+05 0.0000000000000000e+00 0.0000000000000000e+00 0.0000000000000000e+00 0.0000000000000000e+00  -4.1142128858544766e+06 5.7763208988449685e+06 0.0000000000000000e+00 5.7763208988449667e+06 -2.5538878221622135e+07 0.0000000000000000e+00 0.0000000000000000e+00 0.0000000000000000e+00 0.0000000000000000e+00  -1.2853828930596489e+07 -2.5166388551817047e+06 0.0000000000000000e+00 -2.5166388551817052e+06 -7.2535542080634134e+05 0.0000000000000000e+00 0.0000000000000000e+00 0.0000000000000000e+00 0.0000000000000000e+00  -2.1373434683756651e+06 2.8119690717335441e+06 0.0000000000000000e+00 2.8119690717335450e+06 -3.4025231676776610e+07 0.0000000000000000e+00 0.0000000000000000e+00 0.0000000000000000e+00 0.0000000000000000e+00  -9.3811498136816695e+06 -2.8023024565761415e+06 0.0000000000000000e+00 -2.8023024565761406e+06 -5.0395162799211970e+05 0.0000000000000000e+00 0.0000000000000000e+00 0.0000000000000000e+00 0.0000000000000000e+00  1.9319773537561926e+06 8.5528519214919861e+06 0.0000000000000000e+00 8.5528519214919861e+06 -2.2972974593236916e+07 0.0000000000000000e+00 0.0000000000000000e+00 0.0000000000000000e+00 0.0000000000000000e+00  -7.7593338248960376e+06 -3.4114812760150060e+06 0.0000000000000000e+00 -3.4114812760150069e+06 -1.3630222477107216e+06 0.0000000000000000e+00 0.0000000000000000e+00 0.0000000000000000e+00 0.0000000000000000e+00  -6.2873180954524213e+06 9.1060405619534906e+06 0.0000000000000000e+00 9.1060405619534925e+06 -2.5229509040120259e+07 0.0000000000000000e+00 0.0000000000000000e+00 0.0000000000000000e+00 0.0000000000000000e+00  -6.2694237544175759e+06 -4.3002554806844462e+06 0.0000000000000000e+00 -4.3002554806844452e+06 -2.6135291998587870e+06 0.0000000000000000e+00 0.0000000000000000e+00 0.0000000000000000e+00 0.0000000000000000e+00  -1.5227366590137174e+06 8.7635950248972531e+06 0.0000000000000000e+00 8.7635950248972531e+06 -1.8374486364821725e+07 0.0000000000000000e+00 0.0000000000000000e+00 0.0000000000000000e+00 0.0000000000000000e+00  -6.0917710731244180e+06 -4.6039190908458978e+06 0.0000000000000000e+00 -4.6039190908458969e+06 -3.3693415287341480e+06 0.0000000000000000e+00 0.0000000000000000e+00 0.0000000000000000e+00 0.0000000000000000e+00  -5.0622413021580251e+06 1.4294020394678479e+07 0.0000000000000000e+00 1.4294020394678479e+07 -2.3442668463098526e+07 0.0000000000000000e+00 0.0000000000000000e+00 0.0000000000000000e+00 0.0000000000000000e+00  -5.1159887642366271e+06 -5.4959677554918965e+06 0.0000000000000000e+00 -5.4959677554918947e+06 -5.2347708678718293e+06 0.0000000000000000e+00 0.0000000000000000e+00 0.0000000000000000e+00 0.0000000000000000e+00  -4.7141131095894398e+06 1.0603685238661245e+07 0.0000000000000000e+00 1.0603685238661245e+07 -1.5614328473102076e+07 0.0000000000000000e+00 0.0000000000000000e+00 0.0000000000000000e+00 0.0000000000000000e+00  -4.9244540222371453e+06 -6.1334315064175306e+06 0.0000000000000000e+00 -6.1334315064175306e+06 -7.4721737631021151e+06 0.0000000000000000e+00 0.0000000000000000e+00 0.0000000000000000e+00 0.0000000000000000e+00  -1.4551582472133605e+07 1.3687757530961104e+07 0.0000000000000000e+00 1.3687757530961109e+07 -1.6534846702352991e+07 0.0000000000000000e+00 0.0000000000000000e+00 0.0000000000000000e+00 0.0000000000000000e+00  -5.7680230284880353e+06 -8.3794775223450148e+06 0.0000000000000000e+00 -8.3794775223450158e+06 -1.1230344479932684e+07 0.0000000000000000e+00 0.0000000000000000e+00 0.0000000000000000e+00 0.0000000000000000e+00  -1.7745699202548768e+07 1.3634926774948064e+07 0.0000000000000000e+00 1.3634926774948057e+07 -1.3201517277243357e+07 0.0000000000000000e+00 0.0000000000000000e+00 0.0000000000000000e+00 0.0000000000000000e+00  -5.9691972586558703e+06 -9.4040270890285578e+06 0.0000000000000000e+00 -9.4040270890285615e+06 -1.5060772261171423e+07 0.0000000000000000e+00 0.0000000000000000e+00 0.0000000000000000e+00 0.0000000000000000e+00  -2.0391996507566046e+07 1.4700315348302143e+07 0.0000000000000000e+00 1.4700315348302139e+07 -1.2030386252587615e+07 0.0000000000000000e+00 0.0000000000000000e+00 0.0000000000000000e+00 0.0000000000000000e+00  -6.6257352629871294e+06 -1.1490939398552297e+07 0.0000000000000000e+00 -1.1490939398552297e+07 -1.9138047951527923e+07 0.0000000000000000e+00 0.0000000000000000e+00 0.0000000000000000e+00 0.0000000000000000e+00  -2.5118352723757576e+07 1.2696124781153621e+07 0.0000000000000000e+00 1.2696124781153621e+07 -6.6071661023808056e+06 0.0000000000000000e+00 0.0000000000000000e+00 0.0000000000000000e+00 0.0000000000000000e+00  -8.0324785866999635e+06 -1.3963358073897641e+07 0.0000000000000000e+00 -1.3963358073897624e+07 -2.4610809016965885e+07 0.0000000000000000e+00 0.0000000000000000e+00 0.0000000000000000e+00 0.0000000000000000e+00  -2.5855762632569823e+07 9.9342693370651919e+06 0.0000000000000000e+00 9.9342693370651845e+06 -3.9463178869507276e+06 0.0000000000000000e+00 0.0000000000000000e+00 0.0000000000000000e+00 0.0000000000000000e+00  -9.6461528301839735e+06 -1.6586023991395421e+07 0.0000000000000000e+00 -1.6586023991395440e+07 -2.8846542740678802e+07 0.0000000000000000e+00 0.0000000000000000e+00 0.0000000000000000e+00 0.0000000000000000e+00  -2.2431623953029443e+07 5.5600611930687837e+06 0.0000000000000000e+00 5.5600611930687819e+06 -2.1070658150473260e+06 0.0000000000000000e+00 0.0000000000000000e+00 0.0000000000000000e+00 0.0000000000000000e+00  -1.1934535619485665e+07 -1.9779499428743158e+07 0.0000000000000000e+00 -1.9779499428743158e+07 -3.3391488564106636e+07 0.0000000000000000e+00 0.0000000000000000e+00 0.0000000000000000e+00 0.0000000000000000e+00  -1.9737059979127653e+07 2.0446567931533777e+06 0.0000000000000000e+00 2.0446567931533768e+06 -8.7619241987232759e+05 0.0000000000000000e+00 0.0000000000000000e+00 0.0000000000000000e+00 0.0000000000000000e+00  -1.4388216769468388e+07 -2.2570056790555336e+07 0.0000000000000000e+00 -2.2570056790555332e+07 -3.61220779469