<?xml version="1.0"?>
<VTKFile type="UnstructuredGrid"  version="0.1"  >
<UnstructuredGrid>
<Piece  NumberOfPoints="11925" NumberOfCells="22284">
<Points>
<DataArray  type="Float64"  NumberOfComponents="3"  format="ascii">0.009106770432969287 0.0084582340381214 0  0.009141919339108864 0.008441218550270694 0  0.009203598740601114 0.008393845335784609 0  0.009248431083532146 0.008349860421943302 0  0.009296575788899144 0.008291876136114247 0  0.00934265184641383 0.008225659869648794 0  0.009393578065451109 0.008122249398276498 0  0.009424875532860347 0.008002512562814071 0  0.009449530416649156 0.007942856790653622 0  0.009467776063564975 0.007776381909547738 0  0.009496347239411999 0.007611274617662952 0  0.009499145002853376 0.007525125628140703 0  0.009496347239411999 0.007464102266759158 0  0.009467776063564975 0.007298994974874372 0  0.009449530416649156 0.007132520093768488 0  0.009424875532860347 0.00707286432160804 0  0.009393578065451109 0.006953127486145613 0  0.00934265184641383 0.006849717014773317 0  0.009296575788899144 0.006783500748307864 0  0.009248431083532146 0.006725516462478808 0  0.009203598740601114 0.006681531548637502 0  0.009141919338909114 0.006634158334151417 0  0.009106770432902705 0.006617142873950686 0  0.009057788944723618 0.006598443490950575 0  0.009035429646949504 0.006603784476015589 0  0.009003273865471631 0.006637537337391888 0  0.008992706568800921 0.006658843167954558 0  0.008972489432160457 0.006721105527638192 0  0.008943689764150664 0.006775124298212487 0  0.008927575292032289 0.006821608040201005 0  0.008858421521121648 0.006940476521074617 0  0.008818283204798657 0.006994423939357116 0  0.008742251619928807 0.007081030046222233 0  0.008689386069399707 0.007127977288024682 0  0.00865169762718865 0.007155237400276061 0  0.008598593426450953 0.007187519986677493 0  0.008503029036046951 0.007258952469496642 0  0.008441469295249169 0.007286330637148408 0  0.008404275359722921 0.007310151607682054 0  0.008340789248380142 0.007336567990292792 0  0.008278894472361808 0.007370606062816746 0  0.008227853892241668 0.007385785667750049 0  0.008178391959798996 0.007406751625964 0  0.008013447788775593 0.00743563391875675 0  0.007952261306532662 0.007456731513377061 0  0.007902010050251256 0.007466988976395871 0  0.007550251256281408 0.00748107426496475 0  0.007173366834170854 0.007466988976395871 0  0.007123115577889447 0.007456731513377061 0  0.007061929095646517 0.00743563391875675 0  0.006896984924623115 0.007406751625964 0  0.006771663215364072 0.00735919225436318 0  0.006734587636041969 0.007336567990292792 0  0.006695979899497487 0.00732259899495977 0  0.006633907589172942 0.007286330637148408 0  0.00657234784837516 0.007258952469496642 0  0.006476783457971159 0.007187519986677493 0  0.006385990815022405 0.007127977288024682 0  0.006333125264493302 0.007081030046222233 0  0.006244530865553103 0.006978164963285671 0  0.006205048905315104 0.00692211055276382 0  0.006159330552520386 0.006845248264868939 0  0.006131687120271447 0.006775124298212487 0  0.006102887452261655 0.006721105527638192 0  0.006082670315621189 0.006658843167954558 0  0.006072103018950479 0.006637537337391888 0  0.006039947237472605 0.006603784476015589 0  0.006017587939698492 0.006598443490950575 0  0.005933457545512996 0.006634158334151417 0  0.005871778143820997 0.006681531548637502 0  0.005826945800889965 0.006725516462478808 0  0.005778801095522966 0.006783500748307864 0  0.005732725038008282 0.006849717014773317 0  0.005681798818971001 0.006953127486145613 0  0.005650501351561765 0.00707286432160804 0  0.005625846467772956 0.007132520093768488 0  0.005607600820857134 0.007298994974874372 0  0.005577737985543962 0.00747666508082951 0  0.005579029645010113 0.007611274617662952 0  0.005607600820857134 0.007776381909547738 0  0.005625846467772956 0.007942856790653622 0  0.005650501351561765 0.008002512562814071 0  0.005676707781126685 0.008109686584206147 0  0.005732725038008282 0.008225659869648794 0  0.005778801095522966 0.008291876136114247 0  0.00583916892901236 0.008362423236013654 0  0.005871778143820997 0.008393845335784609 0  0.005933457545313248 0.008441218550270694 0  0.005968606451452823 0.0084582340381214 0  0.006017587939698492 0.008476935349731016 0  0.006039947427631444 0.008471594355449344 0  0.006059540775356642 0.008452005488667369 0  0.006077635869842498 0.008429097268812035 0  0.006102887452261655 0.00835427135678392 0  0.006131687120271447 0.008300252586209624 0  0.006159330552520386 0.008230128619553171 0  0.006216955363300465 0.008134900363347493 0  0.006257093679623455 0.008080952945064994 0  0.006333125264493302 0.007994346838199877 0  0.006370813706704358 0.007959962410467781 0  0.00642367925723346 0.007920139484146049 0  0.006476783457971159 0.007887856897744617 0  0.00657234784837516 0.007816424414925468 0  0.006633907589172942 0.007789046247273704 0  0.006671101524699189 0.007765225276740057 0  0.006734587636041969 0.007738808894129319 0  0.006796482412060302 0.007704770821605365 0  0.00692211055276382 0.00766245157494053 0  0.007061929095646517 0.007639742965665362 0  0.007123115577889447 0.007618645371045051 0  0.007173366834170854 0.00760838790802624 0  0.007525125628140703 0.00759430261945736 0  0.007902010050251256 0.00760838790802624 0  0.007952261306532662 0.007618645371045051 0  0.008013447788775593 0.007639742965665362 0  0.00815326633165829 0.00766245157494053 0  0.008278894472361808 0.007704770821605365 0  0.008340789248380142 0.007738808894129319 0  0.008404275359722921 0.007765225276740057 0  0.008441469295249169 0.007789046247273704 0  0.008503029036046951 0.007816424414925468 0  0.008598593426450953 0.007887856897744617 0  0.00865169762718865 0.007920139484146049 0  0.008704563177717754 0.007959962410467781 0  0.008742251619928807 0.007994346838199877 0  0.008818283204798657 0.008080952945064994 0  0.008858421521121648 0.008134900363347493 0  0.008916046331901725 0.008230128619553171 0  0.008943689764150664 0.008300252586209624 0  0.008972489432160457 0.00835427135678392 0  0.008997741014579612 0.008429097268812035 0  0.009015836109065469 0.008452005488667369 0  0.009035429456790667 0.008471594355449344 0  0.009057788944723618 0.008476935349731016 0  0.000584560956065443 0.0006566731908302978 0  0.0004648241206030151 0.0006253757234210605 0  0.0006879714274377391 0.0007075994098675775 0  0.0004051683484425679 0.0006007208396322515 0  0.0007541876939031931 0.0007536754673822622 0  0.0002386934673366834 0.0005824751927164302 0  0.0008121719797322475 0.0008018201727492608 0  7.895734593675217e-05 0.0005538767054284305 0  0.000856156893573553 0.0008466525156802934 0  0 0.0005480494466900812 0  0.0009035301080596382 0.0009083319171725436 0  0 0 0  0.000939246867973806 0.0009924623115577891 0  0.01 0 0  0.0009339058736921331 0.001014821772831462 0  0.01 0.0005571664569146784 0  0.0008914087205285403 0.001052510215042517 0  0.009937185929648241 0.0005602048678154705 0  0.0008165829145728644 0.00107776182261448 0  0.009811557788944724 0.0005824755727250804 0  0.0007625641439985681 0.001106561492130742 0  0.00964508290783884 0.0006007208396322515 0  0.0006924401773421158 0.001134204924379682 0  0.009585427135678391 0.0006253757234210605 0  0.000597211921136439 0.001191829735159762 0  0.009478253114286317 0.0006515821529859823 0  0.0005055760606428836 0.00126320124586456 0  0.00937484264291402 0.0007001169347433132 0  0.0004537270030180498 0.001310933582424631 0  0.009296063562378215 0.0007536754673822622 0  0.0004097111541863734 0.001360865186881701 0  0.00923807927654916 0.0008018201727492608 0  0.0003501684555335619 0.001451657829830455 0  0.009194094362707853 0.0008466525156802934 0  0.0002787359727144142 0.001547222220234457 0  0.009146721148221768 0.0009083319171725436 0  0.0002513578050626486 0.001608781961032239 0  0.0091110043883076 0.0009924623115577891 0  0.0002275368345290006 0.001645975896558485 0  0.009116345382589274 0.001014821785907898 0  0.0002011204519182638 0.001709462007901265 0  0.009158842483081762 0.001052510228118953 0  0.0001670823793943093 0.001771356783919598 0  0.009233668341708544 0.001077761824120951 0  0.0001247631327294741 0.001896984924623115 0  0.009287687112282839 0.001106561492130742 0  0.0001020545234543062 0.002036803467505815 0  0.009357811078939291 0.001134204924379682 0  8.096507571907495e-05 0.002097989949748744 0  0.009453039335144969 0.001191829735159762 0  7.071342713566267e-05 0.002148241206030151 0  0.009544675195638523 0.00126320124586456 0  5.669507456120024e-05 0.0025 0  0.009596524253263357 0.001310933582424631 0  7.071342713566267e-05 0.002876884422110553 0  0.009640540102095033 0.001360865186881701 0  8.096507571907495e-05 0.00292713567839196 0  0.009700082800747845 0.001451657829830455 0  0.0001020545234543062 0.002988322160634889 0  0.009771515283566994 0.001547222220234457 0  0.0001247631327294741 0.003128140703517588 0  0.009798893451218758 0.001608781961032239 0  0.0001670823793943093 0.003253768844221106 0  0.009822714421752407 0.001645975896558485 0  0.0002011204519182638 0.003315663620239438 0  0.009849130804363143 0.001709462007901265 0  0.0002275368345290006 0.003379149731582219 0  0.009883168876887099 0.001771356783919598 0  0.0002513578050626486 0.003416343667108464 0  0.009925488123551932 0.001896984924623115 0  0.0002787359727144142 0.003477903407906247 0  0.009948196732827102 0.002036803467505815 0  0.0003501684555335619 0.003573467798310248 0  0.009969286180562333 0.002097989949748744 0  0.0004097111541863734 0.003664260441259002 0  0.009979537829145744 0.002148241206030151 0  0.0004537270030180498 0.003714192045716073 0  0.009993556181720207 0.0025 0  0.0005055760606428836 0.003761924382276144 0  0.009979537829145744 0.002876884422110553 0  0.000597211921136439 0.003833295892980942 0  0.009969286180562333 0.00292713567839196 0  0.0006924401773421158 0.003890920703761021 0  0.009948196732827102 0.002988322160634889 0  0.0007625641439985681 0.003918564136009961 0  0.009925488123551932 0.0031281407035175
[...]
<PointData  Tensors="$\sigma$"> 
<DataArray  type="Float64"  Name="$\sigma$"  NumberOfComponents="9" format="ascii">3.5354607905709565e+07 -1.7075040749447193e+07 0.0000000000000000e+00 -1.7075040749447193e+07 9.3739093167454824e+06 0.0000000000000000e+00 0.0000000000000000e+00 0.0000000000000000e+00 0.0000000000000000e+00  3.5985185740676664e+07 -2.5330373039930362e+07 0.0000000000000000e+00 -2.5330373039930336e+07 1.9663267804397438e+07 0.0000000000000000e+00 0.0000000000000000e+00 0.0000000000000000e+00 0.0000000000000000e+00  3.8403377995012321e+07 -3.3607403709957041e+07 0.0000000000000000e+00 -3.3607403709957048e+07 3.0524505442876652e+07 0.0000000000000000e+00 0.0000000000000000e+00 0.0000000000000000e+00 0.0000000000000000e+00  3.6966446408592440e+07 -3.9820763084434904e+07 0.0000000000000000e+00 -3.9820763084434904e+07 4.4514155503143281e+07 0.0000000000000000e+00 0.0000000000000000e+00 0.0000000000000000e+00 0.0000000000000000e+00  3.0649901663966130e+07 -3.8372981999605931e+07 0.0000000000000000e+00 -3.8372981999605931e+07 5.6279490604845889e+07 0.0000000000000000e+00 0.0000000000000000e+00 0.0000000000000000e+00 0.0000000000000000e+00  2.5740015387115758e+07 -4.4474669628039874e+07 0.0000000000000000e+00 -4.4474669628039867e+07 7.8470979092268556e+07 0.0000000000000000e+00 0.0000000000000000e+00 0.0000000000000000e+00 0.0000000000000000e+00  1.4472004975883983e+07 -3.1461523181433875e+07 0.0000000000000000e+00 -3.1461523181433883e+07 8.4021363513274267e+07 0.0000000000000000e+00 0.0000000000000000e+00 0.0000000000000000e+00 0.0000000000000000e+00  6.2332330900595644e+06 -2.7648007724735502e+07 0.0000000000000000e+00 -2.7648007724735502e+07 9.8293158021464765e+07 0.0000000000000000e+00 0.0000000000000000e+00 0.0000000000000000e+00 0.0000000000000000e+00  5.5752500767543716e+06 -2.2535795392242342e+07 0.0000000000000000e+00 -2.2535795392242342e+07 1.0270574324846523e+08 0.0000000000000000e+00 0.0000000000000000e+00 0.0000000000000000e+00 0.0000000000000000e+00  1.3472944760655407e+06 -1.3200235252097681e+07 0.0000000000000000e+00 -1.3200235252097683e+07 9.2586062558971465e+07 0.0000000000000000e+00 0.0000000000000000e+00 0.0000000000000000e+00 0.0000000000000000e+00  5.3984825725167133e+06 -1.2257801215883981e+07 0.0000000000000000e+00 -1.2257801215883976e+07 1.0202202071688320e+08 0.0000000000000000e+00 0.0000000000000000e+00 0.0000000000000000e+00 0.0000000000000000e+00  3.4063795123803024e+06 -2.6132292323316599e+05 0.0000000000000000e+00 -2.6132292323316634e+05 1.2827658931832136e+08 0.0000000000000000e+00 0.0000000000000000e+00 0.0000000000000000e+00 0.0000000000000000e+00  1.2158465895311115e+06 8.9613699368508384e+06 0.0000000000000000e+00 8.9613699368508421e+06 9.7878428168737620e+07 0.0000000000000000e+00 0.0000000000000000e+00 0.0000000000000000e+00 0.0000000000000000e+00  -3.4869716238638101e+05 1.0127620366367647e+07 0.0000000000000000e+00 1.0127620366367640e+07 8.0438249322564319e+07 0.0000000000000000e+00 0.0000000000000000e+00 0.0000000000000000e+00 0.0000000000000000e+00  4.3366561662415750e+06 1.5621213086375661e+07 0.0000000000000000e+00 1.5621213086375676e+07 8.2818468951238543e+07 0.0000000000000000e+00 0.0000000000000000e+00 0.0000000000000000e+00 0.0000000000000000e+00  5.6066700707266713e+06 2.1276666867268234e+07 0.0000000000000000e+00 2.1276666867268220e+07 7.4393680638759300e+07 0.0000000000000000e+00 0.0000000000000000e+00 0.0000000000000000e+00 0.0000000000000000e+00  9.0837638822274320e+06 2.1880238735181514e+07 0.0000000000000000e+00 2.1880238735181510e+07 6.1697838002515092e+07 0.0000000000000000e+00 0.0000000000000000e+00 0.0000000000000000e+00 0.0000000000000000e+00  1.5514764697448375e+07 2.7378312723506249e+07 0.0000000000000000e+00 2.7378312723506231e+07 4.9258909691173732e+07 0.0000000000000000e+00 0.0000000000000000e+00 0.0000000000000000e+00 0.0000000000000000e+00  1.4432811412183212e+07 1.9640977524728451e+07 0.0000000000000000e+00 1.9640977524728451e+07 3.1476601970059119e+07 0.0000000000000000e+00 0.0000000000000000e+00 0.0000000000000000e+00 0.0000000000000000e+00  1.6153588978709577e+07 1.7585168083024014e+07 0.0000000000000000e+00 1.7585168083024014e+07 2.0950937886003278e+07 0.0000000000000000e+00 0.0000000000000000e+00 0.0000000000000000e+00 0.0000000000000000e+00  9.6454086056298967e+06 9.4611355214995816e+06 0.0000000000000000e+00 9.4611355214995760e+06 9.4364688724103700e+06 0.0000000000000000e+00 0.0000000000000000e+00 0.0000000000000000e+00 0.0000000000000000e+00  1.7557790227165408e+05 1.9503762228829770e+06 0.0000000000000000e+00 1.9503762228829765e+06 2.2952064319134359e+06 0.0000000000000000e+00 0.0000000000000000e+00 0.0000000000000000e+00 0.0000000000000000e+00  -1.5821420300280586e+07 -9.4078553429110553e+06 0.0000000000000000e+00 -9.4078553429110516e+06 5.7912700689758616e+05 0.0000000000000000e+00 0.0000000000000000e+00 0.0000000000000000e+00 0.0000000000000000e+00  -8.3646286997011214e+07 4.1043562351864139e+06 0.0000000000000000e+00 4.1043562351864185e+06 -6.1861602902405690e+06 0.0000000000000000e+00 0.0000000000000000e+00 0.0000000000000000e+00 0.0000000000000000e+00  -1.0863116380735201e+08 6.1932813032492347e+07 0.0000000000000000e+00 6.1932813032492340e+07 -4.5817415830866650e+07 0.0000000000000000e+00 0.0000000000000000e+00 0.0000000000000000e+00 0.0000000000000000e+00  -4.7933400816020183e+07 6.7141487805939734e+07 0.0000000000000000e+00 6.7141487805939734e+07 -9.7816896571887404e+07 0.0000000000000000e+00 0.0000000000000000e+00 0.0000000000000000e+00 0.0000000000000000e+00  -1.8100052432038851e+07 3.8351920780329950e+07 0.0000000000000000e+00 3.8351920780329950e+07 -9.4497929527589455e+07 0.0000000000000000e+00 0.0000000000000000e+00 0.0000000000000000e+00 0.0000000000000000e+00  -1.2294819385510627e+07 3.0282795602693804e+07 0.0000000000000000e+00 3.0282795602693804e+07 -6.9379886763470948e+07 0.0000000000000000e+00 0.0000000000000000e+00 0.0000000000000000e+00 0.0000000000000000e+00  -1.3328391411211753e+07 3.0002390660373781e+07 0.0000000000000000e+00 3.0002390660373781e+07 -6.7531789179024786e+07 0.0000000000000000e+00 0.0000000000000000e+00 0.0000000000000000e+00 0.0000000000000000e+00  -1.3858015192766856e+07 3.1214051058825430e+07 0.0000000000000000e+00 3.1214051058825430e+07 -5.8556334980502918e+07 0.0000000000000000e+00 0.0000000000000000e+00 0.0000000000000000e+00 0.0000000000000000e+00  -1.9542895849770531e+07 3.2615002754843310e+07 0.0000000000000000e+00 3.2615002754843310e+07 -5.1003429098306194e+07 0.0000000000000000e+00 0.0000000000000000e+00 0.0000000000000000e+00 0.0000000000000000e+00  -2.8970274137347788e+07 3.6388399675496243e+07 0.0000000000000000e+00 3.6388399675496235e+07 -4.1543391080646858e+07 0.0000000000000000e+00 0.0000000000000000e+00 0.0000000000000000e+00 0.0000000000000000e+00  -3.2507240417452436e+07 3.5630251435983904e+07 0.0000000000000000e+00 3.5630251435983911e+07 -3.5435481141256548e+07 0.0000000000000000e+00 0.0000000000000000e+00 0.0000000000000000e+00 0.0000000000000000e+00  -4.0090615473867096e+07 3.3023859035810910e+07 0.0000000000000000e+00 3.3023859035810906e+07 -2.5355379323142342e+07 0.0000000000000000e+00 0.0000000000000000e+00 0.0000000000000000e+00 0.0000000000000000e+00  -5.4002443469685763e+07 3.8205503465255097e+07 0.0000000000000000e+00 3.8205503465255104e+07 -2.4297132453172669e+07 0.0000000000000000e+00 0.0000000000000000e+00 0.0000000000000000e+00 0.0000000000000000e+00  -5.6749361298316695e+07 3.9433163871805653e+07 0.0000000000000000e+00 3.9433163871805653e+07 -2.8503797119223308e+07 0.0000000000000000e+00 0.0000000000000000e+00 0.0000000000000000e+00 0.0000000000000000e+00  -5.3676006701488197e+07 3.5091258466969095e+07 0.0000000000000000e+00 3.5091258466969095e+07 -1.9982248048801322e+07 0.0000000000000000e+00 0.0000000000000000e+00 0.0000000000000000e+00 0.0000000000000000e+00  -6.1916769741048470e+07 3.1992838350040287e+07 0.0000000000000000e+00 3.1992838350040279e+07 -1.6348012245612288e+07 0.0000000000000000e+00 0.0000000000000000e+00 0.0000000000000000e+00 0.0000000000000000e+00  -6.5321689526113704e+07 3.2034403684290804e+07 0.0000000000000000e+00 3.2034403684290789e+07 -1.5130811714953976e+07 0.0000000000000000e+00 0.0000000000000000e+00 0.0000000000000000e+00 0.0000000000000000e+00  -6.2121244193868972e+07 2.9614137834832862e+07 0.0000000000000000e+00 2.9614137834832866e+07 -1.3228810387674881e+07 0.0000000000000000e+00 0.0000000000000000e+00 0.0000000000000000e+00 0.0000000000000000e+00  -6.0763144394776687e+07 2.4873831495065004e+07 0.0000000000000000e+00 2.4873831495065015e+07 -1.1457334066270139e+07 0.0000000000000000e+00 0.0000000000000000e+00 0.0000000000000000e+00 0.0000000000000000e+00  -5.7188384243412457e+07 2.3946872069690175e+07 0.0000000000000000e+00 2.3946872069690146e+07 -6.8532246699086381e+06 0.0000000000000000e+00 0.0000000000000000e+00 0.0000000000000000e+00 0.0000000000000000e+00  -6.7037935936595820e+07 1.5471233125526676e+07 0.0000000000000000e+00 1.5471233125526687e+07 -4.1723450189064192e+06 0.0000000000000000e+00 0.0000000000000000e+00 0.0000000000000000e+00 0.0000000000000000e+00  -7.3231904949235037e+07 1.3455155574745428e+07 0.0000000000000000e+00 1.3455155574745439e+07 -2.0189397315029118e+06 0.0000000000000000e+00 0.0000000000000000e+00 0.0000000000000000e+00 0.0000000000000000e+00  -7.1555995235151842e+07 2.1614107840087116e+07 0.0000000000000000e+00 2.1614107840087116e+07 -8.6961839572377596e+06 0.0000000000000000e+00 0.0000000000000000e+00 0.0000000000000000e+00 0.0000000000000000e+00  -7.2493276326894715e+07 9.1872406319588851e+06 0.0000000000000000e+00 9.1872406319588851e+06 1.1761107403195465e+07 0.0000000000000000e+00 0.0000000000000000e+00 0.0000000000000000e+00 0.0000000000000000e+00  -6.3574770806070976e+07 -1.5505016909364334e+05 0.0000000000000000e+00 -1.5505016909364532e+05 1.6673178951887332e+06 0.0000000000000000e+00 0.0000000000000000e+00 0.0000000000000000e+00 0.0000000000000000e+00  -6.4209910240270048e+07 -9.3209406914246511e+06 0.0000000000000000e+00 -9.3209406914246436e+06 1.2111710651591955e+07 0.0000000000000000e+00 0.0000000000000000e+00 0.0000000000000000e+00 0.0000000000000000e+00  -6.1560007094190076e+07 -1.8290579869899299e+07 0.0000000000000000e+00 -1.8290579869899310e+07 -6.8770182805625051e+06 0.0000000000000000e+00 0.0000000000000000e+00 0.0000000000000000e+00 0.0000000000000000e+00  -6.2143794704131320e+07 -1.1213663874226704e+07 0.0000000000000000e+00 -1.1213663874226697e+07 -1.9007273131247454e+06 0.0000000000000000e+00 0.0000000000000000e+00 0.0000000000000000e+00 0.0000000000000000e+00  -5.0907212230617113e+07 -1.4222079214952214e+07 0.0000000000000000e+00 -1.4222079214952229e+07 -2.7175998015304389e+06 0.0000000000000000e+00 0.0000000000000000e+00 0.0000000000000000e+00 0.0000000000000000e+00  -4.3748451990635581e+07 -2.0168557484644938e+07 0.0000000000000000e+00 -2.0168557484644942e+07 -9.0030263592806160e+06 0.0000000000000000e+00 0.0000000000000000e+00 0.0000000000000000e+00 0.0000000000000000e+00  -4.9024953618630059e+07 -2.4283062852060184e+07 0.0000000000000000e+00 -2.4283062852060176e+07 -1.1558919847987065e+07 0.0000000000000000e+00 0.0000000000000000e+00 0.0000000000000000e+00 0.0000000000000000e+00  -4.7458023444323361e+07 -2.3761020784811310e+07 0.0000000000000000e+00 -2.3761020784811314e+07 -1.2187624379891910e+07 0.0000000000000000e+00 0.0000000000000000e+00 0.0000000000000000e+00 0.0000000000000000e+00  -4.4470803779992349e+07 -2.3581717502345905e+07 0.0000000000000000e+00 -2.3581717502345894e+07 -1.0968964323868584e+07 0.0000000000000000e+00 0.0000000000000000e+00 0.0000000000000000e+00 0.0000000000000000e+00  -3.9638412892575875e+07 -2.5736717283578854e+07 0.0000000000000000e+00 -2.5736717283578854e+07 -1.5807633259967165e+07 0.0000000000000000e+00 0.0000000000000000e+00 0.0000000000000000e+00 0.0000000000000000e+00  -3.6941861401511446e+07 -2.7270576359192606e+07 0.0000000000000000e+00 -2.7270576359192602e+07 -1.7847760878599901e+07 0.0000000000000000e+00 0.0000000000000000e+00 0.0000000000000000e+00 0.0000000000000000e+00  -3.3972913635408103e+07 -2.5391794042704415e+07 0.0000000000000000e+00 -2.5391794042704415e+07 -1.7808357155963454e+07 0.0000000000000000e+00 0.0000000000000000e+00 0.0000000000000000e+00 0.0000000000000000e+00  -2.1703455391925775e+07 -2.4304251018449582e+07 0.0000000000000000e+00 -2.4304251018449586e+07 -2.4023017342715517e+07 0.0000000000000000e+00 0.0000000000000000e+00 0.0000000000000000e+00 0.0000000000000000e+00  -1.9141826099112000e+07 -2.5353341424309388e+07 0.0000000000000000e+00 -2.5353341424309388e+07 -2.9986718599807840e+07 0.0000000000000000e+00 0.0000000000000000e+00 0.0000000000000000e+00 0.0000000000000000e+00  -1.3765758974967539e+07 -2.2749032915480439e+07 0.0000000000000000e+00 -2.2749032915480439e+07 -3.5505460757319979e+07 0.0000000000000000e+00 0.0000000000000000e+00 0.0000000000000000e+00 0.0000000000000000e+00  -1.0057931115368858e+07 -2.1738106779710136e+07 0.0000000000000000e+00 -2.1738106779710136e+07 -4.0626270233602062e+07 0.0000000000000000e+00 0.0000000000000000e+00 0.0000000000000000e+00 0.0000000000000000e+00  -1.0915853306638474e+07 -2.3152261537955452e+07 0.0000000000000000e+00 -2.3152261537955452e+07 -4.7927662288279153e+07 0.0000000000000000e+00 0.0000000000000000e+00 0.0000000000000000e+00 0.0000000000000000e+00  -8.0124243299291944e+06 -2.1416243769921284e+07 0.0000000000000000e+00 -2.1416243769921284e+07 -5.0324589130046204e+07 0.0000000000000000e+00 0.0000000000000000e+00 0.0000000000000000e+00 0.0000000000000000e+00  -1.2332419841899075e+07 -2.6165819348448291e+07 0.0000000000000000e+00 -2.6165819348448291e+07 -6.3291294833108433e+07 0.0000000000000000e+00 0.0000000000000000e+00 0.0000000000000000e+00 0.0000000000000000e+00  -2.6829488415222224e+07 -3.7736052672489606e+07 0.0000000000000000e+00 -3.7736052672489606e+07 -6.0245333998911053e+07 0.0000000000000000e+00 0.0000000000000000e+00 0.0000000000000000e+00 0.0000000000000000e+00  -2.0409710289035529e+07 -2.3152776021493547e+07 0.0000000000000000e+00 -2.3152776021493547e+07 -2.6198972342318714e+07 0.0000000000000000e+00 0.0000000000000000e+00 0.0000000000000000e+00 0.0000000000000000e+00  3.9046866785877295e+07 -2.2242035593408920e+07 0.0000000000000000e+00 -2.2242035593408935e+07 8.3507669085770138e+06 0.0000000000000000e+00 0.0000000000000000e+00 0.0000000000000000e+00 0.0000000000000000e+00  5.9250743012253754e+07 -3.9046203645034239e+07 0.0000000000000000e+00 -3.9046203645034231e+07 3.0658772791264419e+07 0.0000000000000000e+00 0.0000000000000000e+00 0.0000000000000000e+00 0.0000000000000000e+00  6.9240060386342362e+07 -6.2175306968764938e+07 0.0000000000000000e+00 -6.2175306968764938e+07 5.7262388326135904e+07 0.0000000000000000e+00 0.0000000000000000e+00 0.0000000000000000e+00 0.0000000000000000e+00  6.0115958782155357e+07 -6.6137363923750058e+07 0.0000000000000000e+00 -6.6137363923750058e+07 7.7674080790331438e+07 0.0000000000000000e+00 0.0000000000000000e+00 0.0000000000000000e+00 0.0000000000000000e+00  5.6006823826085918e+07 -7.3071150188110754e+07 0.0000000000000000e+00 -7.3071150188110769e+07 9.9640148654252604e+07 0.0000000000000000e+00 0.0000000000000000e+00 0.0000000000000000e+00 0.0000000000000000e+00  4.2184998568054669e+07 -7.3241279020967305e+07 0.0000000000000000e+00 -7.3241279020967305e+07 1.3462913554613054e+08 0.0000000000000000e+00 0.0000000000000000e+00 0.0000000000000000e+00 0.0000000000000000e+00  2.4226397805023387e+07 -5.2860281170594186e+07 0.0000000000000000e+00 -5.2860281170594163e+07 1.3970562940655658e+08 0.0000000000000000e+00 0.0000000000000000e+00 0.0000000000000000e+00 0.0000000000000000e+00  9.9172774537052400e+06 -4.4042063896633513e+07 0.0000000000000000e+00 -4.4042063896633498e+07 1.5897021302573496e+08 0.0000000000000000e+00 0.0000000000000000e+00 0.0000000000000000e+00 0.0000000000000000e+00  9.1711401213017441e+06 -3.5836919124823928e+07 0.0000000000000000e+00 -3.5836919124823920e+07 1.5800577504048988e+08 0.0000000000000000e+00 0.0000000000000000e+00 0.0000000000000000e+00 0.0000000000000000e+00  1.8866821706839034e+06 -2.2074241838562127e+07 0.0000000000000000e+00 -2.2074241838562127e+07 1.4389867286437353e+08 0.0000000000000000e+00 0.0000000000000000e+00 0.0000000000000000e+00 0.0000000000000000e+00  7.2510116203050995e+06 -9.5355906628698539e+06 0.0000000000000000e+00 -9.5355906628698539e+06 1.3795970814067304e+08 0.0000000000000000e+00 0.0000000000000000e+00 0.0000000000000000e+00 0.0000000000000000e+00  1.2943983393620248e+06 1.4878479843744820e+07 0.0000000000000000e+00 1.4878479843744820e+07 1.4475187601545262e+08 0.0000000000000000e+00 0.0000000000000000e+00 0.0000000000000000e+00 0.0000000000000000e+00  1.7231619684199633e+06 1.1480830445830144e+07 0.0000000000000000e+00 1.1480830445830144e+07 9.9499093805596352e+07 0.0000000000000000e+00 0.0000000000000000e+00 0.0000000000000000e+00 0.0000000000000000e+00  3.7135935447935155e+06 1.7999180955888849e+07 0.0000000000000000e+00 1.7999180955888849e+07 9.1763526788023695e+07 0.0000000000000000e+00 0.0000000000000000e+00 0.0000000000000000e+00 0.0000000000000000e+00  5.1668492988686506e+06 2.0114863123172048e+07 0.0000000000000000e+00 2.0114863123172048e+07 7.3892143118425921e+07 0.0000000000000000e+00 0.0000000000000000e+00 0.0000000000000000e+00 0.0000000000000000e+00  4.7552356183819761e+06 1.4959832928900314e+07 0.0000000000000000e+00 1.4959832928900314e+07 4.7372050370696917e+07 0.0000000000000000e+00 0.0000000000000000e+00 0.0000000000000000e+00 0.0000000000000000e+00  9.5432633803007624e+05 7.3384181276710667e+06 0.0000000000000000e+00 7.3384181276710667e+06 2.0934167264935356e+07 0.0000000000000000e+00 0.0000000000000000e+00 0.0000000000000000e+00 0.0000000000000000e+00  -8.4057940165291224e+06 -9.1764396734648142e+06 0.0000000000000000e+00 -9.1764396734648142e+06 -6.3232970330403438e+06 0.0000000000000000e+00 0.0000000000000000e+00 0.0000000000000000e+00 0.0000000000000000e+00  -2.4309462177929573e+07 -2.4642862338953897e+07 0.0000000000000000e+00 -2.4642862338953901e+07 -2.4765734938315161e+07 0.0000000000000000e+00 0.0000000000000000e+00 0.0000000000000000e+00 0.0000000000000000e+00  -5.4253398368852757e+07 -4.0620567452172130e+07 0.0000000000000000e+00 -4.0620567452172130e+07 -3.0106911789411500e+07 0.0000000000000000e+00 0.0000000000000000e+00 0.0000000000000000e+00 0.0000000000000000e+00  -9.8555183613193959e+07 -5.5808656729952976e+07 0.0000000000000000e+00 -5.5808656729952961e+07 -3.5816725365385480e+07 0.0000000000000000e+00 0.0000000000000000e+00 0.0000000000000000e+00 0.0000000000000000e+00  -1.6569259962326330e+08 -6.4093972421767600e+07 0.0000000000000000e+00 -6.4093972421767600e+07 -2.0420845929489627e+07 0.0000000000000000e+00 0.0000000000000000e+00 0.0000000000000000e+00 0.0000000000000000e+00  -3.0080122275422448e+08 -9.5562232860634141e+06 0.0000000000000000e+00 -9.5562232860634141e+06 -2.4078471643538933e+07 0.0000000000000000e+00 0.0000000000000000e+00 0.0000000000000000e+00 0.0000000000000000e+00  -2.7889678771829486e+08 1.1927665024585679e+08 0.0000000000000000e+00 1.1927665024585672e+08 -7.6575456926089033e+07 0.0000000000000000e+00 0.0000000000000000e+00 0.0000000000000000e+00 0.0000000000000000e+00  -9.3033755421942517e+07 9.6773369287697107e+07 0.0000000000000000e+00 9.6773369287697062e+07 -1.0147613699588145e+08 0.0000000000000000e+00 0.0000000000000000e+00 0.0000000000000000e+00 0.0000000000000000e+00  -2.7357198369651843e+07 3.8197565592341334e+07 0.0000000000000000e+00 3.8197565592341326e+07 -6.1101196280269980e+07 0.0000000000000000e+00 0.0000000000000000e+00 0.0000000000000000e+00 0.0000000000000000e+00  -4.4262236961433189e+06 1.5204836812649295e+07 0.0000000000000000e+00 1.5204836812649295e+07 -3.2598931483457621e+07 0.0000000000000000e+00 0.0000000000000000e+00 0.0000000000000000e+00 0.0000000000000000e+00  -4.2026010573045081e+06 8.4241407974494528e+06 0.0000000000000000e+00 8.4241407974494547e+06 -1.7458589423321079e+07 0.0000