<?xml version="1.0"?>
<VTKFile type="UnstructuredGrid"  version="0.1"  >
<UnstructuredGrid>
<Piece  NumberOfPoints="1799" NumberOfCells="3156">
<Points>
<DataArray  type="Float64"  NumberOfComponents="3"  format="ascii">1.694065894508601e-21 0.008447317744001559 0  0 0.006243487017789186 0  0 0.01 0  0.01 0.01 0  0.01 0.004739447698251261 0  0.01 0.003038811340045742 0  0.01 0 0  0 0 0  0.00972274937591714 0.00446136709 0  0.009653726258356362 0.004545183154286949 0  0.009783606631901408 0.0043734488461064 0  0.009577812281436313 0.004624366443043088 0  0.009835143529851395 0.004282096254618384 0  0.009496374895431106 0.004698536913086191 0  0.009876351429728553 0.004188097333533943 0  0.009410843899527923 0.004767474310794485 0  0.009906389591104073 0.004092339945416686 0  0.009322680015752169 0.00483112308721043 0  0.009924603388293412 0.003995788691361544 0  0.009233342881914028 0.004889592860194898 0  0.009930538269388231 0.00389945963832429 0  0.009144259222736564 0.004943154406398476 0  0.009923949134101986 0.003804393533973133 0  0.009056791952980949 0.004992231280310688 0  0.009904804916195522 0.003711628202889073 0  0.00897221094262878 0.005037387269757166 0  0.009873288272257268 0.003622170840092915 0  0.008891666132610079 0.005079310004121139 0  0.009829790396922524 0.003536970921943865 0  0.008816163631214721 0.005118791130579932 0  0.009774901102315603 0.003456894440322572 0  0.008746545347644217 0.005156703562277342 0  0.009709394413691105 0.003382700134020289 0  0.008683472631978471 0.005193976378365099 0  0.009634210041128223 0.00331501834219343 0  0.008627414292309099 0.005231568017322153 0  0.009550431186043644 0.003254333039822774 0  0.008578639252366998 0.005270438450342868 0  0.009459259228807002 0.003200967535951617 0  0.008537213999305775 0.005311521049719365 0  0.00936198591772306 0.003155074224035663 0  0.008503004854204898 0.00535569487730484 0  0.009259963738278846 0.00311662867229655 0  0.008475684980220988 0.005403758110057852 0  0.009154575183414377 0.003085428233059718 0  0.008454745928046752 0.005456403293512485 0  0.009047201669650919 0.00306109523639258 0  0.008439513408278112 0.005514195070427174 0  0.008939192849631329 0.003043084717779311 0  0.008429166878152986 0.005577550971903466 0  0.008831837058876933 0.003030696514962359 0  0.008422762438422462 0.005646725783411865 0  0.008726333603687408 0.003023091458314896 0  0.008419258457098896 0.005721799910265017 0  0.008623767548895558 0.003019311274956418 0  0.008417543272430451 0.005802672068315741 0  0.008525087599857118 0.003018301731897273 0  0.008416464279248125 0.00588905651847861 0  0.008431087594226352 0.003018938460180701 0  0.008414857671986093 0.005980484950740676 0  0.008342392027717107 0.003020054832380215 0  0.008411578104923951 0.00607631300744762 0  0.008259445936461489 0.003020471211663848 0  0.008405527535824455 0.006175731319709577 0  0.008182509349292211 0.003019024853329008 0  0.008395682542970321 0.006277780817654691 0  0.008111656409014527 0.003014599720199745 0  0.008381119447013561 0.006381371967788657 0  0.008046779145346881 0.003006155472077048 0  0.008361036626979524 0.006485307491577932 0  0.007987595766591686 0.002992754906602592 0  0.008334773492744059 0.006588308031041598 0  0.007933663225123278 0.002973589164041123 0  0.008301825662481763 0.006689040151823762 0  0.007884393706229835 0.002948000060762873 0  0.008261855990795578 0.006786146013815808 0  0.007839074593337327 0.002915498984345503 0  0.00821470119903896 0.006878273995427361 0  0.00779689137756701 0.002875781865550529 0  0.008160373971076945 0.006964109531182152 0  0.007756952908035942 0.002828739836943341 0  0.008099060492600814 0.007042405414120494 0  0.007718318323066783 0.002774465292296384 0  0.008031113527237115 0.007112010824752832 0  0.007680024962909086 0.00271325317257295 0  0.00795704123519566 0.007171898376800313 0  0.007641116542652925 0.002645597420482335 0  0.007877492047271241 0.007221188515997342 0  0.007600670860259881 0.002572182663460059 0  0.007793236005976425 0.007259170670701667 0  0.007557826329114609 0.002493871301548735 0  0.007705143073969071 0.007285320630435001 0  0.007511806656826274 0.002411686289155665 0  0.007614158985545023 0.007299313718867113 0  0.007461943041351158 0.002326790005260706 0  0.007521279277912055 0.0073010334289404 0  0.007407693320609463 0.002240459702730237 0  0.007427522183731196 0.007290575297323677 0  0.007348657590981677 0.002154060111582997 0  0.007333901093897399 0.007268245910489354 0  0.007284589901391725 0.00206901384126507 0  0.007241397309057064 0.007234557052593699 0  0.007215405730813352 0.001986770281484875 0  0.007150933789699272 0.00719021512310135 0  0.007141185065425865 0.001908773738582196 0  0.007063350588039396 0.007136106066830752 0  0.007062171004568673 0.001836431563827099 0  0.006979382601016691 0.007073276167978721 0  0.006978763939261549 0.001771083030979474 0  0.006899640223662019 0.007002909160025809 0  0.006891511460488134 0.001713969702858609 0  0.006824593407373458 0.006926300192755933 0  0.006801094263833782 0.001666207991002947 0  0.006754559540147956 0.006844827273742502 0  0.006708308419676155 0.00162876455961884 0  0.006689695467758148 0.006759920862683462 0  0.006614044471369561 0.001602435156224392 0  0.006629993868701035 0.006673032341407502 0  0.006519263905397843 0.001587827368384263 0  0.006575284084148806 0.006585602109130518 0  0.006424973605244305 0.00158534771074889 0  0.006525237389907268 0.006499028060960921 0  0.006332198953034525 0.001595193341602671 0  0.006479376583406328 0.006414635197532647 0  0.006241956278528544 0.001617348595877673 0  0.006437089647876208 0.006333647085242707 0  0.006155225372873471 0.001651586404869184 0  0.006397647150892512 0.00625715984059454 0  0.00607292278421836 0.001697474554571888 0  0.006360222938045857 0.006186119249742206 0  0.005995876593836629 0.001754386617555196 0  0.006323917597038065 0.006121301557042314 0  0.005924803335248409 0.001821517280492992 0  0.006287784095183865 0.006063298366166584 0  0.005860287665879005 0.001897901683632007 0  0.0062508549359344 0.00601250599634399 0  0.00580276533234513 0.001982438292224905 0  0.006212170139093256 0.005969119527087292 0  0.005752509888229881 0.002073914735631396 0  0.006170805325914 0.005933131650016665 0  0.005709623529238961 0.002171035979469365 0  0.00612589918486164 0.005904336328960144 0  0.005674032307267846 0.002272454141595308 0  0.006076679606648487 0.005882337152288339 0  0.005645485874731519 0.002376799225137041 0  0.006022487807921907 0.005866560147323738 0  0.005623561796267508 0.002482710022195841 0  0.005962799810943057 0.005856270718467968 0  0.005607674349474454 0.002588864440638754 0  0.005897244710577686 0.005850594271079678 0  0.005597087622580383 0.002694008523617222 0  0.005825619238346946 0.005848539994562327 0  0.005590932607696336 0.002796983466621648 0  0.005747898224220681 0.005849027202760175 0  0.005588227886339777 0.002896749989114506 0  0.005664240658026499 0.005850913569457749 0  0.005587903411768036 0.002992409485755934 0  0.005574991161285845 0.005853024553003058 0  0.00558882681266186 0.003083221464236011 0  0.005480676794268173 0.0058541832778865 0  0.005589831576859201 0.003168616870700337 0  0.005381999239242995 0.005853240133126504 0  0.005589746423825433 0.003248207007348517 0  0.005279822516415462 0.005849101357707455 0  0.005587425141631403 0.00332178785741102 0  0.005175156500976945 0.005840755911796739 0  0.005581776149243588 0.003389339747608045 0  0.00506913661529584 0.005827299978297529 0  0.005571791048314209 0.003451022394501277 0  0.004963000166879053 0.005807958501303589 0  0.005556571450340227 0.003507165495970296 0  0.004858059887934908 0.005782103244641807 0  0.005535353404530312 0.003558255139524018 0  0.004755675304028876 0.005749266942985061 0  0.005507528808027482 0.003604916402549837 0  0.004657222615643685 0.005709153217746636 0  0.005472663251911699 0.003647892613343369 0  0.004564063816013228 0.005661642037623928 0  0.005430509841895833 0.003688021823527707 0  0.004477515790388595 0.00560679061654508 0  0.005381018629732107 0.003726211110241175 0  0.004398820145347423 0.005544829757060492 0  0.005324341397676651 0.003763409378575775 0  0.004329114501762111 0.00547615576202805 0  0.00526083165129817 0.003800579369906148 0  0.004269405951942947 0.005401318148896703 0  0.005191039792677943 0.00383866959910631 0  0.004220547331062618 0.005321003506214064 0  0.005115703563750334 0.003878586942798619 0  0.004183216886472467 0.005236015928541855 0  0.005035733965268281 0.003921170581761714 0  0.004157901847560569 0.005147254551350707 0  0.004952196967785547 0.00396716796394016 0  0.004144886305359802 0.005055688779556268 0  0.004866291434383562 0.004017213401087919 0  0.004144243707482425 0.004962331860358698 0  0.004779323768077839 0.004071809843297703 0  0.004155834162682716 0.004868213491542542 0  0.004692679877608203 0.004131314293258991 0  0.004179306633167043 0.004774352179382177 0  0.004607795121646793 0.004195927228129257 0  0.004214105974540842 0.0046817280652164 0  0.004526122941701917 0.004265686293763611 0  0.004259484665915422 0.004591256926493267 0  0.004449102926905492 0.004340464426324128 0  0.004314518959085191 0.004503766026986902 0  0.004378129068627031 0.004419972442741865 0  0.00593001182314166 0.006372403387971871 0  0.005939572443554628 0.006436360317137665 0  0.005925376372385204 0.006368751471385894 0  0.005946732308607814 0.006530898816930391 0  0.005866840669782601 0.00633199119654035 0  0.00594701266737181 0.006625814903473438 0  0.005804249765180952 0.006301600770407027 0  0.005940440295727538 0.006720641436504761 0  0.00573695820405656 0.00627701458488837 0  0.005927101959384199 0.006814914480349616 0  0.00566445506679863 0.006257506825568757 0  0.005907143630376305 0.006908179927508449 0  0.005586382222683439 0.006242212086839124 0  0.005880768731714959 0.007 0  0.005502548881191342 0.006230149145824911 0  0.00584823543546249 0.007089959498878739 0  0.0054129
[...]
<PointData  Tensors="$\sigma$"> 
<DataArray  type="Float64"  Name="$\sigma$"  NumberOfComponents="9" format="ascii">-8.2679445665037567e+06 2.2595627721022777e+07 0.0000000000000000e+00 2.2595627721022777e+07 1.9178755184677967e+08 0.0000000000000000e+00 0.0000000000000000e+00 0.0000000000000000e+00 0.0000000000000000e+00  -1.0146008889339048e+07 -1.8405577952157322e+07 0.0000000000000000e+00 -1.8405577952157315e+07 1.1615717852987629e+08 0.0000000000000000e+00 0.0000000000000000e+00 0.0000000000000000e+00 0.0000000000000000e+00  7.3068359826419242e+06 1.7567322788811454e+06 0.0000000000000000e+00 1.7567322788811454e+06 9.8596219793690920e+07 0.0000000000000000e+00 0.0000000000000000e+00 0.0000000000000000e+00 0.0000000000000000e+00  1.1901794669866239e+05 2.3642015934181976e+05 0.0000000000000000e+00 2.3642015934181964e+05 3.5013155647008099e+07 0.0000000000000000e+00 0.0000000000000000e+00 0.0000000000000000e+00 0.0000000000000000e+00  -6.9145959129803367e+06 -1.6926065264080953e+07 0.0000000000000000e+00 -1.6926065264080949e+07 1.0134122635141730e+08 0.0000000000000000e+00 0.0000000000000000e+00 0.0000000000000000e+00 0.0000000000000000e+00  -8.5422599677576795e+06 3.6720836936335258e+07 0.0000000000000000e+00 3.6720836936335258e+07 1.5081903319843665e+08 0.0000000000000000e+00 0.0000000000000000e+00 0.0000000000000000e+00 0.0000000000000000e+00  2.1495009847849170e+06 1.5303006940862871e+05 0.0000000000000000e+00 1.5303006940862871e+05 6.0432685784865163e+07 0.0000000000000000e+00 0.0000000000000000e+00 0.0000000000000000e+00 0.0000000000000000e+00  1.1901326137421843e+05 3.5335406710243340e+04 0.0000000000000000e+00 3.5335406710243136e+04 3.4059421041975714e+07 0.0000000000000000e+00 0.0000000000000000e+00 0.0000000000000000e+00 0.0000000000000000e+00  1.2337270171394322e+07 1.0184264269886443e+07 0.0000000000000000e+00 1.0184264269886442e+07 1.9383002472901589e+08 0.0000000000000000e+00 0.0000000000000000e+00 0.0000000000000000e+00 0.0000000000000000e+00  3.4064089209154248e+07 1.5709333446603777e+07 0.0000000000000000e+00 1.5709333446603771e+07 1.0334380729252343e+08 0.0000000000000000e+00 0.0000000000000000e+00 0.0000000000000000e+00 0.0000000000000000e+00  -1.2223730679729434e+07 -2.4573043355685782e+07 0.0000000000000000e+00 -2.4573043355685782e+07 2.7888275649179208e+08 0.0000000000000000e+00 0.0000000000000000e+00 0.0000000000000000e+00 0.0000000000000000e+00  4.2487710215864643e+07 -1.4629950833571898e+06 0.0000000000000000e+00 -1.4629950833571914e+06 5.5735379519070826e+07 0.0000000000000000e+00 0.0000000000000000e+00 0.0000000000000000e+00 0.0000000000000000e+00  -2.4656253815173595e+06 -6.6155585103316665e+07 0.0000000000000000e+00 -6.6155585103316642e+07 3.2975720675246871e+08 0.0000000000000000e+00 0.0000000000000000e+00 0.0000000000000000e+00 0.0000000000000000e+00  4.5959039132966571e+07 -5.1039431393507036e+05 0.0000000000000000e+00 -5.1039431393507123e+05 1.8354845547247171e+07 0.0000000000000000e+00 0.0000000000000000e+00 0.0000000000000000e+00 0.0000000000000000e+00  -1.1757378212166062e+07 -9.1477706075857937e+07 0.0000000000000000e+00 -9.1477706075857937e+07 3.5073804987806898e+08 0.0000000000000000e+00 0.0000000000000000e+00 0.0000000000000000e+00 0.0000000000000000e+00  -8.0588590257145334e+06 -1.8114960922710281e+07 0.0000000000000000e+00 -1.8114960922710281e+07 2.7198391529381648e+07 0.0000000000000000e+00 0.0000000000000000e+00 0.0000000000000000e+00 0.0000000000000000e+00  3.7302188132981099e+07 -9.9500022828762457e+07 0.0000000000000000e+00 -9.9500022828762457e+07 3.3636086101031196e+08 0.0000000000000000e+00 0.0000000000000000e+00 0.0000000000000000e+00 0.0000000000000000e+00  5.3249546539689172e+06 8.4780349039274249e+06 0.0000000000000000e+00 8.4780349039274268e+06 2.2905406330175653e+07 0.0000000000000000e+00 0.0000000000000000e+00 0.0000000000000000e+00 0.0000000000000000e+00  3.9767713454353265e+06 2.0160717191656068e+08 0.0000000000000000e+00 2.0160717191656068e+08 5.5035599997556996e+08 0.0000000000000000e+00 0.0000000000000000e+00 0.0000000000000000e+00 0.0000000000000000e+00  -3.1493668465770571e+06 1.1630209090133913e+07 0.0000000000000000e+00 1.1630209090133915e+07 7.6730951726239519e+06 0.0000000000000000e+00 0.0000000000000000e+00 0.0000000000000000e+00 0.0000000000000000e+00  -1.6733762131582588e+08 3.6435523358940765e+07 0.0000000000000000e+00 3.6435523358940765e+07 9.3277068608603036e+08 0.0000000000000000e+00 0.0000000000000000e+00 0.0000000000000000e+00 0.0000000000000000e+00  -1.1056188194993963e+07 8.7721719325233437e+05 0.0000000000000000e+00 8.7721719325233379e+05 -6.4281955024779150e+06 0.0000000000000000e+00 0.0000000000000000e+00 0.0000000000000000e+00 0.0000000000000000e+00  -1.7119061008213472e+06 -1.5240222245790085e+08 0.0000000000000000e+00 -1.5240222245790085e+08 6.8345349987755263e+08 0.0000000000000000e+00 0.0000000000000000e+00 0.0000000000000000e+00 0.0000000000000000e+00  -1.1787060517051412e+07 5.2445793104341105e+06 0.0000000000000000e+00 5.2445793104341133e+06 -2.1900935466023525e+06 0.0000000000000000e+00 0.0000000000000000e+00 0.0000000000000000e+00 0.0000000000000000e+00  -3.8854086971417725e+07 7.1432302260415390e+07 0.0000000000000000e+00 7.1432302260415390e+07 3.5382424894057578e+08 0.0000000000000000e+00 0.0000000000000000e+00 0.0000000000000000e+00 0.0000000000000000e+00  -1.5381482436308101e+07 8.7695427678564582e+06 0.0000000000000000e+00 8.7695427678564563e+06 -4.0002647334689009e+06 0.0000000000000000e+00 0.0000000000000000e+00 0.0000000000000000e+00 0.0000000000000000e+00  -6.7084131212902464e+07 4.5458320435517415e+07 0.0000000000000000e+00 4.5458320435517415e+07 3.5706186247030008e+08 0.0000000000000000e+00 0.0000000000000000e+00 0.0000000000000000e+00 0.0000000000000000e+00  -1.2432109706154738e+07 5.2957527497431012e+06 0.0000000000000000e+00 5.2957527497431003e+06 -6.5811537149359649e+06 0.0000000000000000e+00 0.0000000000000000e+00 0.0000000000000000e+00 0.0000000000000000e+00  -8.7985143220712081e+07 4.6292239211552655e+06 0.0000000000000000e+00 4.6292239211552655e+06 3.2377187875113392e+08 0.0000000000000000e+00 0.0000000000000000e+00 0.0000000000000000e+00 0.0000000000000000e+00  -1.1957583517333033e+07 6.0736491835098825e+06 0.0000000000000000e+00 6.0736491835098844e+06 -3.7010668874801262e+06 0.0000000000000000e+00 0.0000000000000000e+00 0.0000000000000000e+00 0.0000000000000000e+00  -8.4790501075906381e+07 -5.6065926306062333e+07 0.0000000000000000e+00 -5.6065926306062333e+07 2.4847080202350456e+08 0.0000000000000000e+00 0.0000000000000000e+00 0.0000000000000000e+00 0.0000000000000000e+00  -1.0337712734047052e+07 6.3680795610062843e+06 0.0000000000000000e+00 6.3680795610062880e+06 -3.1985224354067417e+06 0.0000000000000000e+00 0.0000000000000000e+00 0.0000000000000000e+00 0.0000000000000000e+00  -7.8380549452012196e+07 -1.1216826670887253e+08 0.0000000000000000e+00 -1.1216826670887253e+08 1.6465777838269159e+08 0.0000000000000000e+00 0.0000000000000000e+00 0.0000000000000000e+00 0.0000000000000000e+00  -6.8250869185110545e+06 5.2735135629419843e+06 0.0000000000000000e+00 5.2735135629419815e+06 -3.2076555335020660e+06 0.0000000000000000e+00 0.0000000000000000e+00 0.0000000000000000e+00 0.0000000000000000e+00  -3.8649512949433788e+06 -1.1267816424939902e+08 0.0000000000000000e+00 -1.1267816424939902e+08 1.7620153848955952e+07 0.0000000000000000e+00 0.0000000000000000e+00 0.0000000000000000e+00 0.0000000000000000e+00  -5.8589820654533226e+06 4.7934556672327360e+06 0.0000000000000000e+00 4.7934556672327360e+06 -2.8887952384865871e+06 0.0000000000000000e+00 0.0000000000000000e+00 0.0000000000000000e+00 0.0000000000000000e+00  -2.3258122592307788e+08 -1.1090586883845545e+07 0.0000000000000000e+00 -1.1090586883845545e+07 -5.2059344450817026e+07 0.0000000000000000e+00 0.0000000000000000e+00 0.0000000000000000e+00 0.0000000000000000e+00  -4.3432183419049587e+06 3.9730482687229817e+06 0.0000000000000000e+00 3.9730482687229821e+06 -3.3039361423635804e+06 0.0000000000000000e+00 0.0000000000000000e+00 0.0000000000000000e+00 0.0000000000000000e+00  -1.2827546894687293e+08 -9.8002766560088739e+07 0.0000000000000000e+00 -9.8002766560088739e+07 -3.2162496557645325e+07 0.0000000000000000e+00 0.0000000000000000e+00 0.0000000000000000e+00 0.0000000000000000e+00  -3.1797732033635410e+06 3.4247325186120658e+06 0.0000000000000000e+00 3.4247325186120612e+06 -3.8071923306998601e+06 0.0000000000000000e+00 0.0000000000000000e+00 0.0000000000000000e+00 0.0000000000000000e+00  -1.2819956401413818e+08 -3.3161048963254705e+07 0.0000000000000000e+00 -3.3161048963254705e+07 -4.3298854064384595e+07 0.0000000000000000e+00 0.0000000000000000e+00 0.0000000000000000e+00 0.0000000000000000e+00  -2.3159064232648085e+06 3.0284861393571552e+06 0.0000000000000000e+00 3.0284861393571552e+06 -4.6080971987602338e+06 0.0000000000000000e+00 0.0000000000000000e+00 0.0000000000000000e+00 0.0000000000000000e+00  -7.2801252016690463e+07 -4.1003533182965808e+07 0.0000000000000000e+00 -4.1003533182965808e+07 -2.3576337711173918e+07 0.0000000000000000e+00 0.0000000000000000e+00 0.0000000000000000e+00 0.0000000000000000e+00  -1.2244669310757765e+06 2.5580763858455531e+06 0.0000000000000000e+00 2.5580763858455545e+06 -5.1828354853552664e+06 0.0000000000000000e+00 0.0000000000000000e+00 0.0000000000000000e+00 0.0000000000000000e+00  -1.3999724407677725e+08 -2.7384820039148107e+07 0.0000000000000000e+00 -2.7384820039148107e+07 -7.7526908031315636e+05 0.0000000000000000e+00 0.0000000000000000e+00 0.0000000000000000e+00 0.0000000000000000e+00  -8.3751953448921826e+05 2.0630424140958600e+06 0.0000000000000000e+00 2.0630424140958600e+06 -6.4694953659676658e+06 0.0000000000000000e+00 0.0000000000000000e+00 0.0000000000000000e+00 0.0000000000000000e+00  -9.0579453147117600e+07 -2.2506831853506453e+07 0.0000000000000000e+00 -2.2506831853506453e+07 6.1302411769408244e+05 0.0000000000000000e+00 0.0000000000000000e+00 0.0000000000000000e+00 0.0000000000000000e+00  -9.1379033261646493e+05 1.7731069507770052e+06 0.0000000000000000e+00 1.7731069507770049e+06 -7.5450629109554375e+06 0.0000000000000000e+00 0.0000000000000000e+00 0.0000000000000000e+00 0.0000000000000000e+00  -7.6050564349976406e+07 -1.2540630048671346e+07 0.0000000000000000e+00 -1.2540630048671346e+07 -2.0813714180351668e+06 0.0000000000000000e+00 0.0000000000000000e+00 0.0000000000000000e+00 0.0000000000000000e+00  -9.9159039380972472e+05 1.2197576286977152e+06 0.0000000000000000e+00 1.2197576286977150e+06 -8.8238353792875633e+06 0.0000000000000000e+00 0.0000000000000000e+00 0.0000000000000000e+00 0.0000000000000000e+00  -7.0509549686524302e+07 -5.2126294277443523e+06 0.0000000000000000e+00 -5.2126294277443523e+06 -9.8143758504101788e+04 0.0000000000000000e+00 0.0000000000000000e+00 0.0000000000000000e+00 0.0000000000000000e+00  2.5317347587515469e+05 1.2502765495854444e+06 0.0000000000000000e+00 1.2502765495854439e+06 -1.0667344400106717e+07 0.0000000000000000e+00 0.0000000000000000e+00 0.0000000000000000e+00 0.0000000000000000e+00  -5.9596958837837972e+07 -3.3391893934298833e+06 0.0000000000000000e+00 -3.3391893934298833e+06 4.2335774672630063e+05 0.0000000000000000e+00 0.0000000000000000e+00 0.0000000000000000e+00 0.0000000000000000e+00  -6.2567589421843202e+05 6.1121904177640600e+05 0.0000000000000000e+00 6.1121904177640588e+05 -1.2194973054952456e+07 0.0000000000000000e+00 0.0000000000000000e+00 0.0000000000000000e+00 0.0000000000000000e+00  -4.8556083652481586e+07 -3.0634711406203061e+06 0.0000000000000000e+00 -3.0634711406203061e+06 9.5159803194085209e+04 0.0000000000000000e+00 0.0000000000000000e+00 0.0000000000000000e+00 0.0000000000000000e+00  -1.7277975733163010e+06 -1.1813279366603086e+05 0.0000000000000000e+00 -1.1813279366603086e+05 -1.3106129102593346e+07 0.0000000000000000e+00 0.0000000000000000e+00 0.0000000000000000e+00 0.0000000000000000e+00  -4.0518715015829377e+07 -1.1946813849008281e+06 0.0000000000000000e+00 -1.1946813849008281e+06 1.0436495018490490e+05 0.0000000000000000e+00 0.0000000000000000e+00 0.0000000000000000e+00 0.0000000000000000e+00  -8.2018359643336525e+05 1.1581921449416773e+06 0.0000000000000000e+00 1.1581921449416778e+06 -1.5193167124716571e+07 0.0000000000000000e+00 0.0000000000000000e+00 0.0000000000000000e+00 0.0000000000000000e+00  -3.2523550775682423e+07 -2.1617435038441658e+05 0.0000000000000000e+00 -2.1617435038441658e+05 -1.6286491056847738e+05 0.0000000000000000e+00 0.0000000000000000e+00 0.0000000000000000e+00 0.0000000000000000e+00  -1.3382028785276401e+06 2.2243416332923765e+06 0.0000000000000000e+00 2.2243416332923765e+06 -1.6387013944583641e+07 0.0000000000000000e+00 0.0000000000000000e+00 0.0000000000000000e+00 0.0000000000000000e+00  -2.5574981472117424e+07 -6.6269602119135321e+05 0.0000000000000000e+00 -6.6269602119135321e+05 3.2480109614788787e+05 0.0000000000000000e+00 0.0000000000000000e+00 0.0000000000000000e+00 0.0000000000000000e+00  -2.7355861303045587e+06 2.4114703877857267e+06 0.0000000000000000e+00 2.4114703877857267e+06 -1.5697712802363662e+07 0.0000000000000000e+00 0.0000000000000000e+00 0.0000000000000000e+00 0.0000000000000000e+00  -1.9491178671922259e+07 -7.0074442707958492e+05 0.0000000000000000e+00 -7.0074442707958492e+05 -8.1023058831433766e+04 0.0000000000000000e+00 0.0000000000000000e+00 0.0000000000000000e+00 0.0000000000000000e+00  -2.6600456110744588e+06 3.8767098124796506e+06 0.0000000000000000e+00 3.8767098124796520e+06 -1.5676228413940469e+07 0.0000000000000000e+00 0.0000000000000000e+00 0.0000000000000000e+00 0.0000000000000000e+00  -1.5453823195683409e+07 -8.9304692976058961e+05 0.0000000000000000e+00 -8.9304692976058961e+05 1.8939969214535911e+04 0.0000000000000000e+00 0.0000000000000000e+00 0.0000000000000000e+00 0.0000000000000000e+00  8.7156684559278446e+05 4.1590870080245291e+06 0.0000000000000000e+00 4.1590870080245282e+06 -2.2896426788164917e+07 0.0000000000000000e+00 0.0000000000000000e+00 0.0000000000000000e+00 0.0000000000000000e+00  -1.0917856692973385e+07 -1.3930779633928519e+06 0.0000000000000000e+00 -1.3930779633928519e+06 1.5502817381116352e+05 0.0000000000000000e+00 0.0000000000000000e+00 0.0000000000000000e+00 0.0000000000000000e+00  -2.1084570369755127e+06 3.6899490262831859e+06 0.0000000000000000e+00 3.6899490262831859e+06 -1.7001934414120037e+07 0.0000000000000000e+00 0.0000000000000000e+00 0.0000000000000000e+00 0.0000000000000000e+00  -9.2083919569371138e+06 -1.8709187463998422e+06 0.0000000000000000e+00 -1.8709187463998422e+06 -4.9578105278021895e+05 0.0000000000000000e+00 0.0000000000000000e+00 0.0000000000000000e+00 0.0000000000000000e+00  -8.9645726065744867e+05 2.1149280025063441e+06 0.0000000000000000e+00 2.1149280025063441e+06 -2.3304944759730391e+07 0.0000000000000000e+00 0.0000000000000000e+00 0.0000000000000000e+00 0.0000000000000000e+00  -6.7508881744452864e+06 -2.0250484608081880e+06 0.0000000000000000e+00 -2.0250484608081880e+06 -3.6818266980825708e+05 0.0000000000000000e+00 0.0000000000000000e+00 0.0000000000000000e+00 0.0000000000000000e+00  1.0477909628431096e+06 5.8877143380047297e+06 0.0000000000000000e+00 5.8877143380047297e+06 -1.5628980916367516e+07 0.0000000000000000e+00 0.0000000000000000e+00 0.0000000000000000e+00 0.0000000000000000e+00  -5.5346666509320019e+06 -2.4773169988463749e+06 0.0000000000000000e+00 -2.4773169988463749e+06 -9.5833678212078242e+05 0.0000000000000000e+00 0.0000000000000000e+00 0.0000000000000000e+00 0.0000000000000000e+00  -4.0303989620518438e+06 6.5948927543944651e+06 0.0000000000000000e+00 6.5948927543944651e+06 -1.6733536849576456e+07 0.0000000000000000e+00 0.0000000000000000e+00 0.0000000000000000e+00 0.0000000000000000e+00  -4.5052970004475024e+06 -3.1197278895841367e+06 0.0000000000000000e+00 -3.1197278895841367e+06 -1.8984643933995983e+06 0.0000000000000000e+00 0.0000000000000000e+00 0.0000000000000000e+00 0.0000000000000000e+00  -1.3857337704485569e+06 5.9077189523754707e+06 0.0000000000000000e+00 5.9077189523754707e+06 -1.3009407218627470e+07 0.0000000000000000e+00 0.0000000000000000e+00 0.0000000000000000e+00 0.0000000000000000e+00  -4.4039788442448368e+06 -3.3307883736955696e+06 0.0000000000000000e+00 -3.3307883736955705e+06 -2.3878027741775475e+06 0.0000000000000000e+00 0.0000000000000000e+00 0.0000000000000000e+00 0.0000000000000000e+00  -3.8806129893144527e+06 1.0116704942896973e+07 0.0000000000000000e+00 1.0116704942896973e+07 -1.6626468015357740e+07 0.0000000000000000e+00 0.0000000000000000e+00 0.0000000000000000e+00 0.0000000000000000e+00  -3.7008663332257755e+06 -3.9483759734422304e+06 0.0000000000000000e+00 -3.9483759734422304e+06 -3.7356427349183275e+06 0.0000000000000000e+00 0.0000000000000000e+00 0.0000000000000000e+00 0.0000000000000000e+00  -4.0660176900253389e+06 7.2180368486443982e+06 0.0000000000000000e+00 7.2180368486443982e+06 -1.0922621792368060e+07 0.0000000000000000e+00 0.0000000000000000e+00 0.0000000000000000e+00 0.0000000000000000e+00  -3.5339993910827115e+06 -4.3825657729658037e+06 0.0000000000000000e+00 -4.3825657729658037e+06 -5.3159436337476783e+06 0.0000000000000000e+00 0.0000000000000000e+00 0.0000000000000000e+00 0.0000000000000000e+00  -9.9900913866484333e+06 9.7468516105699018e+06 0.0000000000000000e+00 9.7468516105699018e+06 -1.1798032654283738e+07 0.0000000000000000e+00 0.0000000000000000e+00 0.0000000000000000e+00 0.0000000000000000e+00  -4.1910754044736847e+06 -6.0310504496566895e+06 0.0000000000000000e+00 -6.0310504496566895e+06 -8.0722373201067811e+06 0.0000000000000000e+00 0.0000000000000000e+00 0.0000000000000000e+00 0.0000000000000000e+00  -1.2622860582573477e+07 9.8458074110743646e+06 0.0000000000000000e+00 9.8458074110743646e+06 -9.0417228969774544e+06 0.0000000000000000e+00 0.0000000000000000e+00 0.0000000000000000e+00 0.0000000000000000e+00  -4.3266272877560463e+06 -6.8000619020026028e+06 0.0000000000000000e+00 -6.8000619020026010e+06 -1.0731260327101536e+07 0.0000000000000000e+00 0.0000000000000000e+00 0.0000000000000000e+00 0.0000000000000000e+00  -1.4529713208813211e+07 1.0607561633811401e+07 0.0000000000000000e+00 1.0607561633811401e+07 -8.6419274561606105e+06 0.0000000000000000e+00 0.0000000000000000e+00 0.0000000000000000e+00 0.0000000000000000e+00  -4.8078251988162193e+06 -8.2661497242649896e+06 0.0000000000000000e+00 -8.2661497242649905e+06 -1.3696243104059260e+07 0.0000000000000000e+00 0.0000000000000000e+00 0.0000000000000000e+00 0.0000000000000000e+00  -1.7948685726548489e+07 8.9960034803951588e+06 0.0000000000000000e+00 8.9960034803951588e+06 -4.9312400569214625e+06 0.0000000000000000e+00 0.0000000000000000e+00 0.0000000000000000e+00 0.0000000000000000e+00  -5.8245922361543458e+06 -1.0066069104539836e+07 0.0000000000000000e+00 -1.0066069104539832e+07 -1.7554185441260021e+07 0.0000000000000000e+00 0.0000000000000000e+00 0.0000000000000000e+00 0.0000000000000000e+00  -1.8406034968011197e+07 7.1544235386260673e+06 0.0000000000000000e+00 7.1544235386260673e+06 -2.9166573929810706e+06 0.0000000000000000e+00 0.0000000000000000e+00 0.0000000000000000e+00 0.0000000000000000e+00  -7.0089445803448809e+06 -1.1936434979587492e+07 0.0000000000000000e+00 -1.1936434979587501e+07 -2.0569902079974178e+07 0.0000000000000000e+00 0.0000000000000000e+00 0.0000000000000000e+00 0.0000000000000000e+00  -1.6055633711474141e+07 4.0350391258954955e+06 0.0000000000000000e+00 4.0350391258954955e+06 -1.6487018390775211e+06 0.0000000000000000e+00 0.0000000000000000e+00 0.0000000000000000e+00 0.0000000000000000e+00  -8.6461753764884733e+06 -1.4212510826818459e+07 0.0000000000000000e+00 -1.4212510826818453e+07 -2.3810614843332317e+07 0.0000000000000000e+00 0.0000000000000000e+00 0.0000000000000000e+00 0.0000000000000000e+00  -1.4129374981374744e+07 1.5812750049434409e+06 0.0000000000000000e+00 1.5812750049434414e+06 -6.7543866759990237e+05 0.0000000000000000e+00 0.0000000000000000e+00 0.0000000000000000e+00 0.0000000000000000e+00  -1.0399556796637421e+07 -1.6209280986461464e+07 0.0000000000000000e+00 -1.6209280986461466e+07 -2.582826834