<?xml version="1.0"?>
<VTKFile type="UnstructuredGrid"  version="0.1"  >
<UnstructuredGrid>
<Piece  NumberOfPoints="1799" NumberOfCells="3156">
<Points>
<DataArray  type="Float64"  NumberOfComponents="3"  format="ascii">1.694065894508601e-21 0.008447317744001559 0  0 0.006243487017789186 0  0 0.01 0  0.01 0.01 0  0.01 0.004739447698251261 0  0.01 0.003038811340045742 0  0.01 0 0  0 0 0  0.00972274937591714 0.00446136709 0  0.009653726258356362 0.004545183154286949 0  0.009783606631901408 0.0043734488461064 0  0.009577812281436313 0.004624366443043088 0  0.009835143529851395 0.004282096254618384 0  0.009496374895431106 0.004698536913086191 0  0.009876351429728553 0.004188097333533943 0  0.009410843899527923 0.004767474310794485 0  0.009906389591104073 0.004092339945416686 0  0.009322680015752169 0.00483112308721043 0  0.009924603388293412 0.003995788691361544 0  0.009233342881914028 0.004889592860194898 0  0.009930538269388231 0.00389945963832429 0  0.009144259222736564 0.004943154406398476 0  0.009923949134101986 0.003804393533973133 0  0.009056791952980949 0.004992231280310688 0  0.009904804916195522 0.003711628202889073 0  0.00897221094262878 0.005037387269757166 0  0.009873288272257268 0.003622170840092915 0  0.008891666132610079 0.005079310004121139 0  0.009829790396922524 0.003536970921943865 0  0.008816163631214721 0.005118791130579932 0  0.009774901102315603 0.003456894440322572 0  0.008746545347644217 0.005156703562277342 0  0.009709394413691105 0.003382700134020289 0  0.008683472631978471 0.005193976378365099 0  0.009634210041128223 0.00331501834219343 0  0.008627414292309099 0.005231568017322153 0  0.009550431186043644 0.003254333039822774 0  0.008578639252366998 0.005270438450342868 0  0.009459259228807002 0.003200967535951617 0  0.008537213999305775 0.005311521049719365 0  0.00936198591772306 0.003155074224035663 0  0.008503004854204898 0.00535569487730484 0  0.009259963738278846 0.00311662867229655 0  0.008475684980220988 0.005403758110057852 0  0.009154575183414377 0.003085428233059718 0  0.008454745928046752 0.005456403293512485 0  0.009047201669650919 0.00306109523639258 0  0.008439513408278112 0.005514195070427174 0  0.008939192849631329 0.003043084717779311 0  0.008429166878152986 0.005577550971903466 0  0.008831837058876933 0.003030696514962359 0  0.008422762438422462 0.005646725783411865 0  0.008726333603687408 0.003023091458314896 0  0.008419258457098896 0.005721799910265017 0  0.008623767548895558 0.003019311274956418 0  0.008417543272430451 0.005802672068315741 0  0.008525087599857118 0.003018301731897273 0  0.008416464279248125 0.00588905651847861 0  0.008431087594226352 0.003018938460180701 0  0.008414857671986093 0.005980484950740676 0  0.008342392027717107 0.003020054832380215 0  0.008411578104923951 0.00607631300744762 0  0.008259445936461489 0.003020471211663848 0  0.008405527535824455 0.006175731319709577 0  0.008182509349292211 0.003019024853329008 0  0.008395682542970321 0.006277780817654691 0  0.008111656409014527 0.003014599720199745 0  0.008381119447013561 0.006381371967788657 0  0.008046779145346881 0.003006155472077048 0  0.008361036626979524 0.006485307491577932 0  0.007987595766591686 0.002992754906602592 0  0.008334773492744059 0.006588308031041598 0  0.007933663225123278 0.002973589164041123 0  0.008301825662481763 0.006689040151823762 0  0.007884393706229835 0.002948000060762873 0  0.008261855990795578 0.006786146013815808 0  0.007839074593337327 0.002915498984345503 0  0.00821470119903896 0.006878273995427361 0  0.00779689137756701 0.002875781865550529 0  0.008160373971076945 0.006964109531182152 0  0.007756952908035942 0.002828739836943341 0  0.008099060492600814 0.007042405414120494 0  0.007718318323066783 0.002774465292296384 0  0.008031113527237115 0.007112010824752832 0  0.007680024962909086 0.00271325317257295 0  0.00795704123519566 0.007171898376800313 0  0.007641116542652925 0.002645597420482335 0  0.007877492047271241 0.007221188515997342 0  0.007600670860259881 0.002572182663460059 0  0.007793236005976425 0.007259170670701667 0  0.007557826329114609 0.002493871301548735 0  0.007705143073969071 0.007285320630435001 0  0.007511806656826274 0.002411686289155665 0  0.007614158985545023 0.007299313718867113 0  0.007461943041351158 0.002326790005260706 0  0.007521279277912055 0.0073010334289404 0  0.007407693320609463 0.002240459702730237 0  0.007427522183731196 0.007290575297323677 0  0.007348657590981677 0.002154060111582997 0  0.007333901093897399 0.007268245910489354 0  0.007284589901391725 0.00206901384126507 0  0.007241397309057064 0.007234557052593699 0  0.007215405730813352 0.001986770281484875 0  0.007150933789699272 0.00719021512310135 0  0.007141185065425865 0.001908773738582196 0  0.007063350588039396 0.007136106066830752 0  0.007062171004568673 0.001836431563827099 0  0.006979382601016691 0.007073276167978721 0  0.006978763939261549 0.001771083030979474 0  0.006899640223662019 0.007002909160025809 0  0.006891511460488134 0.001713969702858609 0  0.006824593407373458 0.006926300192755933 0  0.006801094263833782 0.001666207991002947 0  0.006754559540147956 0.006844827273742502 0  0.006708308419676155 0.00162876455961884 0  0.006689695467758148 0.006759920862683462 0  0.006614044471369561 0.001602435156224392 0  0.006629993868701035 0.006673032341407502 0  0.006519263905397843 0.001587827368384263 0  0.006575284084148806 0.006585602109130518 0  0.006424973605244305 0.00158534771074889 0  0.006525237389907268 0.006499028060960921 0  0.006332198953034525 0.001595193341602671 0  0.006479376583406328 0.006414635197532647 0  0.006241956278528544 0.001617348595877673 0  0.006437089647876208 0.006333647085242707 0  0.006155225372873471 0.001651586404869184 0  0.006397647150892512 0.00625715984059454 0  0.00607292278421836 0.001697474554571888 0  0.006360222938045857 0.006186119249742206 0  0.005995876593836629 0.001754386617555196 0  0.006323917597038065 0.006121301557042314 0  0.005924803335248409 0.001821517280492992 0  0.006287784095183865 0.006063298366166584 0  0.005860287665879005 0.001897901683632007 0  0.0062508549359344 0.00601250599634399 0  0.00580276533234513 0.001982438292224905 0  0.006212170139093256 0.005969119527087292 0  0.005752509888229881 0.002073914735631396 0  0.006170805325914 0.005933131650016665 0  0.005709623529238961 0.002171035979469365 0  0.00612589918486164 0.005904336328960144 0  0.005674032307267846 0.002272454141595308 0  0.006076679606648487 0.005882337152288339 0  0.005645485874731519 0.002376799225137041 0  0.006022487807921907 0.005866560147323738 0  0.005623561796267508 0.002482710022195841 0  0.005962799810943057 0.005856270718467968 0  0.005607674349474454 0.002588864440638754 0  0.005897244710577686 0.005850594271079678 0  0.005597087622580383 0.002694008523617222 0  0.005825619238346946 0.005848539994562327 0  0.005590932607696336 0.002796983466621648 0  0.005747898224220681 0.005849027202760175 0  0.005588227886339777 0.002896749989114506 0  0.005664240658026499 0.005850913569457749 0  0.005587903411768036 0.002992409485755934 0  0.005574991161285845 0.005853024553003058 0  0.00558882681266186 0.003083221464236011 0  0.005480676794268173 0.0058541832778865 0  0.005589831576859201 0.003168616870700337 0  0.005381999239242995 0.005853240133126504 0  0.005589746423825433 0.003248207007348517 0  0.005279822516415462 0.005849101357707455 0  0.005587425141631403 0.00332178785741102 0  0.005175156500976945 0.005840755911796739 0  0.005581776149243588 0.003389339747608045 0  0.00506913661529584 0.005827299978297529 0  0.005571791048314209 0.003451022394501277 0  0.004963000166879053 0.005807958501303589 0  0.005556571450340227 0.003507165495970296 0  0.004858059887934908 0.005782103244641807 0  0.005535353404530312 0.003558255139524018 0  0.004755675304028876 0.005749266942985061 0  0.005507528808027482 0.003604916402549837 0  0.004657222615643685 0.005709153217746636 0  0.005472663251911699 0.003647892613343369 0  0.004564063816013228 0.005661642037623928 0  0.005430509841895833 0.003688021823527707 0  0.004477515790388595 0.00560679061654508 0  0.005381018629732107 0.003726211110241175 0  0.004398820145347423 0.005544829757060492 0  0.005324341397676651 0.003763409378575775 0  0.004329114501762111 0.00547615576202805 0  0.00526083165129817 0.003800579369906148 0  0.004269405951942947 0.005401318148896703 0  0.005191039792677943 0.00383866959910631 0  0.004220547331062618 0.005321003506214064 0  0.005115703563750334 0.003878586942798619 0  0.004183216886472467 0.005236015928541855 0  0.005035733965268281 0.003921170581761714 0  0.004157901847560569 0.005147254551350707 0  0.004952196967785547 0.00396716796394016 0  0.004144886305359802 0.005055688779556268 0  0.004866291434383562 0.004017213401087919 0  0.004144243707482425 0.004962331860358698 0  0.004779323768077839 0.004071809843297703 0  0.004155834162682716 0.004868213491542542 0  0.004692679877608203 0.004131314293258991 0  0.004179306633167043 0.004774352179382177 0  0.004607795121646793 0.004195927228129257 0  0.004214105974540842 0.0046817280652164 0  0.004526122941701917 0.004265686293763611 0  0.004259484665915422 0.004591256926493267 0  0.004449102926905492 0.004340464426324128 0  0.004314518959085191 0.004503766026986902 0  0.004378129068627031 0.004419972442741865 0  0.00593001182314166 0.006372403387971871 0  0.005939572443554628 0.006436360317137665 0  0.005925376372385204 0.006368751471385894 0  0.005946732308607814 0.006530898816930391 0  0.005866840669782601 0.00633199119654035 0  0.00594701266737181 0.006625814903473438 0  0.005804249765180952 0.006301600770407027 0  0.005940440295727538 0.006720641436504761 0  0.00573695820405656 0.00627701458488837 0  0.005927101959384199 0.006814914480349616 0  0.00566445506679863 0.006257506825568757 0  0.005907143630376305 0.006908179927508449 0  0.005586382222683439 0.006242212086839124 0  0.005880768731714959 0.007 0  0.005502548881191342 0.006230149145824911 0  0.00584823543546249 0.007089959498878739 0  0.0054129
[...]
<PointData  Tensors="$\sigma$"> 
<DataArray  type="Float64"  Name="$\sigma$"  NumberOfComponents="9" format="ascii">-6.9224881325544529e+06 1.7659519467091296e+07 0.0000000000000000e+00 1.7659519467091296e+07 1.5240049126864168e+08 0.0000000000000000e+00 0.0000000000000000e+00 0.0000000000000000e+00 0.0000000000000000e+00  -7.7409572194515420e+06 -1.4586112459411807e+07 0.0000000000000000e+00 -1.4586112459411807e+07 9.2617233440350369e+07 0.0000000000000000e+00 0.0000000000000000e+00 0.0000000000000000e+00 0.0000000000000000e+00  6.2848173664967045e+06 1.6148628512983136e+06 0.0000000000000000e+00 1.6148628512983138e+06 7.9160556117200121e+07 0.0000000000000000e+00 0.0000000000000000e+00 0.0000000000000000e+00 0.0000000000000000e+00  1.4333504780562420e+05 1.6624996925673189e+05 0.0000000000000000e+00 1.6624996925673177e+05 2.8157038634654779e+07 0.0000000000000000e+00 0.0000000000000000e+00 0.0000000000000000e+00 0.0000000000000000e+00  -5.3018483270505238e+06 -1.3474741488687748e+07 0.0000000000000000e+00 -1.3474741488687743e+07 8.1047248320416093e+07 0.0000000000000000e+00 0.0000000000000000e+00 0.0000000000000000e+00 0.0000000000000000e+00  -7.2756948615027200e+06 2.8391488638908211e+07 0.0000000000000000e+00 2.8391488638908211e+07 1.1957485646979277e+08 0.0000000000000000e+00 0.0000000000000000e+00 0.0000000000000000e+00 0.0000000000000000e+00  1.9496355856718933e+06 1.0644095922979034e+05 0.0000000000000000e+00 1.0644095922979117e+05 4.8376926810068250e+07 0.0000000000000000e+00 0.0000000000000000e+00 0.0000000000000000e+00 0.0000000000000000e+00  1.1108989212149115e+05 1.7276052933954237e+04 0.0000000000000000e+00 1.7276052933954201e+04 2.7395410868250053e+07 0.0000000000000000e+00 0.0000000000000000e+00 0.0000000000000000e+00 0.0000000000000000e+00  9.1761724955670666e+06 8.0260843494261643e+06 0.0000000000000000e+00 8.0260843494261624e+06 1.5608190537631831e+08 0.0000000000000000e+00 0.0000000000000000e+00 0.0000000000000000e+00 0.0000000000000000e+00  2.6996182670555435e+07 1.2274417485538213e+07 0.0000000000000000e+00 1.2274417485538209e+07 8.3865297125404134e+07 0.0000000000000000e+00 0.0000000000000000e+00 0.0000000000000000e+00 0.0000000000000000e+00  -9.4236322958514597e+06 -1.9838132151046015e+07 0.0000000000000000e+00 -1.9838132151046015e+07 2.2435551431993732e+08 0.0000000000000000e+00 0.0000000000000000e+00 0.0000000000000000e+00 0.0000000000000000e+00  3.3327067532320749e+07 -8.3078146762983105e+05 0.0000000000000000e+00 -8.3078146762983268e+05 4.5833522801621363e+07 0.0000000000000000e+00 0.0000000000000000e+00 0.0000000000000000e+00 0.0000000000000000e+00  -3.1313511558549134e+06 -5.3040030749815375e+07 0.0000000000000000e+00 -5.3040030749815375e+07 2.6453944584912330e+08 0.0000000000000000e+00 0.0000000000000000e+00 0.0000000000000000e+00 0.0000000000000000e+00  3.5687546442972958e+07 -5.7632904502853216e+05 0.0000000000000000e+00 -5.7632904502853379e+05 1.4391694820797896e+07 0.0000000000000000e+00 0.0000000000000000e+00 0.0000000000000000e+00 0.0000000000000000e+00  -8.7503327954568211e+06 -7.3596004409454703e+07 0.0000000000000000e+00 -7.3596004409454703e+07 2.8206032809831256e+08 0.0000000000000000e+00 0.0000000000000000e+00 0.0000000000000000e+00 0.0000000000000000e+00  -3.4911783383617862e+06 -1.5277634694881940e+07 0.0000000000000000e+00 -1.5277634694881938e+07 2.1740725201210499e+07 0.0000000000000000e+00 0.0000000000000000e+00 0.0000000000000000e+00 0.0000000000000000e+00  2.9331692938874133e+07 -7.9486425384213924e+07 0.0000000000000000e+00 -7.9486425384213924e+07 2.7009560706520283e+08 0.0000000000000000e+00 0.0000000000000000e+00 0.0000000000000000e+00 0.0000000000000000e+00  3.9623791545823966e+06 5.0349700550652426e+06 0.0000000000000000e+00 5.0349700550652426e+06 1.7447507100345030e+07 0.0000000000000000e+00 0.0000000000000000e+00 0.0000000000000000e+00 0.0000000000000000e+00  4.3560872298219092e+06 1.6122888431458375e+08 0.0000000000000000e+00 1.6122888431458375e+08 4.4223501461308175e+08 0.0000000000000000e+00 0.0000000000000000e+00 0.0000000000000000e+00 0.0000000000000000e+00  -1.6171751702572345e+06 7.9258995060692150e+06 0.0000000000000000e+00 7.9258995060692169e+06 5.9361838212950267e+06 0.0000000000000000e+00 0.0000000000000000e+00 0.0000000000000000e+00 0.0000000000000000e+00  -1.3444269890862006e+08 2.9127327380774520e+07 0.0000000000000000e+00 2.9127327380774520e+07 7.3524440167119813e+08 0.0000000000000000e+00 0.0000000000000000e+00 0.0000000000000000e+00 0.0000000000000000e+00  -8.1313362333301827e+06 8.4638114750116062e+05 0.0000000000000000e+00 8.4638114750116004e+05 -3.1012239072094243e+06 0.0000000000000000e+00 0.0000000000000000e+00 0.0000000000000000e+00 0.0000000000000000e+00  -9.4493627851486485e+06 -1.2414157912640655e+08 0.0000000000000000e+00 -1.2414157912640655e+08 5.4532992792766011e+08 0.0000000000000000e+00 0.0000000000000000e+00 0.0000000000000000e+00 0.0000000000000000e+00  -8.5262555947715547e+06 4.0287657292267215e+06 0.0000000000000000e+00 4.0287657292267224e+06 -1.6736956187721665e+06 0.0000000000000000e+00 0.0000000000000000e+00 0.0000000000000000e+00 0.0000000000000000e+00  -2.9276417652354226e+07 5.7763804397885516e+07 0.0000000000000000e+00 5.7763804397885516e+07 2.8576567593420953e+08 0.0000000000000000e+00 0.0000000000000000e+00 0.0000000000000000e+00 0.0000000000000000e+00  -1.1382137359080130e+07 6.4423240399578717e+06 0.0000000000000000e+00 6.4423240399578717e+06 -3.0240248099669493e+06 0.0000000000000000e+00 0.0000000000000000e+00 0.0000000000000000e+00 0.0000000000000000e+00  -5.4506159062518455e+07 3.7448483396808960e+07 0.0000000000000000e+00 3.7448483396808960e+07 2.8696923540345806e+08 0.0000000000000000e+00 0.0000000000000000e+00 0.0000000000000000e+00 0.0000000000000000e+00  -9.7104945449726209e+06 4.3888938528591245e+06 0.0000000000000000e+00 4.3888938528591236e+06 -4.6374917600041647e+06 0.0000000000000000e+00 0.0000000000000000e+00 0.0000000000000000e+00 0.0000000000000000e+00  -6.9662728463811606e+07 4.4071828491749084e+06 0.0000000000000000e+00 4.4071828491749084e+06 2.6024209703784138e+08 0.0000000000000000e+00 0.0000000000000000e+00 0.0000000000000000e+00 0.0000000000000000e+00  -9.1410404053061195e+06 4.8049727829953404e+06 0.0000000000000000e+00 4.8049727829953423e+06 -2.8609047313933661e+06 0.0000000000000000e+00 0.0000000000000000e+00 0.0000000000000000e+00 0.0000000000000000e+00  -6.8467324022585109e+07 -4.3923408791817985e+07 0.0000000000000000e+00 -4.3923408791817985e+07 2.0116661769878674e+08 0.0000000000000000e+00 0.0000000000000000e+00 0.0000000000000000e+00 0.0000000000000000e+00  -7.9760763536583912e+06 4.9832059599111062e+06 0.0000000000000000e+00 4.9832059599111099e+06 -2.6156165264722072e+06 0.0000000000000000e+00 0.0000000000000000e+00 0.0000000000000000e+00 0.0000000000000000e+00  -6.2655197751707487e+07 -8.8257119906848907e+07 0.0000000000000000e+00 -8.8257119906848907e+07 1.3234400615757832e+08 0.0000000000000000e+00 0.0000000000000000e+00 0.0000000000000000e+00 0.0000000000000000e+00  -5.5828562260426320e+06 4.1747879576642755e+06 0.0000000000000000e+00 4.1747879576642714e+06 -2.5569840110150501e+06 0.0000000000000000e+00 0.0000000000000000e+00 0.0000000000000000e+00 0.0000000000000000e+00  -2.3579778654502016e+06 -8.9700200885685369e+07 0.0000000000000000e+00 -8.9700200885685369e+07 1.7599796036694273e+07 0.0000000000000000e+00 0.0000000000000000e+00 0.0000000000000000e+00 0.0000000000000000e+00  -4.5885844673680011e+06 3.7878534841400003e+06 0.0000000000000000e+00 3.7878534841399998e+06 -2.3398727581240586e+06 0.0000000000000000e+00 0.0000000000000000e+00 0.0000000000000000e+00 0.0000000000000000e+00  -1.7665116034998241e+08 -1.0109952392180977e+07 0.0000000000000000e+00 -1.0109952392180977e+07 -3.5853366349214725e+07 0.0000000000000000e+00 0.0000000000000000e+00 0.0000000000000000e+00 0.0000000000000000e+00  -3.3325233554721810e+06 3.1717451602059458e+06 0.0000000000000000e+00 3.1717451602059472e+06 -2.6687078429427790e+06 0.0000000000000000e+00 0.0000000000000000e+00 0.0000000000000000e+00 0.0000000000000000e+00  -1.0237735574126184e+08 -7.6464901979155779e+07 0.0000000000000000e+00 -7.6464901979155779e+07 -2.7106398324174177e+07 0.0000000000000000e+00 0.0000000000000000e+00 0.0000000000000000e+00 0.0000000000000000e+00  -2.4628153225588691e+06 2.7597927083786787e+06 0.0000000000000000e+00 2.7597927083786759e+06 -3.0629466326271188e+06 0.0000000000000000e+00 0.0000000000000000e+00 0.0000000000000000e+00 0.0000000000000000e+00  -9.7814802808225051e+07 -2.4546132641808379e+07 0.0000000000000000e+00 -2.4546132641808379e+07 -3.1729574287393305e+07 0.0000000000000000e+00 0.0000000000000000e+00 0.0000000000000000e+00 0.0000000000000000e+00  -1.6876576330063213e+06 2.4417589569376670e+06 0.0000000000000000e+00 2.4417589569376665e+06 -3.6357195957415155e+06 0.0000000000000000e+00 0.0000000000000000e+00 0.0000000000000000e+00 0.0000000000000000e+00  -6.0325731475074932e+07 -3.2672268284236707e+07 0.0000000000000000e+00 -3.2672268284236707e+07 -1.8167741584601566e+07 0.0000000000000000e+00 0.0000000000000000e+00 0.0000000000000000e+00 0.0000000000000000e+00  -9.0432835013648972e+05 2.0470608974650761e+06 0.0000000000000000e+00 2.0470608974650768e+06 -4.1171565808828943e+06 0.0000000000000000e+00 0.0000000000000000e+00 0.0000000000000000e+00 0.0000000000000000e+00  -1.0704693673233689e+08 -2.2538015103581600e+07 0.0000000000000000e+00 -2.2538015103581600e+07 -3.6178903411669360e+05 0.0000000000000000e+00 0.0000000000000000e+00 0.0000000000000000e+00 0.0000000000000000e+00  -5.6970394308587036e+05 1.6385597653791576e+06 0.0000000000000000e+00 1.6385597653791574e+06 -5.0702139182349052e+06 0.0000000000000000e+00 0.0000000000000000e+00 0.0000000000000000e+00 0.0000000000000000e+00  -7.1491264959145233e+07 -1.7698655315177791e+07 0.0000000000000000e+00 -1.7698655315177791e+07 -6.8193555783652933e+05 0.0000000000000000e+00 0.0000000000000000e+00 0.0000000000000000e+00 0.0000000000000000e+00  -4.9420970937677583e+05 1.4097789921509642e+06 0.0000000000000000e+00 1.4097789921509635e+06 -5.9146746185484398e+06 0.0000000000000000e+00 0.0000000000000000e+00 0.0000000000000000e+00 0.0000000000000000e+00  -6.1025463331057206e+07 -1.0547924644216787e+07 0.0000000000000000e+00 -1.0547924644216787e+07 -2.0557901323749756e+06 0.0000000000000000e+00 0.0000000000000000e+00 0.0000000000000000e+00 0.0000000000000000e+00  -5.9916956852697721e+05 9.8168844540243724e+05 0.0000000000000000e+00 9.8168844540243701e+05 -6.8377958326460058e+06 0.0000000000000000e+00 0.0000000000000000e+00 0.0000000000000000e+00 0.0000000000000000e+00  -5.6182113616942242e+07 -4.3725084625010965e+06 0.0000000000000000e+00 -4.3725084625010965e+06 -5.2898281210567802e+05 0.0000000000000000e+00 0.0000000000000000e+00 0.0000000000000000e+00 0.0000000000000000e+00  1.9529288037301699e+05 1.0018925150402440e+06 0.0000000000000000e+00 1.0018925150402440e+06 -8.3277231012104452e+06 0.0000000000000000e+00 0.0000000000000000e+00 0.0000000000000000e+00 0.0000000000000000e+00  -4.7684175750707291e+07 -2.9021386732078604e+06 0.0000000000000000e+00 -2.9021386732078604e+06 2.4053229082053664e+05 0.0000000000000000e+00 0.0000000000000000e+00 0.0000000000000000e+00 0.0000000000000000e+00  -4.0037938975704950e+05 5.0495209407972562e+05 0.0000000000000000e+00 5.0495209407972550e+05 -9.4316938819974232e+06 0.0000000000000000e+00 0.0000000000000000e+00 0.0000000000000000e+00 0.0000000000000000e+00  -3.9038529391564332e+07 -2.5389416072268481e+06 0.0000000000000000e+00 -2.5389416072268481e+06 1.4510154002850035e+04 0.0000000000000000e+00 0.0000000000000000e+00 0.0000000000000000e+00 0.0000000000000000e+00  -1.2340274569186626e+06 -6.7862175936964064e+04 0.0000000000000000e+00 -6.7862175936964210e+04 -1.0182342182029489e+07 0.0000000000000000e+00 0.0000000000000000e+00 0.0000000000000000e+00 0.0000000000000000e+00  -3.2355609539052289e+07 -1.0498025991215748e+06 0.0000000000000000e+00 -1.0498025991215748e+06 4.0499879266077332e+04 0.0000000000000000e+00 0.0000000000000000e+00 0.0000000000000000e+00 0.0000000000000000e+00  -7.0552401119604614e+05 9.1306256860427721e+05 0.0000000000000000e+00 9.1306256860427721e+05 -1.1754717350982983e+07 0.0000000000000000e+00 0.0000000000000000e+00 0.0000000000000000e+00 0.0000000000000000e+00  -2.6156701062948231e+07 -2.9292940230565489e+05 0.0000000000000000e+00 -2.9292940230565489e+05 -1.1098610413649763e+05 0.0000000000000000e+00 0.0000000000000000e+00 0.0000000000000000e+00 0.0000000000000000e+00  -8.8739761871996534e+05 1.7336711301257398e+06 0.0000000000000000e+00 1.7336711301257398e+06 -1.2678245331387457e+07 0.0000000000000000e+00 0.0000000000000000e+00 0.0000000000000000e+00 0.0000000000000000e+00  -2.0534319389239538e+07 -5.9419830884783913e+05 0.0000000000000000e+00 -5.9419830884783913e+05 2.1689739012846051e+05 0.0000000000000000e+00 0.0000000000000000e+00 0.0000000000000000e+00 0.0000000000000000e+00  -1.8825984928097995e+06 1.6783879206874180e+06 0.0000000000000000e+00 1.6783879206874180e+06 -1.1975460593077704e+07 0.0000000000000000e+00 0.0000000000000000e+00 0.0000000000000000e+00 0.0000000000000000e+00  -1.5651126999248507e+07 -6.3666871810722398e+05 0.0000000000000000e+00 -6.3666871810722398e+05 -4.2143705643280176e+04 0.0000000000000000e+00 0.0000000000000000e+00 0.0000000000000000e+00 0.0000000000000000e+00  -1.8722844132766996e+06 2.8861510286830482e+06 0.0000000000000000e+00 2.8861510286830501e+06 -1.1936638460229436e+07 0.0000000000000000e+00 0.0000000000000000e+00 0.0000000000000000e+00 0.0000000000000000e+00  -1.2415581804587038e+07 -7.6434998461477540e+05 0.0000000000000000e+00 -7.6434998461477540e+05 1.4918486045860207e+04 0.0000000000000000e+00 0.0000000000000000e+00 0.0000000000000000e+00 0.0000000000000000e+00  8.3045797676462820e+05 3.1267612034215750e+06 0.0000000000000000e+00 3.1267612034215746e+06 -1.7645226161451660e+07 0.0000000000000000e+00 0.0000000000000000e+00 0.0000000000000000e+00 0.0000000000000000e+00  -8.7820289974458124e+06 -1.1425883304151348e+06 0.0000000000000000e+00 -1.1425883304151348e+06 1.0514001899112019e+05 0.0000000000000000e+00 0.0000000000000000e+00 0.0000000000000000e+00 0.0000000000000000e+00  -1.3213637356476735e+06 2.7095978020648933e+06 0.0000000000000000e+00 2.7095978020648928e+06 -1.2877916356029741e+07 0.0000000000000000e+00 0.0000000000000000e+00 0.0000000000000000e+00 0.0000000000000000e+00  -7.3869016915744804e+06 -1.5379877661080398e+06 0.0000000000000000e+00 -1.5379877661080398e+06 -3.8431209474505857e+05 0.0000000000000000e+00 0.0000000000000000e+00 0.0000000000000000e+00 0.0000000000000000e+00  -3.5740968694029702e+05 1.6953760442499463e+06 0.0000000000000000e+00 1.6953760442499463e+06 -1.7956898935908720e+07 0.0000000000000000e+00 0.0000000000000000e+00 0.0000000000000000e+00 0.0000000000000000e+00  -5.4348840450420445e+06 -1.6354897757836317e+06 0.0000000000000000e+00 -1.6354897757836317e+06 -3.0041951997418533e+05 0.0000000000000000e+00 0.0000000000000000e+00 0.0000000000000000e+00 0.0000000000000000e+00  6.4689652335043345e+05 4.5585178238676926e+06 0.0000000000000000e+00 4.5585178238676926e+06 -1.1990026803029785e+07 0.0000000000000000e+00 0.0000000000000000e+00 0.0000000000000000e+00 0.0000000000000000e+00  -4.4283144780565742e+06 -2.0073122055465076e+06 0.0000000000000000e+00 -2.0073122055465076e+06 -7.6389590057588683e+05 0.0000000000000000e+00 0.0000000000000000e+00 0.0000000000000000e+00 0.0000000000000000e+00  -2.9717706672587758e+06 5.2912988787016664e+06 0.0000000000000000e+00 5.2912988787016664e+06 -1.2648802511441033e+07 0.0000000000000000e+00 0.0000000000000000e+00 0.0000000000000000e+00 0.0000000000000000e+00  -3.6270259343244187e+06 -2.5251126068206886e+06 0.0000000000000000e+00 -2.5251126068206886e+06 -1.5368497676350323e+06 0.0000000000000000e+00 0.0000000000000000e+00 0.0000000000000000e+00 0.0000000000000000e+00  -1.2118051033479061e+06 4.5627103192201769e+06 0.0000000000000000e+00 4.5627103192201769e+06 -1.0213998289527811e+07 0.0000000000000000e+00 0.0000000000000000e+00 0.0000000000000000e+00 0.0000000000000000e+00  -3.5548751591008697e+06 -2.6917379722119016e+06 0.0000000000000000e+00 -2.6917379722119016e+06 -1.9032917220757410e+06 0.0000000000000000e+00 0.0000000000000000e+00 0.0000000000000000e+00 0.0000000000000000e+00  -3.2168943454028680e+06 8.0301786355664684e+06 0.0000000000000000e+00 8.0301786355664684e+06 -1.3142886397772752e+07 0.0000000000000000e+00 0.0000000000000000e+00 0.0000000000000000e+00 0.0000000000000000e+00  -2.9896258392185918e+06 -3.1715490816198876e+06 0.0000000000000000e+00 -3.1715490816198876e+06 -2.9879223698630771e+06 0.0000000000000000e+00 0.0000000000000000e+00 0.0000000000000000e+00 0.0000000000000000e+00  -3.5383917952324329e+06 5.5873414651243696e+06 0.0000000000000000e+00 5.5873414651243696e+06 -8.5665903688564524e+06 0.0000000000000000e+00 0.0000000000000000e+00 0.0000000000000000e+00 0.0000000000000000e+00  -2.8433669100178815e+06 -3.5117148549166229e+06 0.0000000000000000e+00 -3.5117148549166229e+06 -4.2470562180813048e+06 0.0000000000000000e+00 0.0000000000000000e+00 0.0000000000000000e+00 0.0000000000000000e+00  -7.8564337167244712e+06 7.7534702007147847e+06 0.0000000000000000e+00 7.7534702007147847e+06 -9.4326659237632025e+06 0.0000000000000000e+00 0.0000000000000000e+00 0.0000000000000000e+00 0.0000000000000000e+00  -3.3950847168674204e+06 -4.8552199994186452e+06 0.0000000000000000e+00 -4.8552199994186452e+06 -6.4846067259691879e+06 0.0000000000000000e+00 0.0000000000000000e+00 0.0000000000000000e+00 0.0000000000000000e+00  -1.0100531688073752e+07 7.8965139374901690e+06 0.0000000000000000e+00 7.8965139374901690e+06 -7.0799644778228793e+06 0.0000000000000000e+00 0.0000000000000000e+00 0.0000000000000000e+00 0.0000000000000000e+00  -3.4981316640549395e+06 -5.4918513094515465e+06 0.0000000000000000e+00 -5.4918513094515465e+06 -8.5697528050134890e+06 0.0000000000000000e+00 0.0000000000000000e+00 0.0000000000000000e+00 0.0000000000000000e+00  -1.1606865080151713e+07 8.5319031786044389e+06 0.0000000000000000e+00 8.5319031786044389e+06 -6.9328693279817859e+06 0.0000000000000000e+00 0.0000000000000000e+00 0.0000000000000000e+00 0.0000000000000000e+00  -3.8953794735584683e+06 -6.6510798559364192e+06 0.0000000000000000e+00 -6.6510798559364192e+06 -1.0970107398775961e+07 0.0000000000000000e+00 0.0000000000000000e+00 0.0000000000000000e+00 0.0000000000000000e+00  -1.4376738735217217e+07 7.1727906029329943e+06 0.0000000000000000e+00 7.1727906029329943e+06 -4.0451598360523707e+06 0.0000000000000000e+00 0.0000000000000000e+00 0.0000000000000000e+00 0.0000000000000000e+00  -4.7160232282892456e+06 -8.1098304889817098e+06 0.0000000000000000e+00 -8.1098304889817052e+06 -1.4022037159896085e+07 0.0000000000000000e+00 0.0000000000000000e+00 0.0000000000000000e+00 0.0000000000000000e+00  -1.4708084116657617e+07 5.7374641872871621e+06 0.0000000000000000e+00 5.7374641872871621e+06 -2.3997852354705362e+06 0.0000000000000000e+00 0.0000000000000000e+00 0.0000000000000000e+00 0.0000000000000000e+00  -5.6736996246937541e+06 -9.6008812136209421e+06 0.0000000000000000e+00 -9.6008812136209477e+06 -1.6433987097557386e+07 0.0000000000000000e+00 0.0000000000000000e+00 0.0000000000000000e+00 0.0000000000000000e+00  -1.2860525060457950e+07 3.2654979941284917e+06 0.0000000000000000e+00 3.2654979941284917e+06 -1.3961244728266350e+06 0.0000000000000000e+00 0.0000000000000000e+00 0.0000000000000000e+00 0.0000000000000000e+00  -6.9886450038063927e+06 -1.1420640185739527e+07 0.0000000000000000e+00 -1.1420640185739517e+07 -1.9021463777012967e+07 0.0000000000000000e+00 0.0000000000000000e+00 0.0000000000000000e+00 0.0000000000000000e+00  -1.1335694858476415e+07 1.3391779998511374e+06 0.0000000000000000e+00 1.3391779998511374e+06 -5.7185873085547506e+05 0.0000000000000000e+00 0.0000000000000000e+00 0.0000000000000000e+00 0.0000000000000000e+00  -8.4003824369082861e+06 -1.3017178281656591e+07 0.0000000000000000e+00 -1.3017178281656591e+07 -2.06779678