<?xml version="1.0"?>
<VTKFile type="UnstructuredGrid"  version="0.1"  >
<UnstructuredGrid>
<Piece  NumberOfPoints="1799" NumberOfCells="3156">
<Points>
<DataArray  type="Float64"  NumberOfComponents="3"  format="ascii">1.694065894508601e-21 0.008447317744001559 0  0 0.006243487017789186 0  0 0.01 0  0.01 0.01 0  0.01 0.004739447698251261 0  0.01 0.003038811340045742 0  0.01 0 0  0 0 0  0.00972274937591714 0.00446136709 0  0.009653726258356362 0.004545183154286949 0  0.009783606631901408 0.0043734488461064 0  0.009577812281436313 0.004624366443043088 0  0.009835143529851395 0.004282096254618384 0  0.009496374895431106 0.004698536913086191 0  0.009876351429728553 0.004188097333533943 0  0.009410843899527923 0.004767474310794485 0  0.009906389591104073 0.004092339945416686 0  0.009322680015752169 0.00483112308721043 0  0.009924603388293412 0.003995788691361544 0  0.009233342881914028 0.004889592860194898 0  0.009930538269388231 0.00389945963832429 0  0.009144259222736564 0.004943154406398476 0  0.009923949134101986 0.003804393533973133 0  0.009056791952980949 0.004992231280310688 0  0.009904804916195522 0.003711628202889073 0  0.00897221094262878 0.005037387269757166 0  0.009873288272257268 0.003622170840092915 0  0.008891666132610079 0.005079310004121139 0  0.009829790396922524 0.003536970921943865 0  0.008816163631214721 0.005118791130579932 0  0.009774901102315603 0.003456894440322572 0  0.008746545347644217 0.005156703562277342 0  0.009709394413691105 0.003382700134020289 0  0.008683472631978471 0.005193976378365099 0  0.009634210041128223 0.00331501834219343 0  0.008627414292309099 0.005231568017322153 0  0.009550431186043644 0.003254333039822774 0  0.008578639252366998 0.005270438450342868 0  0.009459259228807002 0.003200967535951617 0  0.008537213999305775 0.005311521049719365 0  0.00936198591772306 0.003155074224035663 0  0.008503004854204898 0.00535569487730484 0  0.009259963738278846 0.00311662867229655 0  0.008475684980220988 0.005403758110057852 0  0.009154575183414377 0.003085428233059718 0  0.008454745928046752 0.005456403293512485 0  0.009047201669650919 0.00306109523639258 0  0.008439513408278112 0.005514195070427174 0  0.008939192849631329 0.003043084717779311 0  0.008429166878152986 0.005577550971903466 0  0.008831837058876933 0.003030696514962359 0  0.008422762438422462 0.005646725783411865 0  0.008726333603687408 0.003023091458314896 0  0.008419258457098896 0.005721799910265017 0  0.008623767548895558 0.003019311274956418 0  0.008417543272430451 0.005802672068315741 0  0.008525087599857118 0.003018301731897273 0  0.008416464279248125 0.00588905651847861 0  0.008431087594226352 0.003018938460180701 0  0.008414857671986093 0.005980484950740676 0  0.008342392027717107 0.003020054832380215 0  0.008411578104923951 0.00607631300744762 0  0.008259445936461489 0.003020471211663848 0  0.008405527535824455 0.006175731319709577 0  0.008182509349292211 0.003019024853329008 0  0.008395682542970321 0.006277780817654691 0  0.008111656409014527 0.003014599720199745 0  0.008381119447013561 0.006381371967788657 0  0.008046779145346881 0.003006155472077048 0  0.008361036626979524 0.006485307491577932 0  0.007987595766591686 0.002992754906602592 0  0.008334773492744059 0.006588308031041598 0  0.007933663225123278 0.002973589164041123 0  0.008301825662481763 0.006689040151823762 0  0.007884393706229835 0.002948000060762873 0  0.008261855990795578 0.006786146013815808 0  0.007839074593337327 0.002915498984345503 0  0.00821470119903896 0.006878273995427361 0  0.00779689137756701 0.002875781865550529 0  0.008160373971076945 0.006964109531182152 0  0.007756952908035942 0.002828739836943341 0  0.008099060492600814 0.007042405414120494 0  0.007718318323066783 0.002774465292296384 0  0.008031113527237115 0.007112010824752832 0  0.007680024962909086 0.00271325317257295 0  0.00795704123519566 0.007171898376800313 0  0.007641116542652925 0.002645597420482335 0  0.007877492047271241 0.007221188515997342 0  0.007600670860259881 0.002572182663460059 0  0.007793236005976425 0.007259170670701667 0  0.007557826329114609 0.002493871301548735 0  0.007705143073969071 0.007285320630435001 0  0.007511806656826274 0.002411686289155665 0  0.007614158985545023 0.007299313718867113 0  0.007461943041351158 0.002326790005260706 0  0.007521279277912055 0.0073010334289404 0  0.007407693320609463 0.002240459702730237 0  0.007427522183731196 0.007290575297323677 0  0.007348657590981677 0.002154060111582997 0  0.007333901093897399 0.007268245910489354 0  0.007284589901391725 0.00206901384126507 0  0.007241397309057064 0.007234557052593699 0  0.007215405730813352 0.001986770281484875 0  0.007150933789699272 0.00719021512310135 0  0.007141185065425865 0.001908773738582196 0  0.007063350588039396 0.007136106066830752 0  0.007062171004568673 0.001836431563827099 0  0.006979382601016691 0.007073276167978721 0  0.006978763939261549 0.001771083030979474 0  0.006899640223662019 0.007002909160025809 0  0.006891511460488134 0.001713969702858609 0  0.006824593407373458 0.006926300192755933 0  0.006801094263833782 0.001666207991002947 0  0.006754559540147956 0.006844827273742502 0  0.006708308419676155 0.00162876455961884 0  0.006689695467758148 0.006759920862683462 0  0.006614044471369561 0.001602435156224392 0  0.006629993868701035 0.006673032341407502 0  0.006519263905397843 0.001587827368384263 0  0.006575284084148806 0.006585602109130518 0  0.006424973605244305 0.00158534771074889 0  0.006525237389907268 0.006499028060960921 0  0.006332198953034525 0.001595193341602671 0  0.006479376583406328 0.006414635197532647 0  0.006241956278528544 0.001617348595877673 0  0.006437089647876208 0.006333647085242707 0  0.006155225372873471 0.001651586404869184 0  0.006397647150892512 0.00625715984059454 0  0.00607292278421836 0.001697474554571888 0  0.006360222938045857 0.006186119249742206 0  0.005995876593836629 0.001754386617555196 0  0.006323917597038065 0.006121301557042314 0  0.005924803335248409 0.001821517280492992 0  0.006287784095183865 0.006063298366166584 0  0.005860287665879005 0.001897901683632007 0  0.0062508549359344 0.00601250599634399 0  0.00580276533234513 0.001982438292224905 0  0.006212170139093256 0.005969119527087292 0  0.005752509888229881 0.002073914735631396 0  0.006170805325914 0.005933131650016665 0  0.005709623529238961 0.002171035979469365 0  0.00612589918486164 0.005904336328960144 0  0.005674032307267846 0.002272454141595308 0  0.006076679606648487 0.005882337152288339 0  0.005645485874731519 0.002376799225137041 0  0.006022487807921907 0.005866560147323738 0  0.005623561796267508 0.002482710022195841 0  0.005962799810943057 0.005856270718467968 0  0.005607674349474454 0.002588864440638754 0  0.005897244710577686 0.005850594271079678 0  0.005597087622580383 0.002694008523617222 0  0.005825619238346946 0.005848539994562327 0  0.005590932607696336 0.002796983466621648 0  0.005747898224220681 0.005849027202760175 0  0.005588227886339777 0.002896749989114506 0  0.005664240658026499 0.005850913569457749 0  0.005587903411768036 0.002992409485755934 0  0.005574991161285845 0.005853024553003058 0  0.00558882681266186 0.003083221464236011 0  0.005480676794268173 0.0058541832778865 0  0.005589831576859201 0.003168616870700337 0  0.005381999239242995 0.005853240133126504 0  0.005589746423825433 0.003248207007348517 0  0.005279822516415462 0.005849101357707455 0  0.005587425141631403 0.00332178785741102 0  0.005175156500976945 0.005840755911796739 0  0.005581776149243588 0.003389339747608045 0  0.00506913661529584 0.005827299978297529 0  0.005571791048314209 0.003451022394501277 0  0.004963000166879053 0.005807958501303589 0  0.005556571450340227 0.003507165495970296 0  0.004858059887934908 0.005782103244641807 0  0.005535353404530312 0.003558255139524018 0  0.004755675304028876 0.005749266942985061 0  0.005507528808027482 0.003604916402549837 0  0.004657222615643685 0.005709153217746636 0  0.005472663251911699 0.003647892613343369 0  0.004564063816013228 0.005661642037623928 0  0.005430509841895833 0.003688021823527707 0  0.004477515790388595 0.00560679061654508 0  0.005381018629732107 0.003726211110241175 0  0.004398820145347423 0.005544829757060492 0  0.005324341397676651 0.003763409378575775 0  0.004329114501762111 0.00547615576202805 0  0.00526083165129817 0.003800579369906148 0  0.004269405951942947 0.005401318148896703 0  0.005191039792677943 0.00383866959910631 0  0.004220547331062618 0.005321003506214064 0  0.005115703563750334 0.003878586942798619 0  0.004183216886472467 0.005236015928541855 0  0.005035733965268281 0.003921170581761714 0  0.004157901847560569 0.005147254551350707 0  0.004952196967785547 0.00396716796394016 0  0.004144886305359802 0.005055688779556268 0  0.004866291434383562 0.004017213401087919 0  0.004144243707482425 0.004962331860358698 0  0.004779323768077839 0.004071809843297703 0  0.004155834162682716 0.004868213491542542 0  0.004692679877608203 0.004131314293258991 0  0.004179306633167043 0.004774352179382177 0  0.004607795121646793 0.004195927228129257 0  0.004214105974540842 0.0046817280652164 0  0.004526122941701917 0.004265686293763611 0  0.004259484665915422 0.004591256926493267 0  0.004449102926905492 0.004340464426324128 0  0.004314518959085191 0.004503766026986902 0  0.004378129068627031 0.004419972442741865 0  0.00593001182314166 0.006372403387971871 0  0.005939572443554628 0.006436360317137665 0  0.005925376372385204 0.006368751471385894 0  0.005946732308607814 0.006530898816930391 0  0.005866840669782601 0.00633199119654035 0  0.00594701266737181 0.006625814903473438 0  0.005804249765180952 0.006301600770407027 0  0.005940440295727538 0.006720641436504761 0  0.00573695820405656 0.00627701458488837 0  0.005927101959384199 0.006814914480349616 0  0.00566445506679863 0.006257506825568757 0  0.005907143630376305 0.006908179927508449 0  0.005586382222683439 0.006242212086839124 0  0.005880768731714959 0.007 0  0.005502548881191342 0.006230149145824911 0  0.00584823543546249 0.007089959498878739 0  0.0054129
[...]
<PointData  Tensors="$\sigma$"> 
<DataArray  type="Float64"  Name="$\sigma$"  NumberOfComponents="9" format="ascii">-1.2934016974860281e+07 4.2928778322912097e+07 0.0000000000000000e+00 4.2928778322912097e+07 3.5116577149610662e+08 0.0000000000000000e+00 0.0000000000000000e+00 0.0000000000000000e+00 0.0000000000000000e+00  -2.0256581638214786e+07 -3.3814036583169080e+07 0.0000000000000000e+00 -3.3814036583169051e+07 2.1083923535030168e+08 0.0000000000000000e+00 0.0000000000000000e+00 0.0000000000000000e+00 0.0000000000000000e+00  1.0658795881825099e+07 1.7991241393066400e+06 0.0000000000000000e+00 1.7991241393066437e+06 1.7555669255508444e+08 0.0000000000000000e+00 0.0000000000000000e+00 0.0000000000000000e+00 0.0000000000000000e+00  5.4931276366123246e+04 5.4937236892497819e+05 0.0000000000000000e+00 5.4937236892497807e+05 6.2440152081530631e+07 0.0000000000000000e+00 0.0000000000000000e+00 0.0000000000000000e+00 0.0000000000000000e+00  -1.3503496228454802e+07 -3.0721879517129302e+07 0.0000000000000000e+00 -3.0721879517129302e+07 1.8250033975719643e+08 0.0000000000000000e+00 0.0000000000000000e+00 0.0000000000000000e+00 0.0000000000000000e+00  -1.2711997401413184e+07 7.1335572237102613e+07 0.0000000000000000e+00 7.1335572237102613e+07 2.7735365661671269e+08 0.0000000000000000e+00 0.0000000000000000e+00 0.0000000000000000e+00 0.0000000000000000e+00  2.9897172067022678e+06 5.9245447942268918e+05 0.0000000000000000e+00 5.9245447942268872e+05 1.0915191365258831e+08 0.0000000000000000e+00 0.0000000000000000e+00 0.0000000000000000e+00 0.0000000000000000e+00  1.8407613279672241e+05 1.6813316786367979e+05 0.0000000000000000e+00 1.6813316786368002e+05 6.0645214536358155e+07 0.0000000000000000e+00 0.0000000000000000e+00 0.0000000000000000e+00 0.0000000000000000e+00  2.7473150997926053e+07 1.8840618763362639e+07 0.0000000000000000e+00 1.8840618763362650e+07 3.4428032571527576e+08 0.0000000000000000e+00 0.0000000000000000e+00 0.0000000000000000e+00 0.0000000000000000e+00  6.1782590626274921e+07 3.0284788423809424e+07 0.0000000000000000e+00 3.0284788423809402e+07 1.8164906179031155e+08 0.0000000000000000e+00 0.0000000000000000e+00 0.0000000000000000e+00 0.0000000000000000e+00  -2.6060826208499834e+07 -4.3195566679199025e+07 0.0000000000000000e+00 -4.3195566679199032e+07 4.9542209162241077e+08 0.0000000000000000e+00 0.0000000000000000e+00 0.0000000000000000e+00 0.0000000000000000e+00  7.9529332407402143e+07 -4.5510309658349231e+06 0.0000000000000000e+00 -4.5510309658349277e+06 9.3056364211003795e+07 0.0000000000000000e+00 0.0000000000000000e+00 0.0000000000000000e+00 0.0000000000000000e+00  2.8699080522427303e+06 -1.1817443121623062e+08 0.0000000000000000e+00 -1.1817443121623059e+08 5.9102750533474958e+08 0.0000000000000000e+00 0.0000000000000000e+00 0.0000000000000000e+00 0.0000000000000000e+00  8.7786339606141821e+07 -5.3012687273023836e+05 0.0000000000000000e+00 -5.3012687273022824e+05 3.5910643980905138e+07 0.0000000000000000e+00 0.0000000000000000e+00 0.0000000000000000e+00 0.0000000000000000e+00  -2.5426671268739216e+07 -1.6304339998802733e+08 0.0000000000000000e+00 -1.6304339998802727e+08 6.2395364821350944e+08 0.0000000000000000e+00 0.0000000000000000e+00 0.0000000000000000e+00 0.0000000000000000e+00  -3.1074872056331553e+07 -3.0143301339002132e+07 0.0000000000000000e+00 -3.0143301339002106e+07 5.0161779191639878e+07 0.0000000000000000e+00 0.0000000000000000e+00 0.0000000000000000e+00 0.0000000000000000e+00  6.8893760173469007e+07 -1.7823304639546400e+08 0.0000000000000000e+00 -1.7823304639546400e+08 6.0107878159642804e+08 0.0000000000000000e+00 0.0000000000000000e+00 0.0000000000000000e+00 0.0000000000000000e+00  1.4187346235793037e+07 2.4465561265931331e+07 0.0000000000000000e+00 2.4465561265931338e+07 4.7719721750559956e+07 0.0000000000000000e+00 0.0000000000000000e+00 0.0000000000000000e+00 0.0000000000000000e+00  -6.8163912745039249e+06 3.6316063945257270e+08 0.0000000000000000e+00 3.6316063945257270e+08 9.7414856948276103e+08 0.0000000000000000e+00 0.0000000000000000e+00 0.0000000000000000e+00 0.0000000000000000e+00  -1.2055239736050747e+07 2.7974614457815107e+07 0.0000000000000000e+00 2.7974614457815114e+07 1.4510374501265949e+07 0.0000000000000000e+00 0.0000000000000000e+00 0.0000000000000000e+00 0.0000000000000000e+00  -2.9555570625600916e+08 6.3116159452137284e+07 0.0000000000000000e+00 6.3116159452137284e+07 1.7363228270537112e+09 0.0000000000000000e+00 0.0000000000000000e+00 0.0000000000000000e+00 0.0000000000000000e+00  -2.0699630004326690e+07 -6.2767734137622756e+05 0.0000000000000000e+00 -6.2767734137622814e+05 -2.3071928233017690e+07 0.0000000000000000e+00 0.0000000000000000e+00 0.0000000000000000e+00 0.0000000000000000e+00  3.8992610091117434e+07 -2.5851317710846257e+08 0.0000000000000000e+00 -2.5851317710846257e+08 1.2339959736282907e+09 0.0000000000000000e+00 0.0000000000000000e+00 0.0000000000000000e+00 0.0000000000000000e+00  -2.7092247641079132e+07 9.5451050376663823e+06 0.0000000000000000e+00 9.5451050376663841e+06 -3.2031587453813264e+06 0.0000000000000000e+00 0.0000000000000000e+00 0.0000000000000000e+00 0.0000000000000000e+00  -8.1289090786285430e+07 1.2431245518945880e+08 0.0000000000000000e+00 1.2431245518945876e+08 6.2179108348096406e+08 0.0000000000000000e+00 0.0000000000000000e+00 0.0000000000000000e+00 0.0000000000000000e+00  -3.2871277550949298e+07 1.9273777159469485e+07 0.0000000000000000e+00 1.9273777159469489e+07 -7.9155705745221647e+06 0.0000000000000000e+00 0.0000000000000000e+00 0.0000000000000000e+00 0.0000000000000000e+00  -1.1369986135740063e+08 7.6753348018240407e+07 0.0000000000000000e+00 7.6753348018240422e+07 6.3647417673013115e+08 0.0000000000000000e+00 0.0000000000000000e+00 0.0000000000000000e+00 0.0000000000000000e+00  -2.3432291597748753e+07 7.4044499906395953e+06 0.0000000000000000e+00 7.4044499906395925e+06 -1.6700077341898935e+07 0.0000000000000000e+00 0.0000000000000000e+00 0.0000000000000000e+00 0.0000000000000000e+00  -1.6468772656635395e+08 5.0406209195306282e+06 0.0000000000000000e+00 5.0406209195306469e+06 5.7766862261782050e+08 0.0000000000000000e+00 0.0000000000000000e+00 0.0000000000000000e+00 0.0000000000000000e+00  -2.4304135922448017e+07 1.1143613424767351e+07 0.0000000000000000e+00 1.1143613424767355e+07 -6.6833554732458871e+06 0.0000000000000000e+00 0.0000000000000000e+00 0.0000000000000000e+00 0.0000000000000000e+00  -1.4857139017815587e+08 -1.0539073683296046e+08 0.0000000000000000e+00 -1.0539073683296049e+08 4.3263074280264038e+08 0.0000000000000000e+00 0.0000000000000000e+00 0.0000000000000000e+00 0.0000000000000000e+00  -2.0524055833716698e+07 1.1999003136309285e+07 0.0000000000000000e+00 1.1999003136309285e+07 -5.0332570014668787e+06 0.0000000000000000e+00 0.0000000000000000e+00 0.0000000000000000e+00 0.0000000000000000e+00  -1.4045527111379260e+08 -2.0903466661384648e+08 0.0000000000000000e+00 -2.0903466661384645e+08 2.9856762776707172e+08 0.0000000000000000e+00 0.0000000000000000e+00 0.0000000000000000e+00 0.0000000000000000e+00  -1.0331198998709636e+07 9.7385846791913547e+06 0.0000000000000000e+00 9.7385846791913584e+06 -6.0778916441400452e+06 0.0000000000000000e+00 0.0000000000000000e+00 0.0000000000000000e+00 0.0000000000000000e+00  -1.3618791911339445e+07 -2.0435661683760497e+08 0.0000000000000000e+00 -2.0435661683760497e+08 9.7876940829044990e+06 0.0000000000000000e+00 0.0000000000000000e+00 0.0000000000000000e+00 0.0000000000000000e+00  -1.1537241724773651e+07 8.7664426575677674e+06 0.0000000000000000e+00 8.7664426575677693e+06 -5.3114641290575918e+06 0.0000000000000000e+00 0.0000000000000000e+00 0.0000000000000000e+00 0.0000000000000000e+00  -4.6759656679864401e+08 -1.3425275816574201e+07 0.0000000000000000e+00 -1.3425275816574231e+07 -1.2618429858986244e+08 0.0000000000000000e+00 0.0000000000000000e+00 0.0000000000000000e+00 0.0000000000000000e+00  -9.0571284416686110e+06 7.0209758399904910e+06 0.0000000000000000e+00 7.0209758399904883e+06 -5.8554593543532975e+06 0.0000000000000000e+00 0.0000000000000000e+00 0.0000000000000000e+00 0.0000000000000000e+00  -2.2495632927978045e+08 -1.8655845118369207e+08 0.0000000000000000e+00 -1.8655845118369207e+08 -4.1880284845644943e+07 0.0000000000000000e+00 0.0000000000000000e+00 0.0000000000000000e+00 0.0000000000000000e+00  -6.2115310626277421e+06 5.7112459136736589e+06 0.0000000000000000e+00 5.7112459136736514e+06 -6.6854721417083666e+06 0.0000000000000000e+00 0.0000000000000000e+00 0.0000000000000000e+00 0.0000000000000000e+00  -2.5571739130144337e+08 -7.1531427190513730e+07 0.0000000000000000e+00 -7.1531427190513760e+07 -9.8832944263241068e+07 0.0000000000000000e+00 0.0000000000000000e+00 0.0000000000000000e+00 0.0000000000000000e+00  -6.0403502221616590e+06 5.0419715632464392e+06 0.0000000000000000e+00 5.0419715632464392e+06 -8.5567731615469363e+06 0.0000000000000000e+00 0.0000000000000000e+00 0.0000000000000000e+00 0.0000000000000000e+00  -1.1244780678332075e+08 -7.2939631888951614e+07 0.0000000000000000e+00 -7.2939631888951600e+07 -4.9252975347973034e+07 0.0000000000000000e+00 0.0000000000000000e+00 0.0000000000000000e+00 0.0000000000000000e+00  -2.9728025855045030e+06 4.7222907622161107e+06 0.0000000000000000e+00 4.7222907622161191e+06 -9.3356587631870396e+06 0.0000000000000000e+00 0.0000000000000000e+00 0.0000000000000000e+00 0.0000000000000000e+00  -2.8799132450245607e+08 -4.3200314161324695e+07 0.0000000000000000e+00 -4.3200314161324725e+07 -1.6814918336913371e+05 0.0000000000000000e+00 0.0000000000000000e+00 0.0000000000000000e+00 0.0000000000000000e+00  -2.5131389897120567e+06 3.9274890720734843e+06 0.0000000000000000e+00 3.9274890720734885e+06 -1.2184697641185930e+07 0.0000000000000000e+00 0.0000000000000000e+00 0.0000000000000000e+00 0.0000000000000000e+00  -1.6635292779433930e+08 -4.2505381400129035e+07 0.0000000000000000e+00 -4.2505381400129035e+07 1.0481366898388291e+07 0.0000000000000000e+00 0.0000000000000000e+00 0.0000000000000000e+00 0.0000000000000000e+00  -4.6552168796351561e+06 3.2603047722684979e+06 0.0000000000000000e+00 3.2603047722684983e+06 -1.4514628118289096e+07 0.0000000000000000e+00 0.0000000000000000e+00 0.0000000000000000e+00 0.0000000000000000e+00  -1.3508388880542797e+08 -1.8769633557583570e+07 0.0000000000000000e+00 -1.8769633557583570e+07 -2.7284942192659313e+06 0.0000000000000000e+00 0.0000000000000000e+00 0.0000000000000000e+00 0.0000000000000000e+00  -3.6677832932221340e+06 2.1753218996746247e+06 0.0000000000000000e+00 2.1753218996746256e+06 -1.7282078512361564e+07 0.0000000000000000e+00 0.0000000000000000e+00 0.0000000000000000e+00 0.0000000000000000e+00  -1.2902903779349777e+08 -8.6128018809832092e+06 0.0000000000000000e+00 -8.6128018809832055e+06 4.3892863385649091e+06 0.0000000000000000e+00 0.0000000000000000e+00 0.0000000000000000e+00 0.0000000000000000e+00  3.6366647353595879e+05 2.1376210991303828e+06 0.0000000000000000e+00 2.1376210991303842e+06 -2.0537051818629719e+07 0.0000000000000000e+00 0.0000000000000000e+00 0.0000000000000000e+00 0.0000000000000000e+00  -1.0664340610233018e+08 -4.5889695307909604e+06 0.0000000000000000e+00 -4.5889695307909641e+06 6.0915024700047355e+05 0.0000000000000000e+00 0.0000000000000000e+00 0.0000000000000000e+00 0.0000000000000000e+00  -2.2379499133833707e+06 1.0328073921696815e+06 0.0000000000000000e+00 1.0328073921696816e+06 -2.3836093195010997e+07 0.0000000000000000e+00 0.0000000000000000e+00 0.0000000000000000e+00 0.0000000000000000e+00  -8.6142544546563670e+07 -5.2176282235120917e+06 0.0000000000000000e+00 -5.2176282235120870e+06 2.1423154694691030e+05 0.0000000000000000e+00 0.0000000000000000e+00 0.0000000000000000e+00 0.0000000000000000e+00  -3.8311525514289220e+06 -4.6399516405213618e+05 0.0000000000000000e+00 -4.6399516405213723e+05 -2.4555049595359813e+07 0.0000000000000000e+00 0.0000000000000000e+00 0.0000000000000000e+00 0.0000000000000000e+00  -7.3799849205506191e+07 -1.5433642715740229e+06 0.0000000000000000e+00 -1.5433642715740269e+06 3.7694652009166888e+05 0.0000000000000000e+00 0.0000000000000000e+00 0.0000000000000000e+00 0.0000000000000000e+00  -4.2451505501828599e+05 1.9991309988808322e+06 0.0000000000000000e+00 1.9991309988808322e+06 -2.8982147180082455e+07 0.0000000000000000e+00 0.0000000000000000e+00 0.0000000000000000e+00 0.0000000000000000e+00  -5.7700201840042137e+07 2.5438466218485247e+05 0.0000000000000000e+00 2.5438466218484734e+05 -4.1576052727936819e+05 0.0000000000000000e+00 0.0000000000000000e+00 0.0000000000000000e+00 0.0000000000000000e+00  -3.2577433509592344e+06 4.0028724929963648e+06 0.0000000000000000e+00 4.0028724929963681e+06 -3.0995145651962370e+07 0.0000000000000000e+00 0.0000000000000000e+00 0.0000000000000000e+00 0.0000000000000000e+00  -4.5694348716951303e+07 -9.2019526683075295e+05 0.0000000000000000e+00 -9.2019526683075598e+05 8.6943485702584428e+05 0.0000000000000000e+00 0.0000000000000000e+00 0.0000000000000000e+00 0.0000000000000000e+00  -6.9250892557330495e+06 5.9612698454001741e+06 0.0000000000000000e+00 5.9612698454001704e+06 -3.1003704566104874e+07 0.0000000000000000e+00 0.0000000000000000e+00 0.0000000000000000e+00 0.0000000000000000e+00  -3.4963896703296706e+07 -8.4697185938658402e+05 0.0000000000000000e+00 -8.4697185938658554e+05 -4.0660660081167909e+05 0.0000000000000000e+00 0.0000000000000000e+00 0.0000000000000000e+00 0.0000000000000000e+00  -6.3764637206217535e+06 8.1076722226477657e+06 0.0000000000000000e+00 8.1076722226477684e+06 -3.1132890009980880e+07 0.0000000000000000e+00 0.0000000000000000e+00 0.0000000000000000e+00 0.0000000000000000e+00  -2.7421892823215075e+07 -1.4023306577604718e+06 0.0000000000000000e+00 -1.4023306577604755e+06 9.0207272392079001e+04 0.0000000000000000e+00 0.0000000000000000e+00 0.0000000000000000e+00 0.0000000000000000e+00  7.7463520661519642e+05 8.7087491795321591e+06 0.0000000000000000e+00 8.7087491795321554e+06 -4.4164322062980257e+07 0.0000000000000000e+00 0.0000000000000000e+00 0.0000000000000000e+00 0.0000000000000000e+00  -1.9541444981614824e+07 -2.3694674346041456e+06 0.0000000000000000e+00 -2.3694674346041470e+06 4.0557796334680234e+05 0.0000000000000000e+00 0.0000000000000000e+00 0.0000000000000000e+00 0.0000000000000000e+00  -6.5421393325362913e+06 7.9590687252980899e+06 0.0000000000000000e+00 7.9590687252980825e+06 -3.4346510635503799e+07 0.0000000000000000e+00 0.0000000000000000e+00 0.0000000000000000e+00 0.0000000000000000e+00  -1.6490103280551452e+07 -3.1413020078571108e+06 0.0000000000000000e+00 -3.1413020078571085e+06 -9.6098225861161936e+05 0.0000000000000000e+00 0.0000000000000000e+00 0.0000000000000000e+00 0.0000000000000000e+00  -3.3886939664925183e+06 3.3387149810872278e+06 0.0000000000000000e+00 3.3387149810872334e+06 -4.4690387499681205e+07 0.0000000000000000e+00 0.0000000000000000e+00 0.0000000000000000e+00 0.0000000000000000e+00  -1.2017652632166013e+07 -3.5794423274629232e+06 0.0000000000000000e+00 -3.5794423274629214e+06 -6.4540546608747763e+05 0.0000000000000000e+00 0.0000000000000000e+00 0.0000000000000000e+00 0.0000000000000000e+00  2.8403053870508117e+06 1.1210231351682503e+07 0.0000000000000000e+00 1.1210231351682503e+07 -3.0369149243772969e+07 0.0000000000000000e+00 0.0000000000000000e+00 0.0000000000000000e+00 0.0000000000000000e+00  -9.9875269872714933e+06 -4.3429425394496499e+06 0.0000000000000000e+00 -4.3429425394496489e+06 -1.7899936236350907e+06 0.0000000000000000e+00 0.0000000000000000e+00 0.0000000000000000e+00 0.0000000000000000e+00  -8.5850835545523427e+06 1.1529307248557791e+07 0.0000000000000000e+00 1.1529307248557789e+07 -3.4017502684999876e+07 0.0000000000000000e+00 0.0000000000000000e+00 0.0000000000000000e+00 0.0000000000000000e+00  -8.0369202005661586e+06 -5.4710560350560453e+06 0.0000000000000000e+00 -5.4710560350560490e+06 -3.3295051956798476e+06 0.0000000000000000e+00 0.0000000000000000e+00 0.0000000000000000e+00 0.0000000000000000e+00  -1.3897786521541497e+06 1.1800938793521125e+07 0.0000000000000000e+00 1.1800938793521121e+07 -2.3470524322189521e+07 0.0000000000000000e+00 0.0000000000000000e+00 0.0000000000000000e+00 0.0000000000000000e+00  -7.7654008129844116e+06 -5.8723450627541738e+06 0.0000000000000000e+00 -5.8723450627541719e+06 -4.3670267662918670e+06 0.0000000000000000e+00 0.0000000000000000e+00 0.0000000000000000e+00 0.0000000000000000e+00  -6.1661963312600339e+06 1.8473909372491587e+07 0.0000000000000000e+00 1.8473909372491587e+07 -3.0138469809025776e+07 0.0000000000000000e+00 0.0000000000000000e+00 0.0000000000000000e+00 0.0000000000000000e+00  -6.5377216476993077e+06 -7.0329381009725081e+06 0.0000000000000000e+00 -7.0329381009724978e+06 -6.7449619012601096e+06 0.0000000000000000e+00 0.0000000000000000e+00 0.0000000000000000e+00 0.0000000000000000e+00  -4.9447621192570748e+06 1.4095066350704929e+07 0.0000000000000000e+00 1.4095066350704934e+07 -2.0294178363668516e+07 0.0000000000000000e+00 0.0000000000000000e+00 0.0000000000000000e+00 0.0000000000000000e+00  -6.3212007967158919e+06 -7.8949560618907567e+06 0.0000000000000000e+00 -7.8949560618907614e+06 -9.6389529940888248e+06 0.0000000000000000e+00 0.0000000000000000e+00 0.0000000000000000e+00 0.0000000000000000e+00  -1.9528747551976234e+07 1.7571039335179515e+07 0.0000000000000000e+00 1.7571039335179526e+07 -2.1316057347958621e+07 0.0000000000000000e+00 0.0000000000000000e+00 0.0000000000000000e+00 0.0000000000000000e+00  -7.3257600937606059e+06 -1.0725722409614274e+07 0.0000000000000000e+00 -1.0725722409614272e+07 -1.4368576517440794e+07 0.0000000000000000e+00 0.0000000000000000e+00 0.0000000000000000e+00 0.0000000000000000e+00  -2.2929258070406400e+07 1.7298406395741977e+07 0.0000000000000000e+00 1.7298406395741958e+07 -1.7632627931298729e+07 0.0000000000000000e+00 0.0000000000000000e+00 0.0000000000000000e+00 0.0000000000000000e+00  -7.5952639621844441e+06 -1.2004059751938084e+07 0.0000000000000000e+00 -1.2004059751938101e+07 -1.9392753609942283e+07 0.0000000000000000e+00 0.0000000000000000e+00 0.0000000000000000e+00 0.0000000000000000e+00  -2.6284091442098953e+07 1.8741596490750801e+07 0.0000000000000000e+00 1.8741596490750801e+07 -1.5377350363800535e+07 0.0000000000000000e+00 0.0000000000000000e+00 0.0000000000000000e+00 0.0000000000000000e+00  -8.4334217981900312e+06 -1.4715584691667376e+07 0.0000000000000000e+00 -1.4715584691667374e+07 -2.4561741889755242e+07 0.0000000000000000e+00 0.0000000000000000e+00 0.0000000000000000e+00 0.0000000000000000e+00  -3.2337639227910902e+07 1.6456293607594008e+07 0.0000000000000000e+00 1.6456293607594008e+07 -8.1956672299036449e+06 0.0000000000000000e+00 0.0000000000000000e+00 0.0000000000000000e+00 0.0000000000000000e+00  -1.0232389072130023e+07 -1.7854328444437899e+07 0.0000000000000000e+00 -1.7854328444437865e+07 -3.1644666058285903e+07 0.0000000000000000e+00 0.0000000000000000e+00 0.0000000000000000e+00 0.0000000000000000e+00  -3.3383780737106755e+07 1.2636714564963406e+07 0.0000000000000000e+00 1.2636714564963399e+07 -5.0185258274150118e+06 0.0000000000000000e+00 0.0000000000000000e+00 0.0000000000000000e+00 0.0000000000000000e+00  -1.2242840185956525e+07 -2.1219015890585057e+07 0.0000000000000000e+00 -2.1219015890585084e+07 -3.7125665573169351e+07 0.0000000000000000e+00 0.0000000000000000e+00 0.0000000000000000e+00 0.0000000000000000e+00  -2.8785503688606068e+07 7.0746837347768852e+06 0.0000000000000000e+00 7.0746837347768834e+06 -2.5221663506618431e+06 0.0000000000000000e+00 0.0000000000000000e+00 0.0000000000000000e+00 0.0000000000000000e+00  -1.5191783615643742e+07 -2.5337377129022688e+07 0.0000000000000000e+00 -2.5337377129022710e+07 -4.2955968946416877e+07 0.0000000000000000e+00 0.0000000000000000e+00 0.0000000000000000e+00 0.0000000000000000e+00  -2.5384861452542473e+07 2.4922743447729377e+06 0.0000000000000000e+00 2.4922743447729377e+06 -1.0761338807069322e+06 0.0000000000000000e+00 0.0000000000000000e+00 0.0000000000000000e+00 0.0000000000000000e+00  -1.8390653919527516e+07 -2.8894893911486961e+07 0.0000000000000000e+00 -2.8894893911486924e+07 -4.64300027916