<?xml version="1.0"?>
<VTKFile type="UnstructuredGrid"  version="0.1"  >
<UnstructuredGrid>
<Piece  NumberOfPoints="1799" NumberOfCells="3156">
<Points>
<DataArray  type="Float64"  NumberOfComponents="3"  format="ascii">1.694065894508601e-21 0.008447317744001559 0  0 0.006243487017789186 0  0 0.01 0  0.01 0.01 0  0.01 0.004739447698251261 0  0.01 0.003038811340045742 0  0.01 0 0  0 0 0  0.00972274937591714 0.00446136709 0  0.009653726258356362 0.004545183154286949 0  0.009783606631901408 0.0043734488461064 0  0.009577812281436313 0.004624366443043088 0  0.009835143529851395 0.004282096254618384 0  0.009496374895431106 0.004698536913086191 0  0.009876351429728553 0.004188097333533943 0  0.009410843899527923 0.004767474310794485 0  0.009906389591104073 0.004092339945416686 0  0.009322680015752169 0.00483112308721043 0  0.009924603388293412 0.003995788691361544 0  0.009233342881914028 0.004889592860194898 0  0.009930538269388231 0.00389945963832429 0  0.009144259222736564 0.004943154406398476 0  0.009923949134101986 0.003804393533973133 0  0.009056791952980949 0.004992231280310688 0  0.009904804916195522 0.003711628202889073 0  0.00897221094262878 0.005037387269757166 0  0.009873288272257268 0.003622170840092915 0  0.008891666132610079 0.005079310004121139 0  0.009829790396922524 0.003536970921943865 0  0.008816163631214721 0.005118791130579932 0  0.009774901102315603 0.003456894440322572 0  0.008746545347644217 0.005156703562277342 0  0.009709394413691105 0.003382700134020289 0  0.008683472631978471 0.005193976378365099 0  0.009634210041128223 0.00331501834219343 0  0.008627414292309099 0.005231568017322153 0  0.009550431186043644 0.003254333039822774 0  0.008578639252366998 0.005270438450342868 0  0.009459259228807002 0.003200967535951617 0  0.008537213999305775 0.005311521049719365 0  0.00936198591772306 0.003155074224035663 0  0.008503004854204898 0.00535569487730484 0  0.009259963738278846 0.00311662867229655 0  0.008475684980220988 0.005403758110057852 0  0.009154575183414377 0.003085428233059718 0  0.008454745928046752 0.005456403293512485 0  0.009047201669650919 0.00306109523639258 0  0.008439513408278112 0.005514195070427174 0  0.008939192849631329 0.003043084717779311 0  0.008429166878152986 0.005577550971903466 0  0.008831837058876933 0.003030696514962359 0  0.008422762438422462 0.005646725783411865 0  0.008726333603687408 0.003023091458314896 0  0.008419258457098896 0.005721799910265017 0  0.008623767548895558 0.003019311274956418 0  0.008417543272430451 0.005802672068315741 0  0.008525087599857118 0.003018301731897273 0  0.008416464279248125 0.00588905651847861 0  0.008431087594226352 0.003018938460180701 0  0.008414857671986093 0.005980484950740676 0  0.008342392027717107 0.003020054832380215 0  0.008411578104923951 0.00607631300744762 0  0.008259445936461489 0.003020471211663848 0  0.008405527535824455 0.006175731319709577 0  0.008182509349292211 0.003019024853329008 0  0.008395682542970321 0.006277780817654691 0  0.008111656409014527 0.003014599720199745 0  0.008381119447013561 0.006381371967788657 0  0.008046779145346881 0.003006155472077048 0  0.008361036626979524 0.006485307491577932 0  0.007987595766591686 0.002992754906602592 0  0.008334773492744059 0.006588308031041598 0  0.007933663225123278 0.002973589164041123 0  0.008301825662481763 0.006689040151823762 0  0.007884393706229835 0.002948000060762873 0  0.008261855990795578 0.006786146013815808 0  0.007839074593337327 0.002915498984345503 0  0.00821470119903896 0.006878273995427361 0  0.00779689137756701 0.002875781865550529 0  0.008160373971076945 0.006964109531182152 0  0.007756952908035942 0.002828739836943341 0  0.008099060492600814 0.007042405414120494 0  0.007718318323066783 0.002774465292296384 0  0.008031113527237115 0.007112010824752832 0  0.007680024962909086 0.00271325317257295 0  0.00795704123519566 0.007171898376800313 0  0.007641116542652925 0.002645597420482335 0  0.007877492047271241 0.007221188515997342 0  0.007600670860259881 0.002572182663460059 0  0.007793236005976425 0.007259170670701667 0  0.007557826329114609 0.002493871301548735 0  0.007705143073969071 0.007285320630435001 0  0.007511806656826274 0.002411686289155665 0  0.007614158985545023 0.007299313718867113 0  0.007461943041351158 0.002326790005260706 0  0.007521279277912055 0.0073010334289404 0  0.007407693320609463 0.002240459702730237 0  0.007427522183731196 0.007290575297323677 0  0.007348657590981677 0.002154060111582997 0  0.007333901093897399 0.007268245910489354 0  0.007284589901391725 0.00206901384126507 0  0.007241397309057064 0.007234557052593699 0  0.007215405730813352 0.001986770281484875 0  0.007150933789699272 0.00719021512310135 0  0.007141185065425865 0.001908773738582196 0  0.007063350588039396 0.007136106066830752 0  0.007062171004568673 0.001836431563827099 0  0.006979382601016691 0.007073276167978721 0  0.006978763939261549 0.001771083030979474 0  0.006899640223662019 0.007002909160025809 0  0.006891511460488134 0.001713969702858609 0  0.006824593407373458 0.006926300192755933 0  0.006801094263833782 0.001666207991002947 0  0.006754559540147956 0.006844827273742502 0  0.006708308419676155 0.00162876455961884 0  0.006689695467758148 0.006759920862683462 0  0.006614044471369561 0.001602435156224392 0  0.006629993868701035 0.006673032341407502 0  0.006519263905397843 0.001587827368384263 0  0.006575284084148806 0.006585602109130518 0  0.006424973605244305 0.00158534771074889 0  0.006525237389907268 0.006499028060960921 0  0.006332198953034525 0.001595193341602671 0  0.006479376583406328 0.006414635197532647 0  0.006241956278528544 0.001617348595877673 0  0.006437089647876208 0.006333647085242707 0  0.006155225372873471 0.001651586404869184 0  0.006397647150892512 0.00625715984059454 0  0.00607292278421836 0.001697474554571888 0  0.006360222938045857 0.006186119249742206 0  0.005995876593836629 0.001754386617555196 0  0.006323917597038065 0.006121301557042314 0  0.005924803335248409 0.001821517280492992 0  0.006287784095183865 0.006063298366166584 0  0.005860287665879005 0.001897901683632007 0  0.0062508549359344 0.00601250599634399 0  0.00580276533234513 0.001982438292224905 0  0.006212170139093256 0.005969119527087292 0  0.005752509888229881 0.002073914735631396 0  0.006170805325914 0.005933131650016665 0  0.005709623529238961 0.002171035979469365 0  0.00612589918486164 0.005904336328960144 0  0.005674032307267846 0.002272454141595308 0  0.006076679606648487 0.005882337152288339 0  0.005645485874731519 0.002376799225137041 0  0.006022487807921907 0.005866560147323738 0  0.005623561796267508 0.002482710022195841 0  0.005962799810943057 0.005856270718467968 0  0.005607674349474454 0.002588864440638754 0  0.005897244710577686 0.005850594271079678 0  0.005597087622580383 0.002694008523617222 0  0.005825619238346946 0.005848539994562327 0  0.005590932607696336 0.002796983466621648 0  0.005747898224220681 0.005849027202760175 0  0.005588227886339777 0.002896749989114506 0  0.005664240658026499 0.005850913569457749 0  0.005587903411768036 0.002992409485755934 0  0.005574991161285845 0.005853024553003058 0  0.00558882681266186 0.003083221464236011 0  0.005480676794268173 0.0058541832778865 0  0.005589831576859201 0.003168616870700337 0  0.005381999239242995 0.005853240133126504 0  0.005589746423825433 0.003248207007348517 0  0.005279822516415462 0.005849101357707455 0  0.005587425141631403 0.00332178785741102 0  0.005175156500976945 0.005840755911796739 0  0.005581776149243588 0.003389339747608045 0  0.00506913661529584 0.005827299978297529 0  0.005571791048314209 0.003451022394501277 0  0.004963000166879053 0.005807958501303589 0  0.005556571450340227 0.003507165495970296 0  0.004858059887934908 0.005782103244641807 0  0.005535353404530312 0.003558255139524018 0  0.004755675304028876 0.005749266942985061 0  0.005507528808027482 0.003604916402549837 0  0.004657222615643685 0.005709153217746636 0  0.005472663251911699 0.003647892613343369 0  0.004564063816013228 0.005661642037623928 0  0.005430509841895833 0.003688021823527707 0  0.004477515790388595 0.00560679061654508 0  0.005381018629732107 0.003726211110241175 0  0.004398820145347423 0.005544829757060492 0  0.005324341397676651 0.003763409378575775 0  0.004329114501762111 0.00547615576202805 0  0.00526083165129817 0.003800579369906148 0  0.004269405951942947 0.005401318148896703 0  0.005191039792677943 0.00383866959910631 0  0.004220547331062618 0.005321003506214064 0  0.005115703563750334 0.003878586942798619 0  0.004183216886472467 0.005236015928541855 0  0.005035733965268281 0.003921170581761714 0  0.004157901847560569 0.005147254551350707 0  0.004952196967785547 0.00396716796394016 0  0.004144886305359802 0.005055688779556268 0  0.004866291434383562 0.004017213401087919 0  0.004144243707482425 0.004962331860358698 0  0.004779323768077839 0.004071809843297703 0  0.004155834162682716 0.004868213491542542 0  0.004692679877608203 0.004131314293258991 0  0.004179306633167043 0.004774352179382177 0  0.004607795121646793 0.004195927228129257 0  0.004214105974540842 0.0046817280652164 0  0.004526122941701917 0.004265686293763611 0  0.004259484665915422 0.004591256926493267 0  0.004449102926905492 0.004340464426324128 0  0.004314518959085191 0.004503766026986902 0  0.004378129068627031 0.004419972442741865 0  0.00593001182314166 0.006372403387971871 0  0.005939572443554628 0.006436360317137665 0  0.005925376372385204 0.006368751471385894 0  0.005946732308607814 0.006530898816930391 0  0.005866840669782601 0.00633199119654035 0  0.00594701266737181 0.006625814903473438 0  0.005804249765180952 0.006301600770407027 0  0.005940440295727538 0.006720641436504761 0  0.00573695820405656 0.00627701458488837 0  0.005927101959384199 0.006814914480349616 0  0.00566445506679863 0.006257506825568757 0  0.005907143630376305 0.006908179927508449 0  0.005586382222683439 0.006242212086839124 0  0.005880768731714959 0.007 0  0.005502548881191342 0.006230149145824911 0  0.00584823543546249 0.007089959498878739 0  0.0054129
[...]
<PointData  Tensors="$\sigma$"> 
<DataArray  type="Float64"  Name="$\sigma$"  NumberOfComponents="9" format="ascii">-2.1383180614016107e+06 3.7741276822810317e+06 0.0000000000000000e+00 3.7741276822810317e+06 3.7008027194094978e+07 0.0000000000000000e+00 0.0000000000000000e+00 0.0000000000000000e+00 0.0000000000000000e+00  -1.4087028297160575e+06 -3.4116781400002385e+06 0.0000000000000000e+00 -3.4116781400002385e+06 2.2884855182548143e+07 0.0000000000000000e+00 0.0000000000000000e+00 0.0000000000000000e+00 0.0000000000000000e+00  1.9813266719024675e+06 4.8449784987140243e+05 0.0000000000000000e+00 4.8449784987140243e+05 1.9741697255108051e+07 0.0000000000000000e+00 0.0000000000000000e+00 0.0000000000000000e+00 0.0000000000000000e+00  1.4192268977055995e+05 7.3627508270132621e+03 0.0000000000000000e+00 7.3627508270132621e+03 7.5350083022748940e+06 0.0000000000000000e+00 0.0000000000000000e+00 0.0000000000000000e+00 0.0000000000000000e+00  -9.6189378349925030e+05 -3.2443580992622292e+06 0.0000000000000000e+00 -3.2443580992622292e+06 2.0335470071314365e+07 0.0000000000000000e+00 0.0000000000000000e+00 0.0000000000000000e+00 0.0000000000000000e+00  -2.4226459492784878e+06 5.5418750882938290e+06 0.0000000000000000e+00 5.5418750882938290e+06 2.8406796758108098e+07 0.0000000000000000e+00 0.0000000000000000e+00 0.0000000000000000e+00 0.0000000000000000e+00  9.3998036834271252e+05 2.6254046896218151e+04 0.0000000000000000e+00 2.6254046896218151e+04 1.2457229522266731e+07 0.0000000000000000e+00 0.0000000000000000e+00 0.0000000000000000e+00 0.0000000000000000e+00  9.4196067968481657e+04 1.4609366348898133e+04 0.0000000000000000e+00 1.4609366348898133e+04 7.2745537583365059e+06 0.0000000000000000e+00 0.0000000000000000e+00 0.0000000000000000e+00 0.0000000000000000e+00  1.5978280010327930e+06 1.7332171400484294e+06 0.0000000000000000e+00 1.7332171400484294e+06 4.1253845445485339e+07 0.0000000000000000e+00 0.0000000000000000e+00 0.0000000000000000e+00 0.0000000000000000e+00  5.9786856455118135e+06 2.7554653495231587e+06 0.0000000000000000e+00 2.7554653495231587e+06 2.3818413823097046e+07 0.0000000000000000e+00 0.0000000000000000e+00 0.0000000000000000e+00 0.0000000000000000e+00  -2.3839440796709252e+06 -5.0577574794584690e+06 0.0000000000000000e+00 -5.0577574794584690e+06 5.8035072807431214e+07 0.0000000000000000e+00 0.0000000000000000e+00 0.0000000000000000e+00 0.0000000000000000e+00  7.0699085111842789e+06 2.0394477676375626e+05 0.0000000000000000e+00 2.0394477676375624e+05 1.3684084617708651e+07 0.0000000000000000e+00 0.0000000000000000e+00 0.0000000000000000e+00 0.0000000000000000e+00  -2.1373419049541093e+06 -1.3275168645589709e+07 0.0000000000000000e+00 -1.3275168645589709e+07 6.7683861750527993e+07 0.0000000000000000e+00 0.0000000000000000e+00 0.0000000000000000e+00 0.0000000000000000e+00  7.0910700424500462e+06 -6.2506340738026530e+05 0.0000000000000000e+00 -6.2506340738026507e+05 4.5619936456114016e+06 0.0000000000000000e+00 0.0000000000000000e+00 0.0000000000000000e+00 0.0000000000000000e+00  -1.6162922658304749e+06 -1.8701550637465730e+07 0.0000000000000000e+00 -1.8701550637465730e+07 7.2626291307010680e+07 0.0000000000000000e+00 0.0000000000000000e+00 0.0000000000000000e+00 0.0000000000000000e+00  2.8320639980721874e+06 -5.5262735152905751e+06 0.0000000000000000e+00 -5.5262735152905751e+06 6.2833755358977923e+06 0.0000000000000000e+00 0.0000000000000000e+00 0.0000000000000000e+00 0.0000000000000000e+00  6.1486595488653658e+06 -1.8558411863695234e+07 0.0000000000000000e+00 -1.8558411863695234e+07 6.9048675936610907e+07 0.0000000000000000e+00 0.0000000000000000e+00 0.0000000000000000e+00 0.0000000000000000e+00  1.8309559984414240e+06 -1.5011603262695936e+06 0.0000000000000000e+00 -1.5011603262695936e+06 4.4760950005406709e+06 0.0000000000000000e+00 0.0000000000000000e+00 0.0000000000000000e+00 0.0000000000000000e+00  -7.6643416685171158e+05 3.8623188244366445e+07 0.0000000000000000e+00 3.8623188244366445e+07 1.0929709692594129e+08 0.0000000000000000e+00 0.0000000000000000e+00 0.0000000000000000e+00 0.0000000000000000e+00  7.9175955578289798e+05 -1.5559115087547971e+05 0.0000000000000000e+00 -1.5559115087547971e+05 1.6393450266746329e+06 0.0000000000000000e+00 0.0000000000000000e+00 0.0000000000000000e+00 0.0000000000000000e+00  -3.4224906383471280e+07 6.5637029005841017e+06 0.0000000000000000e+00 6.5637029005841017e+06 1.6564581173072654e+08 0.0000000000000000e+00 0.0000000000000000e+00 0.0000000000000000e+00 0.0000000000000000e+00  -1.7680826694225031e+05 -6.1223868215954525e+05 0.0000000000000000e+00 -6.1223868215954525e+05 1.5144059922088876e+06 0.0000000000000000e+00 0.0000000000000000e+00 0.0000000000000000e+00 0.0000000000000000e+00  -1.3271363940426528e+07 -3.1739051256791003e+07 0.0000000000000000e+00 -3.1739051256791003e+07 1.3070494335020652e+08 0.0000000000000000e+00 0.0000000000000000e+00 0.0000000000000000e+00 0.0000000000000000e+00  -6.3376803734831035e+05 2.2503635567469866e+05 0.0000000000000000e+00 2.2503635567469866e+05 4.8336045356724113e+04 0.0000000000000000e+00 0.0000000000000000e+00 0.0000000000000000e+00 0.0000000000000000e+00  -5.3114001964766057e+06 1.4332169140760742e+07 0.0000000000000000e+00 1.4332169140760742e+07 7.4431066611170009e+07 0.0000000000000000e+00 0.0000000000000000e+00 0.0000000000000000e+00 0.0000000000000000e+00  -1.4680372377239324e+06 7.4409551051682478e+05 0.0000000000000000e+00 7.4409551051682478e+05 -2.0639430271397126e+05 0.0000000000000000e+00 0.0000000000000000e+00 0.0000000000000000e+00 0.0000000000000000e+00  -1.3819253109408801e+07 1.0960658096216891e+07 0.0000000000000000e+00 1.0960658096216891e+07 7.3680895190361425e+07 0.0000000000000000e+00 0.0000000000000000e+00 0.0000000000000000e+00 0.0000000000000000e+00  -1.6287926223664274e+06 8.1091789358353312e+05 0.0000000000000000e+00 8.1091789358353300e+05 -4.2493469484924391e+05 0.0000000000000000e+00 0.0000000000000000e+00 0.0000000000000000e+00 0.0000000000000000e+00  -1.6939809164039690e+07 2.4898273928543371e+06 0.0000000000000000e+00 2.4898273928543371e+06 6.7032213700933136e+07 0.0000000000000000e+00 0.0000000000000000e+00 0.0000000000000000e+00 0.0000000000000000e+00  -1.5828504661285328e+06 9.3648426765325957e+05 0.0000000000000000e+00 9.3648426765325945e+05 -4.7163269273022108e+05 0.0000000000000000e+00 0.0000000000000000e+00 0.0000000000000000e+00 0.0000000000000000e+00  -1.7636476548095074e+07 -8.9844355672619641e+06 0.0000000000000000e+00 -8.9844355672619641e+06 5.3671242205394834e+07 0.0000000000000000e+00 0.0000000000000000e+00 0.0000000000000000e+00 0.0000000000000000e+00  -1.4526170701279258e+06 9.9510778897007008e+05 0.0000000000000000e+00 9.9510778897007008e+05 -5.4881221488325216e+05 0.0000000000000000e+00 0.0000000000000000e+00 0.0000000000000000e+00 0.0000000000000000e+00  -1.5241934968023684e+07 -1.9093332404736225e+07 0.0000000000000000e+00 -1.9093332404736225e+07 3.5853475795381546e+07 0.0000000000000000e+00 0.0000000000000000e+00 0.0000000000000000e+00 0.0000000000000000e+00  -1.1994671987120514e+06 8.8420538148689060e+05 0.0000000000000000e+00 8.8420538148689060e+05 -5.3717101951989916e+05 0.0000000000000000e+00 0.0000000000000000e+00 0.0000000000000000e+00 0.0000000000000000e+00  -3.7353671872134914e+05 -2.0818766039629992e+07 0.0000000000000000e+00 -2.0818766039629992e+07 9.2301154232176263e+06 0.0000000000000000e+00 0.0000000000000000e+00 0.0000000000000000e+00 0.0000000000000000e+00  -9.3206941880430409e+05 8.0108567358304420e+05 0.0000000000000000e+00 8.0108567358304420e+05 -5.4742109212469566e+05 0.0000000000000000e+00 0.0000000000000000e+00 0.0000000000000000e+00 0.0000000000000000e+00  -2.9437340063946482e+07 -3.4227835043239067e+06 0.0000000000000000e+00 -3.4227835043239067e+06 -8.8486963297476561e+05 0.0000000000000000e+00 0.0000000000000000e+00 0.0000000000000000e+00 0.0000000000000000e+00  -6.4335779761185206e+05 7.0920482201534102e+05 0.0000000000000000e+00 7.0920482201534102e+05 -6.2628699582088436e+05 0.0000000000000000e+00 0.0000000000000000e+00 0.0000000000000000e+00 0.0000000000000000e+00  -2.0990874004239712e+07 -1.5448346074479042e+07 0.0000000000000000e+00 -1.5448346074479042e+07 -4.6056386275231931e+06 0.0000000000000000e+00 0.0000000000000000e+00 0.0000000000000000e+00 0.0000000000000000e+00  -4.8224771283822745e+05 6.2353267785969109e+05 0.0000000000000000e+00 6.2353267785969109e+05 -6.9461619985491026e+05 0.0000000000000000e+00 0.0000000000000000e+00 0.0000000000000000e+00 0.0000000000000000e+00  -1.6812409881174743e+07 -3.8223680502650090e+06 0.0000000000000000e+00 -3.8223680502650090e+06 -5.1059832845860906e+06 0.0000000000000000e+00 0.0000000000000000e+00 0.0000000000000000e+00 0.0000000000000000e+00  -3.0296881224078807e+05 5.6147119369558769e+05 0.0000000000000000e+00 5.6147119369558769e+05 -7.9480150490088447e+05 0.0000000000000000e+00 0.0000000000000000e+00 0.0000000000000000e+00 0.0000000000000000e+00  -1.4884617355072170e+07 -7.2358241676636646e+06 0.0000000000000000e+00 -7.2358241676636646e+06 -4.1350466635746923e+06 0.0000000000000000e+00 0.0000000000000000e+00 0.0000000000000000e+00 0.0000000000000000e+00  -1.6209247392023468e+05 4.7312061909998395e+05 0.0000000000000000e+00 4.7312061909998395e+05 -9.1204816331799759e+05 0.0000000000000000e+00 0.0000000000000000e+00 0.0000000000000000e+00 0.0000000000000000e+00  -2.1480879306944691e+07 -5.7369923680180917e+06 0.0000000000000000e+00 -5.7369923680180917e+06 5.1607727842865628e+05 0.0000000000000000e+00 0.0000000000000000e+00 0.0000000000000000e+00 0.0000000000000000e+00  -7.3358718086532128e+04 3.7783922729385563e+05 0.0000000000000000e+00 3.7783922729385563e+05 -1.0722683121979816e+06 0.0000000000000000e+00 0.0000000000000000e+00 0.0000000000000000e+00 0.0000000000000000e+00  -1.5730931122925205e+07 -3.9388510548823886e+06 0.0000000000000000e+00 -3.9388510548823886e+06 -9.8170597559439193e+05 0.0000000000000000e+00 0.0000000000000000e+00 0.0000000000000000e+00 0.0000000000000000e+00  -5.7497547667107319e+03 3.0698794100093679e+05 0.0000000000000000e+00 3.0698794100093679e+05 -1.2426210260977102e+06 0.0000000000000000e+00 0.0000000000000000e+00 0.0000000000000000e+00 0.0000000000000000e+00  -1.4559435743840324e+07 -3.0017857070241501e+06 0.0000000000000000e+00 -3.0017857070241501e+06 -9.2892855122390133e+05 0.0000000000000000e+00 0.0000000000000000e+00 0.0000000000000000e+00 0.0000000000000000e+00  -1.9882079706717588e+04 1.9992744289692916e+05 0.0000000000000000e+00 1.9992744289692916e+05 -1.2981630150577521e+06 0.0000000000000000e+00 0.0000000000000000e+00 0.0000000000000000e+00 0.0000000000000000e+00  -1.3551399323904550e+07 -1.3463948955605493e+06 0.0000000000000000e+00 -1.3463948955605493e+06 -3.6990793845193862e+05 0.0000000000000000e+00 0.0000000000000000e+00 0.0000000000000000e+00 0.0000000000000000e+00  4.0275943832679885e+04 2.1164127535548122e+05 0.0000000000000000e+00 2.1164127535548122e+05 -1.6303887003147830e+06 0.0000000000000000e+00 0.0000000000000000e+00 0.0000000000000000e+00 0.0000000000000000e+00  -1.1677811226129306e+07 -1.0535806901061705e+06 0.0000000000000000e+00 -1.0535806901061705e+06 -6.5664032768373392e+04 0.0000000000000000e+00 0.0000000000000000e+00 0.0000000000000000e+00 0.0000000000000000e+00  -8.9840247554584821e+03 1.1754082095728040e+05 0.0000000000000000e+00 1.1754082095728040e+05 -1.6378992166633550e+06 0.0000000000000000e+00 0.0000000000000000e+00 0.0000000000000000e+00 0.0000000000000000e+00  -9.9095018611287326e+06 -8.5904581137836713e+05 0.0000000000000000e+00 -8.5904581137836713e+05 -1.4219411235648720e+05 0.0000000000000000e+00 0.0000000000000000e+00 0.0000000000000000e+00 0.0000000000000000e+00  -1.1946676917976837e+05 1.3339391715550280e+03 0.0000000000000000e+00 1.3339391715550280e+03 -1.6575409975279525e+06 0.0000000000000000e+00 0.0000000000000000e+00 0.0000000000000000e+00 0.0000000000000000e+00  -8.1215454259159043e+06 -4.9748099380312522e+05 0.0000000000000000e+00 -4.9748099380312522e+05 -7.4523315122858286e+04 0.0000000000000000e+00 0.0000000000000000e+00 0.0000000000000000e+00 0.0000000000000000e+00  -8.2574107618959199e+04 1.8435939670656674e+05 0.0000000000000000e+00 1.8435939670656674e+05 -1.9205255545206673e+06 0.0000000000000000e+00 0.0000000000000000e+00 0.0000000000000000e+00 0.0000000000000000e+00  -6.7879321490718247e+06 -3.2128637143266003e+05 0.0000000000000000e+00 -3.2128637143266003e+05 -2.5631610970933030e+04 0.0000000000000000e+00 0.0000000000000000e+00 0.0000000000000000e+00 0.0000000000000000e+00  -2.0307101099418040e+04 3.2203400798377965e+05 0.0000000000000000e+00 3.2203400798377965e+05 -2.0094867935733972e+06 0.0000000000000000e+00 0.0000000000000000e+00 0.0000000000000000e+00 0.0000000000000000e+00  -5.3408016709473776e+06 -3.1770976690841693e+05 0.0000000000000000e+00 -3.1770976690841693e+05 1.5030712183748267e+03 0.0000000000000000e+00 0.0000000000000000e+00 0.0000000000000000e+00 0.0000000000000000e+00  -2.0973383399373869e+05 1.4532825737680486e+05 0.0000000000000000e+00 1.4532825737680486e+05 -1.6819951240619612e+06 0.0000000000000000e+00 0.0000000000000000e+00 0.0000000000000000e+00 0.0000000000000000e+00  -4.0911792699691630e+06 -3.2626350261751877e+05 0.0000000000000000e+00 -3.2626350261751877e+05 -1.0606366607880480e+04 0.0000000000000000e+00 0.0000000000000000e+00 0.0000000000000000e+00 0.0000000000000000e+00  -1.9988400608807392e+05 3.9285554943687969e+05 0.0000000000000000e+00 3.9285554943687975e+05 -1.5963625134437531e+06 0.0000000000000000e+00 0.0000000000000000e+00 0.0000000000000000e+00 0.0000000000000000e+00  -3.2543179106937172e+06 -3.1711362725403276e+05 0.0000000000000000e+00 -3.1711362725403276e+05 -1.4941414091886647e+04 0.0000000000000000e+00 0.0000000000000000e+00 0.0000000000000000e+00 0.0000000000000000e+00  3.0656969283234829e+05 4.8447852815023408e+05 0.0000000000000000e+00 4.8447852815023408e+05 -2.7931143605741351e+06 0.0000000000000000e+00 0.0000000000000000e+00 0.0000000000000000e+00 0.0000000000000000e+00  -2.3480652075314848e+06 -3.7339441682392976e+05 0.0000000000000000e+00 -3.7339441682392976e+05 -1.6655184416093747e+04 0.0000000000000000e+00 0.0000000000000000e+00 0.0000000000000000e+00 0.0000000000000000e+00  -6.1533856860512482e+04 3.2215552617663011e+05 0.0000000000000000e+00 3.2215552617663011e+05 -1.7661009708945262e+06 0.0000000000000000e+00 0.0000000000000000e+00 0.0000000000000000e+00 0.0000000000000000e+00  -1.9487661667594525e+06 -4.7113719114609883e+05 0.0000000000000000e+00 -4.7113719114609883e+05 -9.2174580858040004e+04 0.0000000000000000e+00 0.0000000000000000e+00 0.0000000000000000e+00 0.0000000000000000e+00  2.6062024562124538e+05 2.4758297897828973e+05 0.0000000000000000e+00 2.4758297897828973e+05 -2.8225461217026431e+06 0.0000000000000000e+00 0.0000000000000000e+00 0.0000000000000000e+00 0.0000000000000000e+00  -1.4681021918121595e+06 -4.6095222115292749e+05 0.0000000000000000e+00 -4.6095222115292749e+05 -9.4080173059402659e+04 0.0000000000000000e+00 0.0000000000000000e+00 0.0000000000000000e+00 0.0000000000000000e+00  -2.3330010409664003e+04 7.8477248210730602e+05 0.0000000000000000e+00 7.8477248210730602e+05 -1.7347074831095110e+06 0.0000000000000000e+00 0.0000000000000000e+00 0.0000000000000000e+00 0.0000000000000000e+00  -1.1666871414348562e+06 -5.6709081860213948e+05 0.0000000000000000e+00 -5.6709081860213948e+05 -2.0597496986346116e+05 0.0000000000000000e+00 0.0000000000000000e+00 0.0000000000000000e+00 0.0000000000000000e+00  -5.0418203222789604e+05 1.1117207210121616e+06 0.0000000000000000e+00 1.1117207210121616e+06 -1.7778536732863374e+06 0.0000000000000000e+00 0.0000000000000000e+00 0.0000000000000000e+00 0.0000000000000000e+00  -9.9583581456565007e+05 -7.0468186664482462e+05 0.0000000000000000e+00 -7.0468186664482462e+05 -4.1443431592010334e+05 0.0000000000000000e+00 0.0000000000000000e+00 0.0000000000000000e+00 0.0000000000000000e+00  -3.5391283466975024e+05 8.7041117820134526e+05 0.0000000000000000e+00 8.7041117820134526e+05 -1.7241303941570853e+06 0.0000000000000000e+00 0.0000000000000000e+00 0.0000000000000000e+00 0.0000000000000000e+00  -9.7216555583202152e+05 -7.4494221995942714e+05 0.0000000000000000e+00 -7.4494221995942714e+05 -4.8597937228009308e+05 0.0000000000000000e+00 0.0000000000000000e+00 0.0000000000000000e+00 0.0000000000000000e+00  -7.9502121269872261e+05 1.7526451644133804e+06 0.0000000000000000e+00 1.7526451644133804e+06 -2.4967418438889501e+06 0.0000000000000000e+00 0.0000000000000000e+00 0.0000000000000000e+00 0.0000000000000000e+00  -8.2798033065855852e+05 -8.4007051128136320e+05 0.0000000000000000e+00 -8.4007051128136320e+05 -7.6825518693989154e+05 0.0000000000000000e+00 0.0000000000000000e+00 0.0000000000000000e+00 0.0000000000000000e+00  -9.8805881780345994e+05 1.0767642794935761e+06 0.0000000000000000e+00 1.0767642794935761e+06 -1.5851416383157952e+06 0.0000000000000000e+00 0.0000000000000000e+00 0.0000000000000000e+00 0.0000000000000000e+00  -7.9820073926667904e+05 -9.3648210178835632e+05 0.0000000000000000e+00 -9.3648210178835632e+05 -1.0979208795275129e+06 0.0000000000000000e+00 0.0000000000000000e+00 0.0000000000000000e+00 0.0000000000000000e+00  -1.8288386821604865e+06 1.7490439715266989e+06 0.0000000000000000e+00 1.7490439715266989e+06 -2.1328213314275099e+06 0.0000000000000000e+00 0.0000000000000000e+00 0.0000000000000000e+00 0.0000000000000000e+00  -9.5801614462025859e+05 -1.3025598116465167e+06 0.0000000000000000e+00 -1.3025598116465167e+06 -1.6664999059575601e+06 0.0000000000000000e+00 0.0000000000000000e+00 0.0000000000000000e+00 0.0000000000000000e+00  -2.5171946780931028e+06 1.8322879838272028e+06 0.0000000000000000e+00 1.8322879838272028e+06 -1.5333005504200303e+06 0.0000000000000000e+00 0.0000000000000000e+00 0.0000000000000000e+00 0.0000000000000000e+00  -9.7152083419950050e+05 -1.4868134589102967e+06 0.0000000000000000e+00 -1.4868134589102967e+06 -2.1261007176998123e+06 0.0000000000000000e+00 0.0000000000000000e+00 0.0000000000000000e+00 0.0000000000000000e+00  -2.8290155149115594e+06 2.0944876251410362e+06 0.0000000000000000e+00 2.0944876251410362e+06 -1.6648148972248002e+06 0.0000000000000000e+00 0.0000000000000000e+00 0.0000000000000000e+00 0.0000000000000000e+00  -1.0976243915688382e+06 -1.7579812670880680e+06 0.0000000000000000e+00 -1.7579812670880680e+06 -2.7649616994754779e+06 0.0000000000000000e+00 0.0000000000000000e+00 0.0000000000000000e+00 0.0000000000000000e+00  -3.5897111291510807e+06 1.7523767218911164e+06 0.0000000000000000e+00 1.7523767218911164e+06 -1.0706341266507220e+06 0.0000000000000000e+00 0.0000000000000000e+00 0.0000000000000000e+00 0.0000000000000000e+00  -1.3141988925002997e+06 -2.1420194293049853e+06 0.0000000000000000e+00 -2.1420194293049853e+06 -3.4672898888012129e+06 0.0000000000000000e+00 0.0000000000000000e+00 0.0000000000000000e+00 0.0000000000000000e+00  -3.6264715165204299e+06 1.4064214024094229e+06 0.0000000000000000e+00 1.4064214024094229e+06 -6.8259601533329661e+05 0.0000000000000000e+00 0.0000000000000000e+00 0.0000000000000000e+00 0.0000000000000000e+00  -1.5534991766466775e+06 -2.4995083170584603e+06 0.0000000000000000e+00 -2.4995083170584603e+06 -4.0571853962162561e+06 0.0000000000000000e+00 0.0000000000000000e+00 0.0000000000000000e+00 0.0000000000000000e+00  -3.1976331014423640e+06 8.7697052759561723e+05 0.0000000000000000e+00 8.7697052759561723e+05 -4.5337811590881215e+05 0.0000000000000000e+00 0.0000000000000000e+00 0.0000000000000000e+00 0.0000000000000000e+00  -1.8905832700534496e+06 -2.9521116795095024e+06 0.0000000000000000e+00 -2.9521116795095024e+06 -4.6938778572128387e+06 0.0000000000000000e+00 0.0000000000000000e+00 0.0000000000000000e+00 0.0000000000000000e+00  -2.9023161789528914e+06 4.7897987020766328e+05 0.0000000000000000e+00 4.7897987020766328e+05 -2.0066399349586378e+05 0.0000000000000000e+00 0.0000000000000000e+00 0.0000000000000000e+00 0.0000000000000000e+00  -2.2653444341018833e+06 -3.3451244590406176e+06 0.0000000000000000e+00 -3.3451244590406176e+06 -5.14694