<?xml version="1.0"?>
<VTKFile type="UnstructuredGrid"  version="0.1"  >
<UnstructuredGrid>
<Piece  NumberOfPoints="11925" NumberOfCells="22284">
<Points>
<DataArray  type="Float64"  NumberOfComponents="3"  format="ascii">0.009106770432969287 0.0084582340381214 0  0.009141919339108864 0.008441218550270694 0  0.009203598740601114 0.008393845335784609 0  0.009248431083532146 0.008349860421943302 0  0.009296575788899144 0.008291876136114247 0  0.00934265184641383 0.008225659869648794 0  0.009393578065451109 0.008122249398276498 0  0.009424875532860347 0.008002512562814071 0  0.009449530416649156 0.007942856790653622 0  0.009467776063564975 0.007776381909547738 0  0.009496347239411999 0.007611274617662952 0  0.009499145002853376 0.007525125628140703 0  0.009496347239411999 0.007464102266759158 0  0.009467776063564975 0.007298994974874372 0  0.009449530416649156 0.007132520093768488 0  0.009424875532860347 0.00707286432160804 0  0.009393578065451109 0.006953127486145613 0  0.00934265184641383 0.006849717014773317 0  0.009296575788899144 0.006783500748307864 0  0.009248431083532146 0.006725516462478808 0  0.009203598740601114 0.006681531548637502 0  0.009141919338909114 0.006634158334151417 0  0.009106770432902705 0.006617142873950686 0  0.009057788944723618 0.006598443490950575 0  0.009035429646949504 0.006603784476015589 0  0.009003273865471631 0.006637537337391888 0  0.008992706568800921 0.006658843167954558 0  0.008972489432160457 0.006721105527638192 0  0.008943689764150664 0.006775124298212487 0  0.008927575292032289 0.006821608040201005 0  0.008858421521121648 0.006940476521074617 0  0.008818283204798657 0.006994423939357116 0  0.008742251619928807 0.007081030046222233 0  0.008689386069399707 0.007127977288024682 0  0.00865169762718865 0.007155237400276061 0  0.008598593426450953 0.007187519986677493 0  0.008503029036046951 0.007258952469496642 0  0.008441469295249169 0.007286330637148408 0  0.008404275359722921 0.007310151607682054 0  0.008340789248380142 0.007336567990292792 0  0.008278894472361808 0.007370606062816746 0  0.008227853892241668 0.007385785667750049 0  0.008178391959798996 0.007406751625964 0  0.008013447788775593 0.00743563391875675 0  0.007952261306532662 0.007456731513377061 0  0.007902010050251256 0.007466988976395871 0  0.007550251256281408 0.00748107426496475 0  0.007173366834170854 0.007466988976395871 0  0.007123115577889447 0.007456731513377061 0  0.007061929095646517 0.00743563391875675 0  0.006896984924623115 0.007406751625964 0  0.006771663215364072 0.00735919225436318 0  0.006734587636041969 0.007336567990292792 0  0.006695979899497487 0.00732259899495977 0  0.006633907589172942 0.007286330637148408 0  0.00657234784837516 0.007258952469496642 0  0.006476783457971159 0.007187519986677493 0  0.006385990815022405 0.007127977288024682 0  0.006333125264493302 0.007081030046222233 0  0.006244530865553103 0.006978164963285671 0  0.006205048905315104 0.00692211055276382 0  0.006159330552520386 0.006845248264868939 0  0.006131687120271447 0.006775124298212487 0  0.006102887452261655 0.006721105527638192 0  0.006082670315621189 0.006658843167954558 0  0.006072103018950479 0.006637537337391888 0  0.006039947237472605 0.006603784476015589 0  0.006017587939698492 0.006598443490950575 0  0.005933457545512996 0.006634158334151417 0  0.005871778143820997 0.006681531548637502 0  0.005826945800889965 0.006725516462478808 0  0.005778801095522966 0.006783500748307864 0  0.005732725038008282 0.006849717014773317 0  0.005681798818971001 0.006953127486145613 0  0.005650501351561765 0.00707286432160804 0  0.005625846467772956 0.007132520093768488 0  0.005607600820857134 0.007298994974874372 0  0.005577737985543962 0.00747666508082951 0  0.005579029645010113 0.007611274617662952 0  0.005607600820857134 0.007776381909547738 0  0.005625846467772956 0.007942856790653622 0  0.005650501351561765 0.008002512562814071 0  0.005676707781126685 0.008109686584206147 0  0.005732725038008282 0.008225659869648794 0  0.005778801095522966 0.008291876136114247 0  0.00583916892901236 0.008362423236013654 0  0.005871778143820997 0.008393845335784609 0  0.005933457545313248 0.008441218550270694 0  0.005968606451452823 0.0084582340381214 0  0.006017587939698492 0.008476935349731016 0  0.006039947427631444 0.008471594355449344 0  0.006059540775356642 0.008452005488667369 0  0.006077635869842498 0.008429097268812035 0  0.006102887452261655 0.00835427135678392 0  0.006131687120271447 0.008300252586209624 0  0.006159330552520386 0.008230128619553171 0  0.006216955363300465 0.008134900363347493 0  0.006257093679623455 0.008080952945064994 0  0.006333125264493302 0.007994346838199877 0  0.006370813706704358 0.007959962410467781 0  0.00642367925723346 0.007920139484146049 0  0.006476783457971159 0.007887856897744617 0  0.00657234784837516 0.007816424414925468 0  0.006633907589172942 0.007789046247273704 0  0.006671101524699189 0.007765225276740057 0  0.006734587636041969 0.007738808894129319 0  0.006796482412060302 0.007704770821605365 0  0.00692211055276382 0.00766245157494053 0  0.007061929095646517 0.007639742965665362 0  0.007123115577889447 0.007618645371045051 0  0.007173366834170854 0.00760838790802624 0  0.007525125628140703 0.00759430261945736 0  0.007902010050251256 0.00760838790802624 0  0.007952261306532662 0.007618645371045051 0  0.008013447788775593 0.007639742965665362 0  0.00815326633165829 0.00766245157494053 0  0.008278894472361808 0.007704770821605365 0  0.008340789248380142 0.007738808894129319 0  0.008404275359722921 0.007765225276740057 0  0.008441469295249169 0.007789046247273704 0  0.008503029036046951 0.007816424414925468 0  0.008598593426450953 0.007887856897744617 0  0.00865169762718865 0.007920139484146049 0  0.008704563177717754 0.007959962410467781 0  0.008742251619928807 0.007994346838199877 0  0.008818283204798657 0.008080952945064994 0  0.008858421521121648 0.008134900363347493 0  0.008916046331901725 0.008230128619553171 0  0.008943689764150664 0.008300252586209624 0  0.008972489432160457 0.00835427135678392 0  0.008997741014579612 0.008429097268812035 0  0.009015836109065469 0.008452005488667369 0  0.009035429456790667 0.008471594355449344 0  0.009057788944723618 0.008476935349731016 0  0.000584560956065443 0.0006566731908302978 0  0.0004648241206030151 0.0006253757234210605 0  0.0006879714274377391 0.0007075994098675775 0  0.0004051683484425679 0.0006007208396322515 0  0.0007541876939031931 0.0007536754673822622 0  0.0002386934673366834 0.0005824751927164302 0  0.0008121719797322475 0.0008018201727492608 0  7.895734593675217e-05 0.0005538767054284305 0  0.000856156893573553 0.0008466525156802934 0  0 0.0005480494466900812 0  0.0009035301080596382 0.0009083319171725436 0  0 0 0  0.000939246867973806 0.0009924623115577891 0  0.01 0 0  0.0009339058736921331 0.001014821772831462 0  0.01 0.0005571664569146784 0  0.0008914087205285403 0.001052510215042517 0  0.009937185929648241 0.0005602048678154705 0  0.0008165829145728644 0.00107776182261448 0  0.009811557788944724 0.0005824755727250804 0  0.0007625641439985681 0.001106561492130742 0  0.00964508290783884 0.0006007208396322515 0  0.0006924401773421158 0.001134204924379682 0  0.009585427135678391 0.0006253757234210605 0  0.000597211921136439 0.001191829735159762 0  0.009478253114286317 0.0006515821529859823 0  0.0005055760606428836 0.00126320124586456 0  0.00937484264291402 0.0007001169347433132 0  0.0004537270030180498 0.001310933582424631 0  0.009296063562378215 0.0007536754673822622 0  0.0004097111541863734 0.001360865186881701 0  0.00923807927654916 0.0008018201727492608 0  0.0003501684555335619 0.001451657829830455 0  0.009194094362707853 0.0008466525156802934 0  0.0002787359727144142 0.001547222220234457 0  0.009146721148221768 0.0009083319171725436 0  0.0002513578050626486 0.001608781961032239 0  0.0091110043883076 0.0009924623115577891 0  0.0002275368345290006 0.001645975896558485 0  0.009116345382589274 0.001014821785907898 0  0.0002011204519182638 0.001709462007901265 0  0.009158842483081762 0.001052510228118953 0  0.0001670823793943093 0.001771356783919598 0  0.009233668341708544 0.001077761824120951 0  0.0001247631327294741 0.001896984924623115 0  0.009287687112282839 0.001106561492130742 0  0.0001020545234543062 0.002036803467505815 0  0.009357811078939291 0.001134204924379682 0  8.096507571907495e-05 0.002097989949748744 0  0.009453039335144969 0.001191829735159762 0  7.071342713566267e-05 0.002148241206030151 0  0.009544675195638523 0.00126320124586456 0  5.669507456120024e-05 0.0025 0  0.009596524253263357 0.001310933582424631 0  7.071342713566267e-05 0.002876884422110553 0  0.009640540102095033 0.001360865186881701 0  8.096507571907495e-05 0.00292713567839196 0  0.009700082800747845 0.001451657829830455 0  0.0001020545234543062 0.002988322160634889 0  0.009771515283566994 0.001547222220234457 0  0.0001247631327294741 0.003128140703517588 0  0.009798893451218758 0.001608781961032239 0  0.0001670823793943093 0.003253768844221106 0  0.009822714421752407 0.001645975896558485 0  0.0002011204519182638 0.003315663620239438 0  0.009849130804363143 0.001709462007901265 0  0.0002275368345290006 0.003379149731582219 0  0.009883168876887099 0.001771356783919598 0  0.0002513578050626486 0.003416343667108464 0  0.009925488123551932 0.001896984924623115 0  0.0002787359727144142 0.003477903407906247 0  0.009948196732827102 0.002036803467505815 0  0.0003501684555335619 0.003573467798310248 0  0.009969286180562333 0.002097989949748744 0  0.0004097111541863734 0.003664260441259002 0  0.009979537829145744 0.002148241206030151 0  0.0004537270030180498 0.003714192045716073 0  0.009993556181720207 0.0025 0  0.0005055760606428836 0.003761924382276144 0  0.009979537829145744 0.002876884422110553 0  0.000597211921136439 0.003833295892980942 0  0.009969286180562333 0.00292713567839196 0  0.0006924401773421158 0.003890920703761021 0  0.009948196732827102 0.002988322160634889 0  0.0007625641439985681 0.003918564136009961 0  0.009925488123551932 0.0031281407035175
[...]
<PointData  Tensors="$\sigma$"> 
<DataArray  type="Float64"  Name="$\sigma$"  NumberOfComponents="9" format="ascii">2.3294459247827481e+07 -1.1674150422204671e+07 0.0000000000000000e+00 -1.1674150422204673e+07 6.7285862575342134e+06 0.0000000000000000e+00 0.0000000000000000e+00 0.0000000000000000e+00 0.0000000000000000e+00  2.3988739073675081e+07 -1.6970930511348832e+07 0.0000000000000000e+00 -1.6970930511348832e+07 1.3426875048630707e+07 0.0000000000000000e+00 0.0000000000000000e+00 0.0000000000000000e+00 0.0000000000000000e+00  2.5511895733415633e+07 -2.2507262629438400e+07 0.0000000000000000e+00 -2.2507262629438400e+07 2.0666738395447560e+07 0.0000000000000000e+00 0.0000000000000000e+00 0.0000000000000000e+00 0.0000000000000000e+00  2.4672187504378058e+07 -2.6616851481278691e+07 0.0000000000000000e+00 -2.6616851481278691e+07 3.0075473581626032e+07 0.0000000000000000e+00 0.0000000000000000e+00 0.0000000000000000e+00 0.0000000000000000e+00  2.0248016701564766e+07 -2.5388292264365390e+07 0.0000000000000000e+00 -2.5388292264365390e+07 3.7908614254882962e+07 0.0000000000000000e+00 0.0000000000000000e+00 0.0000000000000000e+00 0.0000000000000000e+00  1.7188284755742703e+07 -2.9573238430225298e+07 0.0000000000000000e+00 -2.9573238430225298e+07 5.2488055345331997e+07 0.0000000000000000e+00 0.0000000000000000e+00 0.0000000000000000e+00 0.0000000000000000e+00  9.7727899374464508e+06 -2.1009575080991480e+07 0.0000000000000000e+00 -2.1009575080991480e+07 5.5764250205195434e+07 0.0000000000000000e+00 0.0000000000000000e+00 0.0000000000000000e+00 0.0000000000000000e+00  3.9590684762767721e+06 -1.8073351015671447e+07 0.0000000000000000e+00 -1.8073351015671447e+07 6.6054638578637734e+07 0.0000000000000000e+00 0.0000000000000000e+00 0.0000000000000000e+00 0.0000000000000000e+00  3.6102875087679047e+06 -1.5190165902373504e+07 0.0000000000000000e+00 -1.5190165902373504e+07 6.8376920870575875e+07 0.0000000000000000e+00 0.0000000000000000e+00 0.0000000000000000e+00 0.0000000000000000e+00  7.6079741281848203e+05 -8.7383630015421379e+06 0.0000000000000000e+00 -8.7383630015421379e+06 6.1354799316912375e+07 0.0000000000000000e+00 0.0000000000000000e+00 0.0000000000000000e+00 0.0000000000000000e+00  2.7992450145126660e+06 -7.5368903921408383e+06 0.0000000000000000e+00 -7.5368903921408383e+06 6.7789367911267951e+07 0.0000000000000000e+00 0.0000000000000000e+00 0.0000000000000000e+00 0.0000000000000000e+00  2.3666087898551836e+06 -1.0422220384552031e+05 0.0000000000000000e+00 -1.0422220384552031e+05 8.4439732403789312e+07 0.0000000000000000e+00 0.0000000000000000e+00 0.0000000000000000e+00 0.0000000000000000e+00  8.7537665911524219e+05 5.4853530274505997e+06 0.0000000000000000e+00 5.4853530274505997e+06 6.5091821758353114e+07 0.0000000000000000e+00 0.0000000000000000e+00 0.0000000000000000e+00 0.0000000000000000e+00  -1.8114512709637216e+05 6.6700863008669894e+06 0.0000000000000000e+00 6.6700863008669894e+06 5.3707287660450555e+07 0.0000000000000000e+00 0.0000000000000000e+00 0.0000000000000000e+00 0.0000000000000000e+00  2.7796109964115205e+06 1.0312236715949094e+07 0.0000000000000000e+00 1.0312236715949096e+07 5.5262174765839562e+07 0.0000000000000000e+00 0.0000000000000000e+00 0.0000000000000000e+00 0.0000000000000000e+00  3.5791091840809565e+06 1.4085441075164631e+07 0.0000000000000000e+00 1.4085441075164614e+07 5.0216060523456976e+07 0.0000000000000000e+00 0.0000000000000000e+00 0.0000000000000000e+00 0.0000000000000000e+00  6.1743703995845029e+06 1.4597630456167897e+07 0.0000000000000000e+00 1.4597630456167905e+07 4.1150499152536616e+07 0.0000000000000000e+00 0.0000000000000000e+00 0.0000000000000000e+00 0.0000000000000000e+00  1.0221373509528605e+07 1.8192864482461870e+07 0.0000000000000000e+00 1.8192864482461866e+07 3.3183076332815394e+07 0.0000000000000000e+00 0.0000000000000000e+00 0.0000000000000000e+00 0.0000000000000000e+00  9.5201563857100401e+06 1.3042414215067277e+07 0.0000000000000000e+00 1.3042414215067267e+07 2.1392657022470094e+07 0.0000000000000000e+00 0.0000000000000000e+00 0.0000000000000000e+00 0.0000000000000000e+00  1.0672229619340969e+07 1.1747598616721919e+07 0.0000000000000000e+00 1.1747598616721917e+07 1.4302049270533392e+07 0.0000000000000000e+00 0.0000000000000000e+00 0.0000000000000000e+00 0.0000000000000000e+00  6.3199415620966246e+06 6.4699248270660350e+06 0.0000000000000000e+00 6.4699248270660359e+06 6.6125936760183964e+06 0.0000000000000000e+00 0.0000000000000000e+00 0.0000000000000000e+00 0.0000000000000000e+00  1.4865465093474305e+05 1.4219274596058321e+06 0.0000000000000000e+00 1.4219274596058321e+06 1.8052997857603582e+06 0.0000000000000000e+00 0.0000000000000000e+00 0.0000000000000000e+00 0.0000000000000000e+00  -1.1965503217128906e+07 -5.9344247537303371e+06 0.0000000000000000e+00 -5.9344247537303362e+06 7.0644880109868653e+05 0.0000000000000000e+00 0.0000000000000000e+00 0.0000000000000000e+00 0.0000000000000000e+00  -5.5581501692779087e+07 3.9551629121502908e+06 0.0000000000000000e+00 3.9551629121502908e+06 -4.9543269335653745e+06 0.0000000000000000e+00 0.0000000000000000e+00 0.0000000000000000e+00 0.0000000000000000e+00  -7.2934201629843503e+07 4.1098256751940399e+07 0.0000000000000000e+00 4.1098256751940399e+07 -3.1518767575376514e+07 0.0000000000000000e+00 0.0000000000000000e+00 0.0000000000000000e+00 0.0000000000000000e+00  -3.2655846218742445e+07 4.4635042629478291e+07 0.0000000000000000e+00 4.4635042629478291e+07 -6.5114438362418629e+07 0.0000000000000000e+00 0.0000000000000000e+00 0.0000000000000000e+00 0.0000000000000000e+00  -1.2642146428856799e+07 2.6088241648214608e+07 0.0000000000000000e+00 2.6088241648214608e+07 -6.2244909936968289e+07 0.0000000000000000e+00 0.0000000000000000e+00 0.0000000000000000e+00 0.0000000000000000e+00  -8.2585395716892900e+06 2.0492526339057270e+07 0.0000000000000000e+00 2.0492526339057270e+07 -4.6725786669191696e+07 0.0000000000000000e+00 0.0000000000000000e+00 0.0000000000000000e+00 0.0000000000000000e+00  -8.8220193211850114e+06 1.9934800511359684e+07 0.0000000000000000e+00 1.9934800511359684e+07 -4.5134927084638290e+07 0.0000000000000000e+00 0.0000000000000000e+00 0.0000000000000000e+00 0.0000000000000000e+00  -9.2374801735553760e+06 2.1057826277784429e+07 0.0000000000000000e+00 2.1057826277784429e+07 -3.8762915024458878e+07 0.0000000000000000e+00 0.0000000000000000e+00 0.0000000000000000e+00 0.0000000000000000e+00  -1.2834732997325733e+07 2.1722156431312773e+07 0.0000000000000000e+00 2.1722156431312773e+07 -3.4257366623252355e+07 0.0000000000000000e+00 0.0000000000000000e+00 0.0000000000000000e+00 0.0000000000000000e+00  -1.9367895272135925e+07 2.4449052471017692e+07 0.0000000000000000e+00 2.4449052471017692e+07 -2.7523840699408740e+07 0.0000000000000000e+00 0.0000000000000000e+00 0.0000000000000000e+00 0.0000000000000000e+00  -2.1593533350323170e+07 2.3813828461884629e+07 0.0000000000000000e+00 2.3813828461884629e+07 -2.3551994013485726e+07 0.0000000000000000e+00 0.0000000000000000e+00 0.0000000000000000e+00 0.0000000000000000e+00  -2.6983982003160883e+07 2.2248119812873263e+07 0.0000000000000000e+00 2.2248119812873263e+07 -1.7051409387603942e+07 0.0000000000000000e+00 0.0000000000000000e+00 0.0000000000000000e+00 0.0000000000000000e+00  -3.5674180714128666e+07 2.5774580952361029e+07 0.0000000000000000e+00 2.5774580952361029e+07 -1.6569589512342142e+07 0.0000000000000000e+00 0.0000000000000000e+00 0.0000000000000000e+00 0.0000000000000000e+00  -3.7875192161344834e+07 2.6159679819659427e+07 0.0000000000000000e+00 2.6159679819659427e+07 -1.8609479909490660e+07 0.0000000000000000e+00 0.0000000000000000e+00 0.0000000000000000e+00 0.0000000000000000e+00  -3.5783512596659727e+07 2.3565349003833104e+07 0.0000000000000000e+00 2.3565349003833104e+07 -1.3200750153097773e+07 0.0000000000000000e+00 0.0000000000000000e+00 0.0000000000000000e+00 0.0000000000000000e+00  -4.1334926691989474e+07 2.1517634929582909e+07 0.0000000000000000e+00 2.1517634929582909e+07 -1.1030431331397234e+07 0.0000000000000000e+00 0.0000000000000000e+00 0.0000000000000000e+00 0.0000000000000000e+00  -4.3621812367165476e+07 2.1362477977939639e+07 0.0000000000000000e+00 2.1362477977939639e+07 -9.9013636213232093e+06 0.0000000000000000e+00 0.0000000000000000e+00 0.0000000000000000e+00 0.0000000000000000e+00  -4.1343195915286534e+07 1.9723116903830450e+07 0.0000000000000000e+00 1.9723116903830450e+07 -8.6018845260062348e+06 0.0000000000000000e+00 0.0000000000000000e+00 0.0000000000000000e+00 0.0000000000000000e+00  -4.0666567785067394e+07 1.6607808065189192e+07 0.0000000000000000e+00 1.6607808065189190e+07 -7.3015938448656378e+06 0.0000000000000000e+00 0.0000000000000000e+00 0.0000000000000000e+00 0.0000000000000000e+00  -3.8525479744844727e+07 1.6160206094682863e+07 0.0000000000000000e+00 1.6160206094682867e+07 -4.7658666219559107e+06 0.0000000000000000e+00 0.0000000000000000e+00 0.0000000000000000e+00 0.0000000000000000e+00  -4.4872501336951844e+07 1.0297801471760293e+07 0.0000000000000000e+00 1.0297801471760299e+07 -2.6298535427191732e+06 0.0000000000000000e+00 0.0000000000000000e+00 0.0000000000000000e+00 0.0000000000000000e+00  -4.7947980880390771e+07 9.5565596258304883e+06 0.0000000000000000e+00 9.5565596258304883e+06 -7.8959950433812477e+05 0.0000000000000000e+00 0.0000000000000000e+00 0.0000000000000000e+00 0.0000000000000000e+00  -5.0231406748641610e+07 1.3771101596715584e+07 0.0000000000000000e+00 1.3771101596715590e+07 -5.6566244139700802e+06 0.0000000000000000e+00 0.0000000000000000e+00 0.0000000000000000e+00 0.0000000000000000e+00  -4.8080158211535476e+07 6.1997449119040314e+06 0.0000000000000000e+00 6.1997449119040305e+06 8.3166812649236880e+06 0.0000000000000000e+00 0.0000000000000000e+00 0.0000000000000000e+00 0.0000000000000000e+00  -4.1648040485385247e+07 -1.3847469670699496e+05 0.0000000000000000e+00 -1.3847469670699438e+05 1.4671218628681209e+06 0.0000000000000000e+00 0.0000000000000000e+00 0.0000000000000000e+00 0.0000000000000000e+00  -4.2608430594752386e+07 -6.3393267530250065e+06 0.0000000000000000e+00 -6.3393267530250056e+06 8.6478838905244432e+06 0.0000000000000000e+00 0.0000000000000000e+00 0.0000000000000000e+00 0.0000000000000000e+00  -4.3267364349961951e+07 -1.1858096630588617e+07 0.0000000000000000e+00 -1.1858096630588625e+07 -4.4496158080352079e+06 0.0000000000000000e+00 0.0000000000000000e+00 0.0000000000000000e+00 0.0000000000000000e+00  -4.0986411201726988e+07 -7.8792224694303609e+06 0.0000000000000000e+00 -7.8792224694303507e+06 -8.9754418370763340e+05 0.0000000000000000e+00 0.0000000000000000e+00 0.0000000000000000e+00 0.0000000000000000e+00  -3.3894237062110662e+07 -9.6007195195143837e+06 0.0000000000000000e+00 -9.6007195195143968e+06 -1.6747455866265371e+06 0.0000000000000000e+00 0.0000000000000000e+00 0.0000000000000000e+00 0.0000000000000000e+00  -2.9313439383399654e+07 -1.3381894741292151e+07 0.0000000000000000e+00 -1.3381894741292154e+07 -5.8424132511465168e+06 0.0000000000000000e+00 0.0000000000000000e+00 0.0000000000000000e+00 0.0000000000000000e+00  -3.2716370809698161e+07 -1.6251504564366624e+07 0.0000000000000000e+00 -1.6251504564366609e+07 -7.7786873839068431e+06 0.0000000000000000e+00 0.0000000000000000e+00 0.0000000000000000e+00 0.0000000000000000e+00  -3.1653741089432437e+07 -1.5988543630122259e+07 0.0000000000000000e+00 -1.5988543630122257e+07 -8.1204647661138820e+06 0.0000000000000000e+00 0.0000000000000000e+00 0.0000000000000000e+00 0.0000000000000000e+00  -2.9744717276118223e+07 -1.5738662046354316e+07 0.0000000000000000e+00 -1.5738662046354316e+07 -7.2951352221811060e+06 0.0000000000000000e+00 0.0000000000000000e+00 0.0000000000000000e+00 0.0000000000000000e+00  -2.6509745053110786e+07 -1.7320035270133618e+07 0.0000000000000000e+00 -1.7320035270133618e+07 -1.0512434383706952e+07 0.0000000000000000e+00 0.0000000000000000e+00 0.0000000000000000e+00 0.0000000000000000e+00  -2.4534875727397069e+07 -1.8206465125197049e+07 0.0000000000000000e+00 -1.8206465125197049e+07 -1.1771440950021507e+07 0.0000000000000000e+00 0.0000000000000000e+00 0.0000000000000000e+00 0.0000000000000000e+00  -2.2607033128176898e+07 -1.7136594716147963e+07 0.0000000000000000e+00 -1.7136594716147963e+07 -1.2083768001365760e+07 0.0000000000000000e+00 0.0000000000000000e+00 0.0000000000000000e+00 0.0000000000000000e+00  -1.4485498226104289e+07 -1.6345256757274698e+07 0.0000000000000000e+00 -1.6345256757274698e+07 -1.6102931912874402e+07 0.0000000000000000e+00 0.0000000000000000e+00 0.0000000000000000e+00 0.0000000000000000e+00  -1.2672449780778475e+07 -1.6942888915338639e+07 0.0000000000000000e+00 -1.6942888915338639e+07 -1.9837092082050510e+07 0.0000000000000000e+00 0.0000000000000000e+00 0.0000000000000000e+00 0.0000000000000000e+00  -9.1809032120900247e+06 -1.5302582553360851e+07 0.0000000000000000e+00 -1.5302582553360851e+07 -2.3835597837108042e+07 0.0000000000000000e+00 0.0000000000000000e+00 0.0000000000000000e+00 0.0000000000000000e+00  -6.7499894546941854e+06 -1.4620882970894139e+07 0.0000000000000000e+00 -1.4620882970894139e+07 -2.7039542263217319e+07 0.0000000000000000e+00 0.0000000000000000e+00 0.0000000000000000e+00 0.0000000000000000e+00  -7.2589165264391694e+06 -1.5447930942726878e+07 0.0000000000000000e+00 -1.5447930942726878e+07 -3.1830910617189292e+07 0.0000000000000000e+00 0.0000000000000000e+00 0.0000000000000000e+00 0.0000000000000000e+00  -5.3593575216655936e+06 -1.4438201683949087e+07 0.0000000000000000e+00 -1.4438201683949087e+07 -3.3787297500890374e+07 0.0000000000000000e+00 0.0000000000000000e+00 0.0000000000000000e+00 0.0000000000000000e+00  -8.7384341497605499e+06 -1.7974521101245426e+07 0.0000000000000000e+00 -1.7974521101245426e+07 -4.1831774513953649e+07 0.0000000000000000e+00 0.0000000000000000e+00 0.0000000000000000e+00 0.0000000000000000e+00  -1.7582390250497378e+07 -2.4891462475601222e+07 0.0000000000000000e+00 -2.4891462475601222e+07 -4.0701289958506092e+07 0.0000000000000000e+00 0.0000000000000000e+00 0.0000000000000000e+00 0.0000000000000000e+00  -1.2656898680756997e+07 -1.5905146472807208e+07 0.0000000000000000e+00 -1.5905146472807208e+07 -1.7937862664232206e+07 0.0000000000000000e+00 0.0000000000000000e+00 0.0000000000000000e+00 0.0000000000000000e+00  2.6340318647830982e+07 -1.5822745864409298e+07 0.0000000000000000e+00 -1.5822745864409298e+07 6.2363845077476203e+06 0.0000000000000000e+00 0.0000000000000000e+00 0.0000000000000000e+00 0.0000000000000000e+00  3.8849373028103195e+07 -2.6017880388044696e+07 0.0000000000000000e+00 -2.6017880388044696e+07 2.0968523976667438e+07 0.0000000000000000e+00 0.0000000000000000e+00 0.0000000000000000e+00 0.0000000000000000e+00  4.6090334423642442e+07 -4.1452119543483324e+07 0.0000000000000000e+00 -4.1452119543483324e+07 3.8381132215074733e+07 0.0000000000000000e+00 0.0000000000000000e+00 0.0000000000000000e+00 0.0000000000000000e+00  4.0506847134858184e+07 -4.4291773483119398e+07 0.0000000000000000e+00 -4.4291773483119398e+07 5.2041893573888890e+07 0.0000000000000000e+00 0.0000000000000000e+00 0.0000000000000000e+00 0.0000000000000000e+00  3.7205044138784297e+07 -4.8864217447084278e+07 0.0000000000000000e+00 -4.8864217447084278e+07 6.7698100652374849e+07 0.0000000000000000e+00 0.0000000000000000e+00 0.0000000000000000e+00 0.0000000000000000e+00  2.7734569259836596e+07 -4.8421326366016492e+07 0.0000000000000000e+00 -4.8421326366016500e+07 9.0241327661220074e+07 0.0000000000000000e+00 0.0000000000000000e+00 0.0000000000000000e+00 0.0000000000000000e+00  1.6223414347961795e+07 -3.5435394123556897e+07 0.0000000000000000e+00 -3.5435394123556904e+07 9.3080735603376999e+07 0.0000000000000000e+00 0.0000000000000000e+00 0.0000000000000000e+00 0.0000000000000000e+00  6.1622733630048782e+06 -2.8910764498318546e+07 0.0000000000000000e+00 -2.8910764498318546e+07 1.0676448354392405e+08 0.0000000000000000e+00 0.0000000000000000e+00 0.0000000000000000e+00 0.0000000000000000e+00  6.2547686925368654e+06 -2.4592694423564158e+07 0.0000000000000000e+00 -2.4592694423564158e+07 1.0530783982011357e+08 0.0000000000000000e+00 0.0000000000000000e+00 0.0000000000000000e+00 0.0000000000000000e+00  1.0058071064546272e+06 -1.4251803428879838e+07 0.0000000000000000e+00 -1.4251803428879838e+07 9.5985030146807641e+07 0.0000000000000000e+00 0.0000000000000000e+00 0.0000000000000000e+00 0.0000000000000000e+00  5.0990349670334226e+06 -6.1814467178035406e+06 0.0000000000000000e+00 -6.1814467178035406e+06 9.0877544554596648e+07 0.0000000000000000e+00 0.0000000000000000e+00 0.0000000000000000e+00 0.0000000000000000e+00  3.5711034175758751e+05 9.1866281522917412e+06 0.0000000000000000e+00 9.1866281522917412e+06 9.5970289975930184e+07 0.0000000000000000e+00 0.0000000000000000e+00 0.0000000000000000e+00 0.0000000000000000e+00  8.8977612764460745e+05 7.3398094067980498e+06 0.0000000000000000e+00 7.3398094067980498e+06 6.6631889039223373e+07 0.0000000000000000e+00 0.0000000000000000e+00 0.0000000000000000e+00 0.0000000000000000e+00  2.7295784370014528e+06 1.2161457754921671e+07 0.0000000000000000e+00 1.2161457754921671e+07 6.1624903265130833e+07 0.0000000000000000e+00 0.0000000000000000e+00 0.0000000000000000e+00 0.0000000000000000e+00  3.1369656179012167e+06 1.3054972632765710e+07 0.0000000000000000e+00 1.3054972632765710e+07 4.9572659803685464e+07 0.0000000000000000e+00 0.0000000000000000e+00 0.0000000000000000e+00 0.0000000000000000e+00  3.0439581086725411e+06 9.9727423169894926e+06 0.0000000000000000e+00 9.9727423169894926e+06 3.2033356779106788e+07 0.0000000000000000e+00 0.0000000000000000e+00 0.0000000000000000e+00 0.0000000000000000e+00  3.9541173184036947e+05 4.7249787529733833e+06 0.0000000000000000e+00 4.7249787529733833e+06 1.4465573258755341e+07 0.0000000000000000e+00 0.0000000000000000e+00 0.0000000000000000e+00 0.0000000000000000e+00  -5.7529095186144775e+06 -6.1329414919580044e+06 0.0000000000000000e+00 -6.1329414919580044e+06 -3.7813656591378548e+06 0.0000000000000000e+00 0.0000000000000000e+00 0.0000000000000000e+00 0.0000000000000000e+00  -1.6738215434252311e+07 -1.6309804867974440e+07 0.0000000000000000e+00 -1.6309804867974440e+07 -1.5784685642228775e+07 0.0000000000000000e+00 0.0000000000000000e+00 0.0000000000000000e+00 0.0000000000000000e+00  -3.7204012270814478e+07 -2.7158081067720253e+07 0.0000000000000000e+00 -2.7158081067720253e+07 -1.9948425658660393e+07 0.0000000000000000e+00 0.0000000000000000e+00 0.0000000000000000e+00 0.0000000000000000e+00  -6.5963820982828192e+07 -3.6689058004016370e+07 0.0000000000000000e+00 -3.6689058004016370e+07 -2.3154224000630401e+07 0.0000000000000000e+00 0.0000000000000000e+00 0.0000000000000000e+00 0.0000000000000000e+00  -1.1168817433573651e+08 -4.1450193892090254e+07 0.0000000000000000e+00 -4.1450193892090254e+07 -1.4051825785083003e+07 0.0000000000000000e+00 0.0000000000000000e+00 0.0000000000000000e+00 0.0000000000000000e+00  -2.0054443401200920e+08 -3.5281621607251475e+06 0.0000000000000000e+00 -3.5281621607251475e+06 -1.6645306371072834e+07 0.0000000000000000e+00 0.0000000000000000e+00 0.0000000000000000e+00 0.0000000000000000e+00  -1.8811887504087529e+08 7.6939333433288634e+07 0.0000000000000000e+00 7.6939333433288619e+07 -5.3437041992214344e+07 0.0000000000000000e+00 0.0000000000000000e+00 0.0000000000000000e+00 0.0000000000000000e+00  -6.5609090399191998e+07 6.4614651545952968e+07 0.0000000000000000e+00 6.4614651545952983e+07 -6.5698526352298036e+07 0.0000000000000000e+00 0.0000000000000000e+00 0.0000000000000000e+00 0.0000000000000000e+00  -1.9185471339963339e+07 2.5875610215775274e+07 0.0000000000000000e+00 2.5875610215775274e+07 -4.0198637078838333e+07 0.0000000000000000e+00 0.0000000000000000e+00 0.0000000000000000e+00 0.0000000000000000e+00  -3.5412580317021054e+06 1.0646633322303878e+07 0.0000000000000000e+00 1.0646633322303878e+07 -2.1798708146599706e+07 0.0000000000000000e+00 0.0000000000000000e+00 0.0000000000000000e+00 0.0000000000000000e+00  -2.7017843818665384e+06 5.5615358034601929e+06 0.0000000000000000e+00 5.5615358034601929e+06 -1.1670090941548504e+07 0.0000