<?xml version="1.0"?>
<VTKFile type="UnstructuredGrid"  version="0.1"  >
<UnstructuredGrid>
<Piece  NumberOfPoints="1799" NumberOfCells="3156">
<Points>
<DataArray  type="Float64"  NumberOfComponents="3"  format="ascii">1.694065894508601e-21 0.008447317744001559 0  0 0.006243487017789186 0  0 0.01 0  0.01 0.01 0  0.01 0.004739447698251261 0  0.01 0.003038811340045742 0  0.01 0 0  0 0 0  0.00972274937591714 0.00446136709 0  0.009653726258356362 0.004545183154286949 0  0.009783606631901408 0.0043734488461064 0  0.009577812281436313 0.004624366443043088 0  0.009835143529851395 0.004282096254618384 0  0.009496374895431106 0.004698536913086191 0  0.009876351429728553 0.004188097333533943 0  0.009410843899527923 0.004767474310794485 0  0.009906389591104073 0.004092339945416686 0  0.009322680015752169 0.00483112308721043 0  0.009924603388293412 0.003995788691361544 0  0.009233342881914028 0.004889592860194898 0  0.009930538269388231 0.00389945963832429 0  0.009144259222736564 0.004943154406398476 0  0.009923949134101986 0.003804393533973133 0  0.009056791952980949 0.004992231280310688 0  0.009904804916195522 0.003711628202889073 0  0.00897221094262878 0.005037387269757166 0  0.009873288272257268 0.003622170840092915 0  0.008891666132610079 0.005079310004121139 0  0.009829790396922524 0.003536970921943865 0  0.008816163631214721 0.005118791130579932 0  0.009774901102315603 0.003456894440322572 0  0.008746545347644217 0.005156703562277342 0  0.009709394413691105 0.003382700134020289 0  0.008683472631978471 0.005193976378365099 0  0.009634210041128223 0.00331501834219343 0  0.008627414292309099 0.005231568017322153 0  0.009550431186043644 0.003254333039822774 0  0.008578639252366998 0.005270438450342868 0  0.009459259228807002 0.003200967535951617 0  0.008537213999305775 0.005311521049719365 0  0.00936198591772306 0.003155074224035663 0  0.008503004854204898 0.00535569487730484 0  0.009259963738278846 0.00311662867229655 0  0.008475684980220988 0.005403758110057852 0  0.009154575183414377 0.003085428233059718 0  0.008454745928046752 0.005456403293512485 0  0.009047201669650919 0.00306109523639258 0  0.008439513408278112 0.005514195070427174 0  0.008939192849631329 0.003043084717779311 0  0.008429166878152986 0.005577550971903466 0  0.008831837058876933 0.003030696514962359 0  0.008422762438422462 0.005646725783411865 0  0.008726333603687408 0.003023091458314896 0  0.008419258457098896 0.005721799910265017 0  0.008623767548895558 0.003019311274956418 0  0.008417543272430451 0.005802672068315741 0  0.008525087599857118 0.003018301731897273 0  0.008416464279248125 0.00588905651847861 0  0.008431087594226352 0.003018938460180701 0  0.008414857671986093 0.005980484950740676 0  0.008342392027717107 0.003020054832380215 0  0.008411578104923951 0.00607631300744762 0  0.008259445936461489 0.003020471211663848 0  0.008405527535824455 0.006175731319709577 0  0.008182509349292211 0.003019024853329008 0  0.008395682542970321 0.006277780817654691 0  0.008111656409014527 0.003014599720199745 0  0.008381119447013561 0.006381371967788657 0  0.008046779145346881 0.003006155472077048 0  0.008361036626979524 0.006485307491577932 0  0.007987595766591686 0.002992754906602592 0  0.008334773492744059 0.006588308031041598 0  0.007933663225123278 0.002973589164041123 0  0.008301825662481763 0.006689040151823762 0  0.007884393706229835 0.002948000060762873 0  0.008261855990795578 0.006786146013815808 0  0.007839074593337327 0.002915498984345503 0  0.00821470119903896 0.006878273995427361 0  0.00779689137756701 0.002875781865550529 0  0.008160373971076945 0.006964109531182152 0  0.007756952908035942 0.002828739836943341 0  0.008099060492600814 0.007042405414120494 0  0.007718318323066783 0.002774465292296384 0  0.008031113527237115 0.007112010824752832 0  0.007680024962909086 0.00271325317257295 0  0.00795704123519566 0.007171898376800313 0  0.007641116542652925 0.002645597420482335 0  0.007877492047271241 0.007221188515997342 0  0.007600670860259881 0.002572182663460059 0  0.007793236005976425 0.007259170670701667 0  0.007557826329114609 0.002493871301548735 0  0.007705143073969071 0.007285320630435001 0  0.007511806656826274 0.002411686289155665 0  0.007614158985545023 0.007299313718867113 0  0.007461943041351158 0.002326790005260706 0  0.007521279277912055 0.0073010334289404 0  0.007407693320609463 0.002240459702730237 0  0.007427522183731196 0.007290575297323677 0  0.007348657590981677 0.002154060111582997 0  0.007333901093897399 0.007268245910489354 0  0.007284589901391725 0.00206901384126507 0  0.007241397309057064 0.007234557052593699 0  0.007215405730813352 0.001986770281484875 0  0.007150933789699272 0.00719021512310135 0  0.007141185065425865 0.001908773738582196 0  0.007063350588039396 0.007136106066830752 0  0.007062171004568673 0.001836431563827099 0  0.006979382601016691 0.007073276167978721 0  0.006978763939261549 0.001771083030979474 0  0.006899640223662019 0.007002909160025809 0  0.006891511460488134 0.001713969702858609 0  0.006824593407373458 0.006926300192755933 0  0.006801094263833782 0.001666207991002947 0  0.006754559540147956 0.006844827273742502 0  0.006708308419676155 0.00162876455961884 0  0.006689695467758148 0.006759920862683462 0  0.006614044471369561 0.001602435156224392 0  0.006629993868701035 0.006673032341407502 0  0.006519263905397843 0.001587827368384263 0  0.006575284084148806 0.006585602109130518 0  0.006424973605244305 0.00158534771074889 0  0.006525237389907268 0.006499028060960921 0  0.006332198953034525 0.001595193341602671 0  0.006479376583406328 0.006414635197532647 0  0.006241956278528544 0.001617348595877673 0  0.006437089647876208 0.006333647085242707 0  0.006155225372873471 0.001651586404869184 0  0.006397647150892512 0.00625715984059454 0  0.00607292278421836 0.001697474554571888 0  0.006360222938045857 0.006186119249742206 0  0.005995876593836629 0.001754386617555196 0  0.006323917597038065 0.006121301557042314 0  0.005924803335248409 0.001821517280492992 0  0.006287784095183865 0.006063298366166584 0  0.005860287665879005 0.001897901683632007 0  0.0062508549359344 0.00601250599634399 0  0.00580276533234513 0.001982438292224905 0  0.006212170139093256 0.005969119527087292 0  0.005752509888229881 0.002073914735631396 0  0.006170805325914 0.005933131650016665 0  0.005709623529238961 0.002171035979469365 0  0.00612589918486164 0.005904336328960144 0  0.005674032307267846 0.002272454141595308 0  0.006076679606648487 0.005882337152288339 0  0.005645485874731519 0.002376799225137041 0  0.006022487807921907 0.005866560147323738 0  0.005623561796267508 0.002482710022195841 0  0.005962799810943057 0.005856270718467968 0  0.005607674349474454 0.002588864440638754 0  0.005897244710577686 0.005850594271079678 0  0.005597087622580383 0.002694008523617222 0  0.005825619238346946 0.005848539994562327 0  0.005590932607696336 0.002796983466621648 0  0.005747898224220681 0.005849027202760175 0  0.005588227886339777 0.002896749989114506 0  0.005664240658026499 0.005850913569457749 0  0.005587903411768036 0.002992409485755934 0  0.005574991161285845 0.005853024553003058 0  0.00558882681266186 0.003083221464236011 0  0.005480676794268173 0.0058541832778865 0  0.005589831576859201 0.003168616870700337 0  0.005381999239242995 0.005853240133126504 0  0.005589746423825433 0.003248207007348517 0  0.005279822516415462 0.005849101357707455 0  0.005587425141631403 0.00332178785741102 0  0.005175156500976945 0.005840755911796739 0  0.005581776149243588 0.003389339747608045 0  0.00506913661529584 0.005827299978297529 0  0.005571791048314209 0.003451022394501277 0  0.004963000166879053 0.005807958501303589 0  0.005556571450340227 0.003507165495970296 0  0.004858059887934908 0.005782103244641807 0  0.005535353404530312 0.003558255139524018 0  0.004755675304028876 0.005749266942985061 0  0.005507528808027482 0.003604916402549837 0  0.004657222615643685 0.005709153217746636 0  0.005472663251911699 0.003647892613343369 0  0.004564063816013228 0.005661642037623928 0  0.005430509841895833 0.003688021823527707 0  0.004477515790388595 0.00560679061654508 0  0.005381018629732107 0.003726211110241175 0  0.004398820145347423 0.005544829757060492 0  0.005324341397676651 0.003763409378575775 0  0.004329114501762111 0.00547615576202805 0  0.00526083165129817 0.003800579369906148 0  0.004269405951942947 0.005401318148896703 0  0.005191039792677943 0.00383866959910631 0  0.004220547331062618 0.005321003506214064 0  0.005115703563750334 0.003878586942798619 0  0.004183216886472467 0.005236015928541855 0  0.005035733965268281 0.003921170581761714 0  0.004157901847560569 0.005147254551350707 0  0.004952196967785547 0.00396716796394016 0  0.004144886305359802 0.005055688779556268 0  0.004866291434383562 0.004017213401087919 0  0.004144243707482425 0.004962331860358698 0  0.004779323768077839 0.004071809843297703 0  0.004155834162682716 0.004868213491542542 0  0.004692679877608203 0.004131314293258991 0  0.004179306633167043 0.004774352179382177 0  0.004607795121646793 0.004195927228129257 0  0.004214105974540842 0.0046817280652164 0  0.004526122941701917 0.004265686293763611 0  0.004259484665915422 0.004591256926493267 0  0.004449102926905492 0.004340464426324128 0  0.004314518959085191 0.004503766026986902 0  0.004378129068627031 0.004419972442741865 0  0.00593001182314166 0.006372403387971871 0  0.005939572443554628 0.006436360317137665 0  0.005925376372385204 0.006368751471385894 0  0.005946732308607814 0.006530898816930391 0  0.005866840669782601 0.00633199119654035 0  0.00594701266737181 0.006625814903473438 0  0.005804249765180952 0.006301600770407027 0  0.005940440295727538 0.006720641436504761 0  0.00573695820405656 0.00627701458488837 0  0.005927101959384199 0.006814914480349616 0  0.00566445506679863 0.006257506825568757 0  0.005907143630376305 0.006908179927508449 0  0.005586382222683439 0.006242212086839124 0  0.005880768731714959 0.007 0  0.005502548881191342 0.006230149145824911 0  0.00584823543546249 0.007089959498878739 0  0.0054129
[...]
<PointData  Tensors="$\sigma$"> 
<DataArray  type="Float64"  Name="$\sigma$"  NumberOfComponents="9" format="ascii">-9.5281993641617391e+06 2.7608433150120687e+07 0.0000000000000000e+00 2.7608433150120687e+07 2.3141045257734892e+08 0.0000000000000000e+00 0.0000000000000000e+00 0.0000000000000000e+00 0.0000000000000000e+00  -1.2617389410741575e+07 -2.2242179760158300e+07 0.0000000000000000e+00 -2.2242179760158293e+07 1.3976575403128651e+08 0.0000000000000000e+00 0.0000000000000000e+00 0.0000000000000000e+00 0.0000000000000000e+00  8.2307859984036637e+06 1.8302588972024526e+06 0.0000000000000000e+00 1.8302588972024522e+06 1.1792746812898791e+08 0.0000000000000000e+00 0.0000000000000000e+00 0.0000000000000000e+00 0.0000000000000000e+00  9.6702012389426221e+04 3.1019375214039010e+05 0.0000000000000000e+00 3.1019375214038970e+05 4.1870645493608966e+07 0.0000000000000000e+00 0.0000000000000000e+00 0.0000000000000000e+00 0.0000000000000000e+00  -8.5508950835971609e+06 -2.0378190891617082e+07 0.0000000000000000e+00 -2.0378190891617078e+07 1.2163559754070184e+08 0.0000000000000000e+00 0.0000000000000000e+00 0.0000000000000000e+00 0.0000000000000000e+00  -9.6999628728879038e+06 4.5214634038129330e+07 0.0000000000000000e+00 4.5214634038129330e+07 1.8226212625484040e+08 0.0000000000000000e+00 0.0000000000000000e+00 0.0000000000000000e+00 0.0000000000000000e+00  2.3461608520657206e+06 2.2455243541406014e+05 0.0000000000000000e+00 2.2455243541405952e+05 7.2551966784723073e+07 0.0000000000000000e+00 0.0000000000000000e+00 0.0000000000000000e+00 0.0000000000000000e+00  1.3065235637241893e+05 6.0960299826913826e+04 0.0000000000000000e+00 6.0960299826913797e+04 4.0716899758787744e+07 0.0000000000000000e+00 0.0000000000000000e+00 0.0000000000000000e+00 0.0000000000000000e+00  1.5772340929148270e+07 1.2343424660519809e+07 0.0000000000000000e+00 1.2343424660519812e+07 2.3151878184424520e+08 0.0000000000000000e+00 0.0000000000000000e+00 0.0000000000000000e+00 0.0000000000000000e+00  4.1081759299089566e+07 1.9243662640903696e+07 0.0000000000000000e+00 1.9243662640903689e+07 1.2284140199342349e+08 0.0000000000000000e+00 0.0000000000000000e+00 0.0000000000000000e+00 0.0000000000000000e+00  -1.5304138896527618e+07 -2.9256551567847345e+07 0.0000000000000000e+00 -2.9256551567847364e+07 3.3321027116354352e+08 0.0000000000000000e+00 0.0000000000000000e+00 0.0000000000000000e+00 0.0000000000000000e+00  5.1698175813527092e+07 -2.1641773458312745e+06 0.0000000000000000e+00 -2.1641773458312755e+06 6.5362154270430446e+07 0.0000000000000000e+00 0.0000000000000000e+00 0.0000000000000000e+00 0.0000000000000000e+00  -1.4844656819262195e+06 -7.9232724792067915e+07 0.0000000000000000e+00 -7.9232724792067870e+07 3.9501140725754350e+08 0.0000000000000000e+00 0.0000000000000000e+00 0.0000000000000000e+00 0.0000000000000000e+00  5.6349137792492680e+07 -4.7300456764994352e+05 0.0000000000000000e+00 -4.7300456764994352e+05 2.2551463641908839e+07 0.0000000000000000e+00 0.0000000000000000e+00 0.0000000000000000e+00 0.0000000000000000e+00  -1.4967515105596047e+07 -1.0934027153993918e+08 0.0000000000000000e+00 -1.0934027153993921e+08 4.1922627814907706e+08 0.0000000000000000e+00 0.0000000000000000e+00 0.0000000000000000e+00 0.0000000000000000e+00  -1.3248698111773811e+07 -2.1000832782341186e+07 0.0000000000000000e+00 -2.1000832782341186e+07 3.2785140455331121e+07 0.0000000000000000e+00 0.0000000000000000e+00 0.0000000000000000e+00 0.0000000000000000e+00  4.5269587200391568e+07 -1.1935387001195891e+08 0.0000000000000000e+00 -1.1935387001195891e+08 4.0255899791942167e+08 0.0000000000000000e+00 0.0000000000000000e+00 0.0000000000000000e+00 0.0000000000000000e+00  7.0750577499993593e+06 1.2205805426691161e+07 0.0000000000000000e+00 1.2205805426691163e+07 2.8736568838413622e+07 0.0000000000000000e+00 0.0000000000000000e+00 0.0000000000000000e+00 0.0000000000000000e+00  2.5143824525174708e+06 2.4190960995039415e+08 0.0000000000000000e+00 2.4190960995039415e+08 6.5740211451853943e+08 0.0000000000000000e+00 0.0000000000000000e+00 0.0000000000000000e+00 0.0000000000000000e+00  -4.9782316294074468e+06 1.5548476109918807e+07 0.0000000000000000e+00 1.5548476109918810e+07 9.4185955599574782e+06 0.0000000000000000e+00 0.0000000000000000e+00 0.0000000000000000e+00 0.0000000000000000e+00  -1.9988385637975326e+08 4.3494137397394285e+07 0.0000000000000000e+00 4.3494137397394285e+07 1.1320811982623515e+09 0.0000000000000000e+00 0.0000000000000000e+00 0.0000000000000000e+00 0.0000000000000000e+00  -1.3818052793215252e+07 6.9832474397757708e+05 0.0000000000000000e+00 6.9832474397757626e+05 -1.0222295315185301e+07 0.0000000000000000e+00 0.0000000000000000e+00 0.0000000000000000e+00 0.0000000000000000e+00  7.4263873215730730e+06 -1.7979868855769843e+08 0.0000000000000000e+00 -1.7979868855769843e+08 8.2135169974277544e+08 0.0000000000000000e+00 0.0000000000000000e+00 0.0000000000000000e+00 0.0000000000000000e+00  -1.5279564528257493e+07 6.3943345462724287e+06 0.0000000000000000e+00 6.3943345462724315e+06 -2.6095582397365146e+06 0.0000000000000000e+00 0.0000000000000000e+00 0.0000000000000000e+00 0.0000000000000000e+00  -4.8924989756084695e+07 8.4860037405290559e+07 0.0000000000000000e+00 8.4860037405290574e+07 4.2132660212898678e+08 0.0000000000000000e+00 0.0000000000000000e+00 0.0000000000000000e+00 0.0000000000000000e+00  -1.9579932741934571e+07 1.1243195958729127e+07 0.0000000000000000e+00 1.1243195958729124e+07 -4.9765955993425287e+06 0.0000000000000000e+00 0.0000000000000000e+00 0.0000000000000000e+00 0.0000000000000000e+00  -7.9235892369805589e+07 5.3364409907874197e+07 0.0000000000000000e+00 5.3364409907874197e+07 4.2703883711053532e+08 0.0000000000000000e+00 0.0000000000000000e+00 0.0000000000000000e+00 0.0000000000000000e+00  -1.5151821326134190e+07 6.0363671611447418e+06 0.0000000000000000e+00 6.0363671611447381e+06 -8.7790256021021511e+06 0.0000000000000000e+00 0.0000000000000000e+00 0.0000000000000000e+00 0.0000000000000000e+00  -1.0669639670244622e+08 4.7852470469321571e+06 0.0000000000000000e+00 4.7852470469321581e+06 3.8722370450748336e+08 0.0000000000000000e+00 0.0000000000000000e+00 0.0000000000000000e+00 0.0000000000000000e+00  -1.4895268016876491e+07 7.3361095567508163e+06 0.0000000000000000e+00 7.3361095567508209e+06 -4.5247640489509813e+06 0.0000000000000000e+00 0.0000000000000000e+00 0.0000000000000000e+00 0.0000000000000000e+00  -1.0092581713319249e+08 -6.8304532371537730e+07 0.0000000000000000e+00 -6.8304532371537730e+07 2.9521227568710822e+08 0.0000000000000000e+00 0.0000000000000000e+00 0.0000000000000000e+00 0.0000000000000000e+00  -1.2776044299977221e+07 7.7708478073530542e+06 0.0000000000000000e+00 7.7708478073530570e+06 -3.7269468279712605e+06 0.0000000000000000e+00 0.0000000000000000e+00 0.0000000000000000e+00 0.0000000000000000e+00  -9.4031733196054980e+07 -1.3623560445507258e+08 0.0000000000000000e+00 -1.3623560445507258e+08 1.9743986713983151e+08 0.0000000000000000e+00 0.0000000000000000e+00 0.0000000000000000e+00 0.0000000000000000e+00  -7.9202703520004712e+06 6.3778728414537227e+06 0.0000000000000000e+00 6.3778728414537208e+06 -3.8726541667679632e+06 0.0000000000000000e+00 0.0000000000000000e+00 0.0000000000000000e+00 0.0000000000000000e+00  -5.7941037189450581e+06 -1.3562999378067148e+08 0.0000000000000000e+00 -1.3562999378067148e+08 1.6702070031376045e+07 0.0000000000000000e+00 0.0000000000000000e+00 0.0000000000000000e+00 0.0000000000000000e+00  -7.1740922388000088e+06 5.7985043343998659e+06 0.0000000000000000e+00 5.7985043343998650e+06 -3.4477303558548093e+06 0.0000000000000000e+00 0.0000000000000000e+00 0.0000000000000000e+00 0.0000000000000000e+00  -2.9001730758597553e+08 -1.1808388186622575e+07 0.0000000000000000e+00 -1.1808388186622575e+07 -6.9481985360571906e+07 0.0000000000000000e+00 0.0000000000000000e+00 0.0000000000000000e+00 0.0000000000000000e+00  -5.4202551116298465e+06 4.7601574441711782e+06 0.0000000000000000e+00 4.7601574441711772e+06 -3.9357873271409851e+06 0.0000000000000000e+00 0.0000000000000000e+00 0.0000000000000000e+00 0.0000000000000000e+00  -1.5332966143230540e+08 -1.1982818277789813e+08 0.0000000000000000e+00 -1.1982818277789813e+08 -3.5973622380893767e+07 0.0000000000000000e+00 0.0000000000000000e+00 0.0000000000000000e+00 0.0000000000000000e+00  -3.9149483426552839e+06 4.0548875579234166e+06 0.0000000000000000e+00 4.0548875579234115e+06 -4.5382617675298974e+06 0.0000000000000000e+00 0.0000000000000000e+00 0.0000000000000000e+00 0.0000000000000000e+00  -1.5935693145193020e+08 -4.2273894803099886e+07 0.0000000000000000e+00 -4.2273894803099886e+07 -5.5966349840779915e+07 0.0000000000000000e+00 0.0000000000000000e+00 0.0000000000000000e+00 0.0000000000000000e+00  -3.0556760324640190e+06 3.5830386066594059e+06 0.0000000000000000e+00 3.5830386066594063e+06 -5.5905001861258810e+06 0.0000000000000000e+00 0.0000000000000000e+00 0.0000000000000000e+00 0.0000000000000000e+00  -8.4094699164727539e+07 -4.9190005441947319e+07 0.0000000000000000e+00 -4.9190005441947319e+07 -2.9441673299115878e+07 0.0000000000000000e+00 0.0000000000000000e+00 0.0000000000000000e+00 0.0000000000000000e+00  -1.5920849410514336e+06 3.0732239284222256e+06 0.0000000000000000e+00 3.0732239284222294e+06 -6.2391195299504939e+06 0.0000000000000000e+00 0.0000000000000000e+00 0.0000000000000000e+00 0.0000000000000000e+00  -1.7477311558944640e+08 -3.1877861824874796e+07 0.0000000000000000e+00 -3.1877861824874796e+07 -1.0033598750810694e+06 0.0000000000000000e+00 0.0000000000000000e+00 0.0000000000000000e+00 0.0000000000000000e+00  -1.1672179306289626e+06 2.4992155011603250e+06 0.0000000000000000e+00 2.4992155011603241e+06 -7.8874091585295070e+06 0.0000000000000000e+00 0.0000000000000000e+00 0.0000000000000000e+00 0.0000000000000000e+00  -1.0966145079663992e+08 -2.7397410584453303e+07 0.0000000000000000e+00 -2.7397410584453303e+07 2.4476315197277665e+06 0.0000000000000000e+00 0.0000000000000000e+00 0.0000000000000000e+00 0.0000000000000000e+00  -1.5220152888672922e+06 2.1366393877902096e+06 0.0000000000000000e+00 2.1366393877902091e+06 -9.2189701923164874e+06 0.0000000000000000e+00 0.0000000000000000e+00 0.0000000000000000e+00 0.0000000000000000e+00  -9.0909093771559104e+07 -1.4333378858734595e+07 0.0000000000000000e+00 -1.4333378858734595e+07 -2.1121389089210802e+06 0.0000000000000000e+00 0.0000000000000000e+00 0.0000000000000000e+00 0.0000000000000000e+00  -1.4979171982650103e+06 1.4538518080408694e+06 0.0000000000000000e+00 1.4538518080408683e+06 -1.0866785483136293e+07 0.0000000000000000e+00 0.0000000000000000e+00 0.0000000000000000e+00 0.0000000000000000e+00  -8.4962019611046046e+07 -6.0349777748116301e+06 0.0000000000000000e+00 -6.0349777748116311e+06 6.0298913100060180e+05 0.0000000000000000e+00 0.0000000000000000e+00 0.0000000000000000e+00 0.0000000000000000e+00  2.9908305667123263e+05 1.4888749600694929e+06 0.0000000000000000e+00 1.4888749600694929e+06 -1.3061600635358656e+07 0.0000000000000000e+00 0.0000000000000000e+00 0.0000000000000000e+00 0.0000000000000000e+00  -7.1452857460425124e+07 -3.7250825821606973e+06 0.0000000000000000e+00 -3.7250825821606973e+06 5.8137918523734028e+05 0.0000000000000000e+00 0.0000000000000000e+00 0.0000000000000000e+00 0.0000000000000000e+00  -9.1383695115975989e+05 7.1373940811774204e+05 0.0000000000000000e+00 7.1373940811774181e+05 -1.5020232708732499e+07 0.0000000000000000e+00 0.0000000000000000e+00 0.0000000000000000e+00 0.0000000000000000e+00  -5.8015221391461357e+07 -3.5933076438209782e+06 0.0000000000000000e+00 -3.5933076438209782e+06 1.5218251514867708e+05 0.0000000000000000e+00 0.0000000000000000e+00 0.0000000000000000e+00 0.0000000000000000e+00  -2.2452625445065759e+06 -1.8073578615710206e+05 0.0000000000000000e+00 -1.8073578615710177e+05 -1.6008900408570785e+07 0.0000000000000000e+00 0.0000000000000000e+00 0.0000000000000000e+00 0.0000000000000000e+00  -4.8745986889149562e+07 -1.3250140107365907e+06 0.0000000000000000e+00 -1.3250140107365907e+06 1.7056716205531202e+05 0.0000000000000000e+00 0.0000000000000000e+00 0.0000000000000000e+00 0.0000000000000000e+00  -8.4814317269040644e+05 1.3945924614589713e+06 0.0000000000000000e+00 1.3945924614589717e+06 -1.8643679050670095e+07 0.0000000000000000e+00 0.0000000000000000e+00 0.0000000000000000e+00 0.0000000000000000e+00  -3.8862274033549674e+07 -1.2137725694985177e+05 0.0000000000000000e+00 -1.2137725694985176e+05 -2.2237245542206446e+05 0.0000000000000000e+00 0.0000000000000000e+00 0.0000000000000000e+00 0.0000000000000000e+00  -1.8165638897513326e+06 2.7028120005659158e+06 0.0000000000000000e+00 2.7028120005659168e+06 -2.0082122981785927e+07 0.0000000000000000e+00 0.0000000000000000e+00 0.0000000000000000e+00 0.0000000000000000e+00  -3.0611342347867601e+07 -7.2891195219214808e+05 0.0000000000000000e+00 -7.2891195219214878e+05 4.4587755187425128e+05 0.0000000000000000e+00 0.0000000000000000e+00 0.0000000000000000e+00 0.0000000000000000e+00  -3.6883652317285375e+06 3.2194689380922425e+06 0.0000000000000000e+00 3.2194689380922420e+06 -1.9476537789709132e+07 0.0000000000000000e+00 0.0000000000000000e+00 0.0000000000000000e+00 0.0000000000000000e+00  -2.3336452676767446e+07 -7.5307081543133489e+05 0.0000000000000000e+00 -7.5307081543133524e+05 -1.3570245683180107e+05 0.0000000000000000e+00 0.0000000000000000e+00 0.0000000000000000e+00 0.0000000000000000e+00  -3.5177941729750144e+06 4.9018999499201560e+06 0.0000000000000000e+00 4.9018999499201579e+06 -1.9474177930604402e+07 0.0000000000000000e+00 0.0000000000000000e+00 0.0000000000000000e+00 0.0000000000000000e+00  -1.8480129889481172e+07 -1.0187321722754560e+06 0.0000000000000000e+00 -1.0187321722754560e+06 2.4959909275348276e+04 0.0000000000000000e+00 0.0000000000000000e+00 0.0000000000000000e+00 0.0000000000000000e+00  8.7379843638081138e+05 5.2421268392628124e+06 0.0000000000000000e+00 5.2421268392628115e+06 -2.8185553307812791e+07 0.0000000000000000e+00 0.0000000000000000e+00 0.0000000000000000e+00 0.0000000000000000e+00  -1.3056494429084878e+07 -1.6420491611298386e+06 0.0000000000000000e+00 -1.6420491611298386e+06 2.0935134402503827e+05 0.0000000000000000e+00 0.0000000000000000e+00 0.0000000000000000e+00 0.0000000000000000e+00  -3.0478329010379077e+06 4.7167989307318889e+06 0.0000000000000000e+00 4.7167989307318851e+06 -2.1229755658493008e+07 0.0000000000000000e+00 0.0000000000000000e+00 0.0000000000000000e+00 0.0000000000000000e+00  -1.1031232643109616e+07 -2.1967651543743839e+06 0.0000000000000000e+00 -2.1967651543743843e+06 -6.0972799829162518e+05 0.0000000000000000e+00 0.0000000000000000e+00 0.0000000000000000e+00 0.0000000000000000e+00  -1.5033492814180402e+06 2.4862755498978416e+06 0.0000000000000000e+00 2.4862755498978416e+06 -2.8667271016683169e+07 0.0000000000000000e+00 0.0000000000000000e+00 0.0000000000000000e+00 0.0000000000000000e+00  -8.0659496036038827e+06 -2.4138614898908683e+06 0.0000000000000000e+00 -2.4138614898908674e+06 -4.3581043292960158e+05 0.0000000000000000e+00 0.0000000000000000e+00 0.0000000000000000e+00 0.0000000000000000e+00  1.4821030745010863e+06 7.2203910776454750e+06 0.0000000000000000e+00 7.2203910776454723e+06 -1.9292789792932652e+07 0.0000000000000000e+00 0.0000000000000000e+00 0.0000000000000000e+00 0.0000000000000000e+00  -6.6456773298411435e+06 -2.9450675908927191e+06 0.0000000000000000e+00 -2.9450675908927177e+06 -1.1579509802022567e+06 0.0000000000000000e+00 0.0000000000000000e+00 0.0000000000000000e+00 0.0000000000000000e+00  -5.1449905694098007e+06 7.8639359924308006e+06 0.0000000000000000e+00 7.8639359924307996e+06 -2.0936415388070647e+07 0.0000000000000000e+00 0.0000000000000000e+00 0.0000000000000000e+00 0.0000000000000000e+00  -5.3863274906358365e+06 -3.7113084423051444e+06 0.0000000000000000e+00 -3.7113084423051444e+06 -2.2567651737991478e+06 0.0000000000000000e+00 0.0000000000000000e+00 0.0000000000000000e+00 0.0000000000000000e+00  -1.4895498817364718e+06 7.3096374844959499e+06 0.0000000000000000e+00 7.3096374844959499e+06 -1.5729227560242614e+07 0.0000000000000000e+00 0.0000000000000000e+00 0.0000000000000000e+00 0.0000000000000000e+00  -5.2495414573094798e+06 -3.9680170363292280e+06 0.0000000000000000e+00 -3.9680170363292294e+06 -2.8765401277919170e+06 0.0000000000000000e+00 0.0000000000000000e+00 0.0000000000000000e+00 0.0000000000000000e+00  -4.4889913763394337e+06 1.2204497861904139e+07 0.0000000000000000e+00 1.2204497861904139e+07 -2.0055238124488100e+07 0.0000000000000000e+00 0.0000000000000000e+00 0.0000000000000000e+00 0.0000000000000000e+00  -4.4089557437210446e+06 -4.7232879406825593e+06 0.0000000000000000e+00 -4.7232879406825593e+06 -4.4844244050505226e+06 0.0000000000000000e+00 0.0000000000000000e+00 0.0000000000000000e+00 0.0000000000000000e+00  -4.4510575059190467e+06 8.8934189404459074e+06 0.0000000000000000e+00 8.8934189404459074e+06 -1.3271147229046769e+07 0.0000000000000000e+00 0.0000000000000000e+00 0.0000000000000000e+00 0.0000000000000000e+00  -4.2280744168311916e+06 -5.2566416929449709e+06 0.0000000000000000e+00 -5.2566416929449709e+06 -6.3917884382078005e+06 0.0000000000000000e+00 0.0000000000000000e+00 0.0000000000000000e+00 0.0000000000000000e+00  -1.2218992111551952e+07 1.1725166733468644e+07 0.0000000000000000e+00 1.1725166733468646e+07 -1.4162650935605662e+07 0.0000000000000000e+00 0.0000000000000000e+00 0.0000000000000000e+00 0.0000000000000000e+00  -4.9820185306764552e+06 -7.2056677608227069e+06 0.0000000000000000e+00 -7.2056677608227069e+06 -9.6539539787510186e+06 0.0000000000000000e+00 0.0000000000000000e+00 0.0000000000000000e+00 0.0000000000000000e+00  -1.5172459357677074e+07 1.1757763639266411e+07 0.0000000000000000e+00 1.1757763639266411e+07 -1.1083622122751147e+07 0.0000000000000000e+00 0.0000000000000000e+00 0.0000000000000000e+00 0.0000000000000000e+00  -5.1502430734985098e+06 -8.1033402049253648e+06 0.0000000000000000e+00 -8.1033402049253676e+06 -1.2895329525113439e+07 0.0000000000000000e+00 0.0000000000000000e+00 0.0000000000000000e+00 0.0000000000000000e+00  -1.7457725930464018e+07 1.2662182357651800e+07 0.0000000000000000e+00 1.2662182357651800e+07 -1.0341201963215856e+07 0.0000000000000000e+00 0.0000000000000000e+00 0.0000000000000000e+00 0.0000000000000000e+00  -5.7178586846521534e+06 -9.8790268161396105e+06 0.0000000000000000e+00 -9.8790268161396068e+06 -1.6419078873040877e+07 0.0000000000000000e+00 0.0000000000000000e+00 0.0000000000000000e+00 0.0000000000000000e+00  -2.1528074437545415e+07 1.0837478755549807e+07 0.0000000000000000e+00 1.0837478755549807e+07 -5.7829801209874330e+06 0.0000000000000000e+00 0.0000000000000000e+00 0.0000000000000000e+00 0.0000000000000000e+00  -6.9297412198881805e+06 -1.2016380039024206e+07 0.0000000000000000e+00 -1.2016380039024198e+07 -2.1084630990601975e+07 0.0000000000000000e+00 0.0000000000000000e+00 0.0000000000000000e+00 0.0000000000000000e+00  -2.2121090162424635e+07 8.5539120685948860e+06 0.0000000000000000e+00 8.5539120685948841e+06 -3.4292260846256404e+06 0.0000000000000000e+00 0.0000000000000000e+00 0.0000000000000000e+00 0.0000000000000000e+00  -8.3327828441869831e+06 -1.4264145527738929e+07 0.0000000000000000e+00 -1.4264145527738942e+07 -2.4707698986173812e+07 0.0000000000000000e+00 0.0000000000000000e+00 0.0000000000000000e+00 0.0000000000000000e+00  -1.9245976456249867e+07 4.7993831893735379e+06 0.0000000000000000e+00 4.7993831893735360e+06 -1.8845233159110276e+06 0.0000000000000000e+00 0.0000000000000000e+00 0.0000000000000000e+00 0.0000000000000000e+00  -1.0294287342035091e+07 -1.6998090543226629e+07 0.0000000000000000e+00 -1.6998090543226622e+07 -2.8601723677313626e+07 0.0000000000000000e+00 0.0000000000000000e+00 0.0000000000000000e+00 0.0000000000000000e+00  -1.6929104108588092e+07 1.8155926495770339e+06 0.0000000000000000e+00 1.8155926495770342e+06 -7.7644648745369038e+05 0.0000000000000000e+00 0.0000000000000000e+00 0.0000000000000000e+00 0.0000000000000000e+00  -1.2393898005075322e+07 -1.9393668281642400e+07 0.0000000000000000e+00 -1.9393668281642396e+07 -3.09751226827