<?xml version="1.0"?>
<VTKFile type="UnstructuredGrid"  version="0.1"  >
<UnstructuredGrid>
<Piece  NumberOfPoints="11925" NumberOfCells="22284">
<Points>
<DataArray  type="Float64"  NumberOfComponents="3"  format="ascii">0.009106770432969287 0.0084582340381214 0  0.009141919339108864 0.008441218550270694 0  0.009203598740601114 0.008393845335784609 0  0.009248431083532146 0.008349860421943302 0  0.009296575788899144 0.008291876136114247 0  0.00934265184641383 0.008225659869648794 0  0.009393578065451109 0.008122249398276498 0  0.009424875532860347 0.008002512562814071 0  0.009449530416649156 0.007942856790653622 0  0.009467776063564975 0.007776381909547738 0  0.009496347239411999 0.007611274617662952 0  0.009499145002853376 0.007525125628140703 0  0.009496347239411999 0.007464102266759158 0  0.009467776063564975 0.007298994974874372 0  0.009449530416649156 0.007132520093768488 0  0.009424875532860347 0.00707286432160804 0  0.009393578065451109 0.006953127486145613 0  0.00934265184641383 0.006849717014773317 0  0.009296575788899144 0.006783500748307864 0  0.009248431083532146 0.006725516462478808 0  0.009203598740601114 0.006681531548637502 0  0.009141919338909114 0.006634158334151417 0  0.009106770432902705 0.006617142873950686 0  0.009057788944723618 0.006598443490950575 0  0.009035429646949504 0.006603784476015589 0  0.009003273865471631 0.006637537337391888 0  0.008992706568800921 0.006658843167954558 0  0.008972489432160457 0.006721105527638192 0  0.008943689764150664 0.006775124298212487 0  0.008927575292032289 0.006821608040201005 0  0.008858421521121648 0.006940476521074617 0  0.008818283204798657 0.006994423939357116 0  0.008742251619928807 0.007081030046222233 0  0.008689386069399707 0.007127977288024682 0  0.00865169762718865 0.007155237400276061 0  0.008598593426450953 0.007187519986677493 0  0.008503029036046951 0.007258952469496642 0  0.008441469295249169 0.007286330637148408 0  0.008404275359722921 0.007310151607682054 0  0.008340789248380142 0.007336567990292792 0  0.008278894472361808 0.007370606062816746 0  0.008227853892241668 0.007385785667750049 0  0.008178391959798996 0.007406751625964 0  0.008013447788775593 0.00743563391875675 0  0.007952261306532662 0.007456731513377061 0  0.007902010050251256 0.007466988976395871 0  0.007550251256281408 0.00748107426496475 0  0.007173366834170854 0.007466988976395871 0  0.007123115577889447 0.007456731513377061 0  0.007061929095646517 0.00743563391875675 0  0.006896984924623115 0.007406751625964 0  0.006771663215364072 0.00735919225436318 0  0.006734587636041969 0.007336567990292792 0  0.006695979899497487 0.00732259899495977 0  0.006633907589172942 0.007286330637148408 0  0.00657234784837516 0.007258952469496642 0  0.006476783457971159 0.007187519986677493 0  0.006385990815022405 0.007127977288024682 0  0.006333125264493302 0.007081030046222233 0  0.006244530865553103 0.006978164963285671 0  0.006205048905315104 0.00692211055276382 0  0.006159330552520386 0.006845248264868939 0  0.006131687120271447 0.006775124298212487 0  0.006102887452261655 0.006721105527638192 0  0.006082670315621189 0.006658843167954558 0  0.006072103018950479 0.006637537337391888 0  0.006039947237472605 0.006603784476015589 0  0.006017587939698492 0.006598443490950575 0  0.005933457545512996 0.006634158334151417 0  0.005871778143820997 0.006681531548637502 0  0.005826945800889965 0.006725516462478808 0  0.005778801095522966 0.006783500748307864 0  0.005732725038008282 0.006849717014773317 0  0.005681798818971001 0.006953127486145613 0  0.005650501351561765 0.00707286432160804 0  0.005625846467772956 0.007132520093768488 0  0.005607600820857134 0.007298994974874372 0  0.005577737985543962 0.00747666508082951 0  0.005579029645010113 0.007611274617662952 0  0.005607600820857134 0.007776381909547738 0  0.005625846467772956 0.007942856790653622 0  0.005650501351561765 0.008002512562814071 0  0.005676707781126685 0.008109686584206147 0  0.005732725038008282 0.008225659869648794 0  0.005778801095522966 0.008291876136114247 0  0.00583916892901236 0.008362423236013654 0  0.005871778143820997 0.008393845335784609 0  0.005933457545313248 0.008441218550270694 0  0.005968606451452823 0.0084582340381214 0  0.006017587939698492 0.008476935349731016 0  0.006039947427631444 0.008471594355449344 0  0.006059540775356642 0.008452005488667369 0  0.006077635869842498 0.008429097268812035 0  0.006102887452261655 0.00835427135678392 0  0.006131687120271447 0.008300252586209624 0  0.006159330552520386 0.008230128619553171 0  0.006216955363300465 0.008134900363347493 0  0.006257093679623455 0.008080952945064994 0  0.006333125264493302 0.007994346838199877 0  0.006370813706704358 0.007959962410467781 0  0.00642367925723346 0.007920139484146049 0  0.006476783457971159 0.007887856897744617 0  0.00657234784837516 0.007816424414925468 0  0.006633907589172942 0.007789046247273704 0  0.006671101524699189 0.007765225276740057 0  0.006734587636041969 0.007738808894129319 0  0.006796482412060302 0.007704770821605365 0  0.00692211055276382 0.00766245157494053 0  0.007061929095646517 0.007639742965665362 0  0.007123115577889447 0.007618645371045051 0  0.007173366834170854 0.00760838790802624 0  0.007525125628140703 0.00759430261945736 0  0.007902010050251256 0.00760838790802624 0  0.007952261306532662 0.007618645371045051 0  0.008013447788775593 0.007639742965665362 0  0.00815326633165829 0.00766245157494053 0  0.008278894472361808 0.007704770821605365 0  0.008340789248380142 0.007738808894129319 0  0.008404275359722921 0.007765225276740057 0  0.008441469295249169 0.007789046247273704 0  0.008503029036046951 0.007816424414925468 0  0.008598593426450953 0.007887856897744617 0  0.00865169762718865 0.007920139484146049 0  0.008704563177717754 0.007959962410467781 0  0.008742251619928807 0.007994346838199877 0  0.008818283204798657 0.008080952945064994 0  0.008858421521121648 0.008134900363347493 0  0.008916046331901725 0.008230128619553171 0  0.008943689764150664 0.008300252586209624 0  0.008972489432160457 0.00835427135678392 0  0.008997741014579612 0.008429097268812035 0  0.009015836109065469 0.008452005488667369 0  0.009035429456790667 0.008471594355449344 0  0.009057788944723618 0.008476935349731016 0  0.000584560956065443 0.0006566731908302978 0  0.0004648241206030151 0.0006253757234210605 0  0.0006879714274377391 0.0007075994098675775 0  0.0004051683484425679 0.0006007208396322515 0  0.0007541876939031931 0.0007536754673822622 0  0.0002386934673366834 0.0005824751927164302 0  0.0008121719797322475 0.0008018201727492608 0  7.895734593675217e-05 0.0005538767054284305 0  0.000856156893573553 0.0008466525156802934 0  0 0.0005480494466900812 0  0.0009035301080596382 0.0009083319171725436 0  0 0 0  0.000939246867973806 0.0009924623115577891 0  0.01 0 0  0.0009339058736921331 0.001014821772831462 0  0.01 0.0005571664569146784 0  0.0008914087205285403 0.001052510215042517 0  0.009937185929648241 0.0005602048678154705 0  0.0008165829145728644 0.00107776182261448 0  0.009811557788944724 0.0005824755727250804 0  0.0007625641439985681 0.001106561492130742 0  0.00964508290783884 0.0006007208396322515 0  0.0006924401773421158 0.001134204924379682 0  0.009585427135678391 0.0006253757234210605 0  0.000597211921136439 0.001191829735159762 0  0.009478253114286317 0.0006515821529859823 0  0.0005055760606428836 0.00126320124586456 0  0.00937484264291402 0.0007001169347433132 0  0.0004537270030180498 0.001310933582424631 0  0.009296063562378215 0.0007536754673822622 0  0.0004097111541863734 0.001360865186881701 0  0.00923807927654916 0.0008018201727492608 0  0.0003501684555335619 0.001451657829830455 0  0.009194094362707853 0.0008466525156802934 0  0.0002787359727144142 0.001547222220234457 0  0.009146721148221768 0.0009083319171725436 0  0.0002513578050626486 0.001608781961032239 0  0.0091110043883076 0.0009924623115577891 0  0.0002275368345290006 0.001645975896558485 0  0.009116345382589274 0.001014821785907898 0  0.0002011204519182638 0.001709462007901265 0  0.009158842483081762 0.001052510228118953 0  0.0001670823793943093 0.001771356783919598 0  0.009233668341708544 0.001077761824120951 0  0.0001247631327294741 0.001896984924623115 0  0.009287687112282839 0.001106561492130742 0  0.0001020545234543062 0.002036803467505815 0  0.009357811078939291 0.001134204924379682 0  8.096507571907495e-05 0.002097989949748744 0  0.009453039335144969 0.001191829735159762 0  7.071342713566267e-05 0.002148241206030151 0  0.009544675195638523 0.00126320124586456 0  5.669507456120024e-05 0.0025 0  0.009596524253263357 0.001310933582424631 0  7.071342713566267e-05 0.002876884422110553 0  0.009640540102095033 0.001360865186881701 0  8.096507571907495e-05 0.00292713567839196 0  0.009700082800747845 0.001451657829830455 0  0.0001020545234543062 0.002988322160634889 0  0.009771515283566994 0.001547222220234457 0  0.0001247631327294741 0.003128140703517588 0  0.009798893451218758 0.001608781961032239 0  0.0001670823793943093 0.003253768844221106 0  0.009822714421752407 0.001645975896558485 0  0.0002011204519182638 0.003315663620239438 0  0.009849130804363143 0.001709462007901265 0  0.0002275368345290006 0.003379149731582219 0  0.009883168876887099 0.001771356783919598 0  0.0002513578050626486 0.003416343667108464 0  0.009925488123551932 0.001896984924623115 0  0.0002787359727144142 0.003477903407906247 0  0.009948196732827102 0.002036803467505815 0  0.0003501684555335619 0.003573467798310248 0  0.009969286180562333 0.002097989949748744 0  0.0004097111541863734 0.003664260441259002 0  0.009979537829145744 0.002148241206030151 0  0.0004537270030180498 0.003714192045716073 0  0.009993556181720207 0.0025 0  0.0005055760606428836 0.003761924382276144 0  0.009979537829145744 0.002876884422110553 0  0.000597211921136439 0.003833295892980942 0  0.009969286180562333 0.00292713567839196 0  0.0006924401773421158 0.003890920703761021 0  0.009948196732827102 0.002988322160634889 0  0.0007625641439985681 0.003918564136009961 0  0.009925488123551932 0.0031281407035175
[...]
<PointData  Scalars="$\sigma_{VM}$"> 
<DataArray  type="Float64"  Name="$\sigma_{VM}$"  format="ascii">1.8108220061369587e+07  2.2572763026092723e+07  2.8252775087471414e+07  3.3486283892075207e+07  3.4283002323241197e+07  4.2377709426047884e+07  3.8921831157187060e+07  4.3866664077876449e+07  4.3940144027013317e+07  3.7569041633220591e+07  4.1399098762128860e+07  4.9869051181426518e+07  4.0069282058595113e+07  3.3148426713831481e+07  3.5133823745972820e+07  3.3772423646834575e+07  2.8534367599645223e+07  2.6611169555984102e+07  1.8496784274516549e+07  1.5184783599039083e+07  8.1223026002323683e+06  1.7100813747200279e+06  9.0637356898378711e+06  3.3602109447259232e+07  5.9400158768025301e+07  5.8413372397458173e+07  4.4925791751180783e+07  3.4890939258512415e+07  3.3090900978949286e+07  3.0462672826118618e+07  2.9335004294409674e+07  2.9644039568674184e+07  2.8454278182976011e+07  2.8066826697835587e+07  3.2997560573311012e+07  3.4146469200954452e+07  3.1166478275528148e+07  3.2456449014219232e+07  3.3146808203442000e+07  3.0908016201746441e+07  2.9353002143853109e+07  2.8061924241545469e+07  2.9016284043785289e+07  3.0197352208991434e+07  3.5349122596009851e+07  2.9807388498977993e+07  2.5125631278919026e+07  2.6803546913442116e+07  3.0555078124464221e+07  2.5962466421317816e+07  2.2377736673195630e+07  2.1798145610036246e+07  2.4996336616512712e+07  2.4597007057408195e+07  2.3315835664432436e+07  2.3229945563852634e+07  2.2898467382805359e+07  2.1837063769979607e+07  1.9641587526875738e+07  2.0534454210964713e+07  2.0789189032992538e+07  2.1364937424931671e+07  2.4035395390456572e+07  2.4796698506039694e+07  3.0684651496433463e+07  3.4458660931199394e+07  1.8183769223276194e+07  2.2326796627777293e+07  3.4947959083081439e+07  5.1228627688450150e+07  5.6419350015088283e+07  6.4647148426143348e+07  7.1140482269544169e+07  6.5548986848567039e+07  7.0838453692002326e+07  6.8384189559808671e+07  5.9749603088070810e+07  5.3948799149788879e+07  5.7550906415774778e+07  4.1420115420255989e+07  3.9883793316623628e+07  3.2653605476337500e+07  2.2223703855519664e+07  9.2671210234576724e+06  4.8861166070942050e+06  1.9924657844313171e+07  3.5481928042616762e+07  5.3043326527854122e+07  7.7699363925904796e+07  1.2114635139969823e+08  1.3363663898518153e+08  7.9060867946915299e+07  3.5189568536540240e+07  1.7084422860118575e+07  8.7745249695208948e+06  6.6464723200587472e+06  4.4813578119563526e+06  4.0158676118041575e+06  3.7133164509928264e+06  3.1723254870863296e+06  3.7239268640916874e+06  3.7610091064910796e+06  3.3939728177924780e+06  3.1953944910249528e+06  3.3259185398177025e+06  3.1885234127687579e+06  2.7261969422530155e+06  2.8482774673261121e+06  3.0838364035894065e+06  2.7339507044761325e+06  2.9478531702185934e+06  2.7185252356901974e+06  2.4113510099615608e+06  2.1419686271167849e+06  2.3969868766163499e+06  2.0459676905354632e+06  1.8768148695308266e+06  2.0960953654974881e+06  2.1546338741646656e+06  2.0455859337252271e+06  2.0749085491955585e+06  2.2257057169332369e+06  2.1625775989411408e+06  1.8650268176444131e+06  2.0560590467979165e+06  2.2914512130535319e+06  2.5520850467447541e+06  3.1705455184206860e+06  4.2343091768846596e+06  5.8107348088454008e+06  8.3751221175070824e+06  1.1719565312237352e+07  6.8263457111186879e+06  8.6851062697509434e+06  5.8115917734063673e+05  6.9630259086485556e+05  1.0907387016510232e+06  3.2544056986517546e+05  7.1368074432230589e+05  2.0027043927554108e+05  3.0536052832744550e+05  8.2229847247393307e+04  8.9960184947616351e+05  9.8105546750629379e+04  2.6511343412661506e+06  1.6998438246667225e+05  8.7685037713961676e+06  1.3192214700693265e+05  1.3211989743158743e+07  1.3586493675978479e+05  3.8454026757576149e+06  9.3348794088308510e+04  1.2608625824445472e+06  1.4003247012080962e+05  4.5418964587406637e+06  2.7399559837042395e+05  6.5172307240163675e+06  6.6723197787070903e+05  8.5723708976898342e+06  5.1263493300394516e+05  1.0583708281543713e+07  9.8767466885932453e+05  1.1894572723347811e+07  5.4589007935165346e+05  1.4769592739897178e+07  4.7535930121944105e+05  1.7425695529650349e+07  -9.9986595486123246e+04  1.9407303551606711e+07  3.1866022041139049e+06  2.1833262957790259e+07  8.1660030673861457e+06  2.2570251572929140e+07  1.3103866365488516e+07  2.3533218841583297e+07  4.1717069612423028e+06  2.1877952870417282e+07  1.1500150728371469e+06  2.3027181422915600e+07  4.4531904049495133e+06  2.6968427296544183e+07  6.5963408515342968e+06  3.0981453410213877e+07  8.4011972658637632e+06  2.6602500546231139e+07  1.0338283146883853e+07  1.8716874118214171e+07  1.2009780178558944e+07  2.4999318295017805e+07  1.4797707435716072e+07  2.5929109527022500e+07  1.7181388099398542e+07  2.0675331816474695e+07  1.9465987910137318e+07  1.6466499216144335e+07  2.1533790427830301e+07  1.4258400167034667e+07  2.2874917304179765e+07  1.4555533043512210e+07  2.3442668371884823e+07  1.3195623908814359e+07  2.1622707714055303e+07  1.2048125852536239e+07  2.2824952821657877e+07  8.7064853187732957e+06  2.7368421428484738e+07  6.0733032049783655e+06  3.0944685619394764e+07  3.4530969958889182e+06  2.6482606437142789e+07  8.1926459084731003e+05  1.9886396423358548e+07  1.1063151302126611e+06  2.4240779650223680e+07  3.5885715636590226e+06  2.7041464659323484e+07  6.8327231490160096e+06  2.1371503682915572e+07  9.4519659016854372e+06  1.6567878982657392e+07  1.2065560855160225e+07  1.4506595052195268e+07  1.4256514149002688e+07  1.3568784511400729e+07  1.4758137933911340e+07  1.3262857655472452e+07  2.8383542556814873e+06  1.1589088001537578e+07  7.9539818267025682e+05  8.7631697020019647e+06  1.0257419852168943e+06  6.0248664296796639e+06  3.6156587765080266e+05  3.2896948353560739e+06  1.2782881139326812e+05  5.6956539179268514e+05  3.3644514920501570e+04  1.0120516335584531e+06  2.9485038125471806e+02  3.6503298389273193e+06  5.7423382010866808e+03  6.6526627685845671e+06  1.9804710650842565e+03  9.6167484110117890e+06  5.3877060572507469e+02  1.1983707537830370e+07  5.2582719216202648e+01  1.4466267606660852e+07  5.6768029573926960e+01  1.4676880924232533e+07  3.8684790461490039e+01  2.6379070310934498e+06  1.1708121980672028e+02  6.0105478611723450e+05  3.4061255028153363e+02  1.0735522645994765e+06  8.5456421993833442e+02  3.2114276766866283e+05  1.8167857334721862e+03  1.4834092705041519e+05  2.5255008624476377e+03  2.4700125308852985e+04  3.3875432654485380e+03  2.4741713750109948e+03  1.6670537115086540e+03  5.0777203151584217e+03  1.4729713250392426e+03  2.3093074462851146e+03  3.5045251078489414e+03  6.0270340953966331e+02  3.0120669108128594e+04  2.9428903183775912e+01  7.8549621393912807e+04  1.4334878835428509e+02  1.5402342721216535e+05  1.2236509807576333e+02  2.2883783279544514e+05  4.0344951688138894e+02  3.6741567639626481e+05  1.1460959383444729e+03  5.1902964035751583e+05  1.9509353266990336e+03  8.4099331630474189e+05  2.2135001157861957e+03  1.1659175957930079e+06  3.0202816730154309e+03  9.8665270672572486e+05  1.4296151784103747e+03  1.0304351780824544e+06  7.4332196125868631e+02  1.0312401660983691e+07  7.2800773835838381e+03  2.2880906890749391e+07  3.0544960028826968e+04  2.9400383213288460e+07  7.6907108732021094e+04  3.9816038450442858e+07  1.5444513839160049e+05  4.4008374931158878e+07  2.3447429485549562e+05  5.0403946544235475e+07  3.6333837237427587e+05  5.8441431926687606e+07  5.1520704415876104e+05  5.5606558479909375e+07  8.4685989633228525e+05  6.1163666562833518e+07  1.2023341721108048e+06  6.2381419872601256e+07  8.7346070694881864e+05  5.4887627543895945e+07  1.1919942046381049e+06  6.2333722919485599e+07  1.0574733616555175e+07  7.5428908502955407e+07  2.2066858470233809e+07  6.1724254027098082e+07  2.9219940884741869e+07  5.3776086136402801e+07  3.9213982287140548e+07  6.1604538536852002e+07  4.5406582132006086e+07  6.1142595580217905e+07  5.0397878950963654e+07  5.5592030336731642e+07  5.6974412563718975e+07  5.7997141876494959e+07  5.6596936908809595e+07  5.1167496365871653e+07  6.1760851714703880e+07  4.4102343558022223e+07  6.2988272444218427e+07  4.0709735769845173e+07  5.3290397880491890e+07  2.8831341357817631e+07  6.2854428265438847e+07  2.2259685769124594e+07  7.4343496930980474e+07  9.2009257442417275e+06  6.2656841470497094e+07  1.1359030368808880e+06  5.4419537124986403e+07  7.7587206089677464e+05  6.2271023695006840e+07  1.1136697952756004e+06  6.1330803296025664e+07  8.9922437597893539e+05  5.5485629529200293e+07  5.0708047211810900e+05  5.8216611224484116e+07  3.7508822708290897e+05  4.9817315929887436e+07  2.2982679216536132e+05  4.4910618229650266e+07  1.5107643760664156e+05  3.9705172581960462e+07  7.8070945045125089e+04  2.8845233049004402e+07  2.5794432493280925e+04  2.1824064831740580e+07  4.5826295185043318e+03  9.9491127370062508e+06  2.1371724343869550e+03  5.6201911237471225e+05  1.2159527561193252e+03  9.2541135963396367e+05  2.8870645620608125e+03  1.2352545670699645e+06  2.4897872081529608e+03  8.5197196133510920e+05  1.6540356132255142e+03  5.4603350695699838e+05  1.0598136863421153e+03  3.7539686420514231e+05  3.4855066380370920e+02  2.4714061008821381e+05  1.2585672787528145e+02  1.5098200504334181e+05  3.8068824191730592e+01  7.7718508463902952e+04  5.9717234098484575e+01  3.0384543933957968e+04  6.0782013543200947e+01  3.3426966992155112e+03  5.2504075401475757e+02  1.0295324003265594e+03  2.4372775637670975e+03  1.5860361396501175e+03  4.8769957066672632e+03  2.9725254789294909e+03  2.6470389770866182e+03  2.2139737298107225e+03  2.6151872210949830e+04  1.9770131206758374e+03  1.3668598396467403e+05  1.1091620557384351e+03  3.3898443523923709e+05  4.0599469833107560e+02  9.9628352129269973e+05  1.2274987893333486e+02  6.6235511272492120e+05  1.4130839372994424e+02  2.5658153707694663e+06  2.0635234071283186e+01  1.3651537559334038e+07  5.8506576636663056e+02  1.4646946614330681e+07  2.3560566074991457e+03  1.2032313823439872e+07  5.5543289163339905e+03  9.0583243115998600e+06  1.4688141852547410e+03  6.4998752427938776e+06  3.0031625457980896e+04  3.6421447502239002e+06  1.4862625540805765e+05  1.3002612009054825e+06  2.9883602947846550e+05  8.0592951288738230e+05  1.0107502987442919e+06  3.2012619199992176e+06  8.7436381464904058e+05  6.0953714809924597e+06  2.6742181689903839e+06  8.9379437844561394e+06  1.4890629982317556e+07  1.1748759971965736e+07  1.4034654108894963e+07  1.2720489594823014e+07  1.2149988927634984e+07  1.4293719414071999e+07  9.5714307911398113e+06  1.4519012273136280e+07  6.8383218396292087e+06  1.6941818247819673e+07  3.6171669537463211e+06  1.9847506543750923e+07  1.0232678467512180e+06  2.7240902968498122e+07  7.8701740192815277e+05  2.3492149219257459e+07  3.1377103975536311e+06  2.1899916988196533e+07  5.8978434795063641e+06  2.8042678766670909e+07  9.0462363349023741e+06  3.0122197252168864e+07  1.1650629826641822e+07  2.6670530688332133e+07  1.3105078747961748e+07  2.3071105097158395e+07  1.4381278725944871e+07  2.1588997159770951e+07  1.4466964994647080e+07  2.2854987183846738e+07  1.6224933113671601e+07  2.3314583119350217e+07  2.1155308286866784e+07  2.1762041810569044e+07  2.6027298248297073e+07  1.9186345769302145e+07  2.3843257911408938e+07  1.6745001392179951e+07  2.2035504518245995e+07  1.4868502343297498e+07  2.8150145976421174e+07  1.1633380827940667e+07  3.1057663581391733e+07  1.0649712079861421e+07  2.7403406645165555e+07  8.3529738208542615e+06  2.2751660499540135e+07  6.6272873930702815e+06  2.1801792852339566e+07  4.5200316440358143e+06  2.3209755165318377e+07  1.2320987147143930e+06  2.2564762594121829e+07  3.9450558593508089e+06  2.1516324068213113e+07  1.3043833307246257e+07  1.9237572570252385e+07  8.5848108899454679e+06  1.6760849480394358e+07  3.2340115014303215e+06  1.4692446667287931e+07  3.5930894234266621e+05  1.1891886353603585e+07  9.1252383847411402e+04  1.0482625557985602e+07  4.8141926657484996e+05  8.2038587127472442e+06  7.7191696675399621e+05  6.5424636431633271e+06  5.6446347528668551e+05  4.3704472458577333e+06  5.2210296462463896e+05  1.2763566611967913e+06  2.8169937116573297e+05  4.0644679770825910e+06  1.6967982467374890e+05  1.3337161153471399e+07  4.5504349176003954e+04  8.8466987992641516e+06  7.6527462366695632e+04  3.0928688401956633e+06  1.6521105662439333e+05  7.0483956344714505e+05  1.7179059996652586e+05  2.1797664356035314e+05  1.0229071446920760e+05  5.4970303918831132e+05  -8.3488400306764979e+03  8.4956044977671956e+05  1.0631552711197964e+05  5.1536553068054438e+05  2.6847107270231895e+05  7.4577738593931764e+05  1.6731488457049105e+07  3.1296894829424772e+07  1.8286102312500436e+07  4.1078358976962596e+07  3.4101795239953488e+07  4.8564326119462945e+07  2.8572201994344644e+07  5.6212102317761242e+07  2.5907436923866864e+07  6.5341948134427443e+07  2.3535312666506547e+07  6.9552684853700414e+07  2.1761124859890226e+07  6.5346899524540156e+07  2.0298238841807794e+07  7.2074398575549796e+07  2.0479553702236470e+07  6.7814779310358480e+07  1.9849647806481812e+07  5.3949437951791987e+07  1.9672662374363761e+07  6.1336201871226981e+07  2.3008851630534209e+07  6.9186086418873921e+07  2.4121360583437499e+07  5.2416962163335539e+07  2.2620832520359401e+07  4.1323354423677370e+07  2.3981130019972716e+07  3.9776959760934085e+07  2.4527290085458163e+07  3.1340710749494903e+07  2.4367677760323990e+07  2.0221552833549749e+07  2.1553152800039466e+07  9.0543131096972767e+06  2.3484051815312024e+07  4.8466036410689978e+06  2.5116669045680624e+07  1.8543941249676391e+07  3.0835656338560592e+07  3.3552934181486845e+07  2.6653678160292555e+07  5.1614988183224455e+07  2.3046265522664335e+07  8.2688902043132991e+07  2.8543213772125401e+07  1.2005609382107507e+08  3.3087648004364692e+07  1.1786705714051886e+08  3.1954553180952482e+07  6.1010114752594709e+07  2.7975067235577147e+07  2.9316183974158246e+07  2.8231454218154721e+07  1.5060874571641184e+07  3.2381508336519971e+07  9.3729550595643278e+06  3.3151218326593563e+07  6.7835662875358397e+06  3.2401468361692064e+07  5.0534729982640715e+06  3.1646730377202511e+07  4.0720759826299688e+06  3.2890659706918512e+07  3.6839375864087027e+06  3.2641335768443234e+07  3.1464292911874978e+06  2.8321206332455691e+07  3.6795333182263775e+06  2.8507846674804371e+07  3.7845831218249663e+06  2.9308485334225826e+07  3.3846990288155219e+06  2.9184702242636744e+07  3.2099199181644218e+06  3.0262916890340272e+07  3.3317610843693549e+06  3.3230681729000580e+07  3.1665044451552639e+06  3.6339674393170632e+07  2.8161297293640319e+06  4.5611834586164288e+07  2.5758568196075880e+06  6.5264568424852975e+07  2.9063087823032867e+06  6.6962486963484481e+07  3.0768292172830291e+06  3.1710120166119203e+07  2.6392781439166339e+06  1.0246591201987321e+07  2.8542140792513625e+06  1.5570213771960426e+06  2.7264372070623967e+06  7.7441215898462078e+06  2.4275897253242242e+06  1.4371362421653457e+07  2.0878737062682298e+06  1.8712893690849043e+07  2.3823657574678911e+06  2.6694951704191357e+07  2.0400400781731373e+06  2.9097047252543785e+07  1.8622246863717311e+06  3.4259876542688467e+07  2.1466068723713378e+06  3.6364073687385887e+07  2.1483935495069451e+06  3.5336205083651513e+07  2.0755800538191046e+06  4.0763559561762966e+07  2.0861281824226400e+06  3.8917749956090212e+07  2.2006530041853413e+06  3.7729418146662228e+07  2.0624627829701710e+06  4.3235267099194393e+07  2.0458277199092878e+06  4.3692225675585337e+07  2.3314399370872416e+06  4.0113250627196550e+07  2.6193287552407673e+06  4.2051115074396200e+07  3.1990040294887684e+06  3.7290440353491560e+07  4.2863998614543229e+06  3.2291564638913594e+07  5.4715604158578394e+06  2.9436628775605578e+07  8.2051914414667981e+06  2.0042183043996450e+07  1.0483175807741776e+07  1.2899665529688295e+07  7.8516219055384416e+06  1.3582396005270943e+07  1.5023579354164291e+07  1.3254984154080458e+07  1.4177624963148560e+07  1.7218533901745040e+07  1.3867194089862112e+07  2.1273992547771085e+07  1.5713841511320895e+07  1.7571176544315308e+07  1.9505542218242135e+07  1.9471209067500588e+07  1.8978992177407347e+07  2.5527546972327217e+07  2.5526557888880812e+07  2.7974520350446910e+07  2.7330418870498963e+07  3.1190675217887979e+07  3.1467459904572017e+07  3.6641511292762406e+07  3.8137958112691037e+07  4.4027870884592190e+07  4.2972052857177258e+07  5.7369554570945092e+07  6.0101439118120857e+07  5.7562529769152306e+07  6.0266124284633160e+07  1.4706662423253730e+07  1.6925959560682237e+07  7.9767275429742783e+05  7.8331129612148530e+05  6.8223089151361035e+06  6.4322242074038330e+06  9.5329027771533392e+06  8.7964525436620042e+06  1.2436000930594319e+07  1.3135097090212785e+07  1.6192222150827626e+07  1.6482365518660201e+07  1.8771985401548777e+07  1.7976405150949076e+07  2.2756858613552295e+07  2.3310498096116222e+07  2.6206219367659003e+07  2.6299934457520239e+07  2.9738755312976774e+07  2.9417165179565694e+07  3.3007373620819736e+07  3.3515637858712032e+07  3.4439255021535851e+07  3.4935775418001100e+07  3.4483734341479965e+07  3.6547946574608833e+07  3.2190348624267697e+07  3.2134797046134099e+07  3.3126104621330749e+07  3.2723547071594477e+07  3.6191487606672309e+07  3.8550231094519079e+07  4.7345640240486346e+07  4.4804247280318178e+07  3.6185181696174957e+07  3.6241023759801991e+07  2.4432251496768881e+07  2.2471407769587219e+07  2.3896300897078272e+07  2.4107076581693076e+07  2.1744449611103721e+07  2.2703548730530903e+07  1.4849624593457382e+07  1.5183794913528007e+07  8.1259733184397537e+06  8.1040309452454289e+06  2.9682379312542118e+06  2.9776585305977822e+06  7.9879861567133991e+05  1.2095196815587592e+06  3.3492284588857866e+06  3.2150052332126056e+06  6.0761945460116966e+06  6.4722087964285593e+06  1.1343262525767216e+07  1.1039282776388152e+07  1.6692011321655579e+07  1.6734357521237424e+07  2.0513337763832379e+07  2.1066503589502353e+07  2.2686298920696288e+07  2.2192705976531290e+07  2.7771654430807345e+07  2.7657171954017632e+07  3.0948519173032422e+07  3.1160689431410994e+07  3.7135561309709884e+07  3.7092553945210092e+07  4.5534219830662444e+07  4.6299553733021051e+07  5.5868555268032961e+07  5.6841103638060108e+07  7.8547498460957021e+07  7.4558357829555005e+07  1.1369400482685141e+08  1.1849585993627478e+08  6.1200576399125993e+07  6.0953358568867832e+07  2.3631255497007832e+07  2.3044620817866631e+07  8.8331339227935039e+06  9.6508250694839228e+06  6.4050419533327259e+06  6.2825951748669585e+06  4.5300286840941161e+06  5.1154634061973216e+06  3.0585447792643565e+06  2.9719082045502998e+06  2.0704434600627113e+06  2.2048263668649471e+06  1.4457194352562421e+06  1.6615350255538151e+06  2.0716136507484263e+06  2.0722800778622879e+06  2.0711264230541072e+06  1.9272027024036623e+06  2.0890070544434916e+06  2.3192001475781980e+06  2.6108044668809967e+06  3.3526146809886672e+07  9.2140642933645453e+06  6.1656876353338815e+07  1.2919331382024507e+06  6.5018169794548281e+07  8.1736751897265837e+06  4.5343619203177653e+07  1.3862028097128958e+07  3.6712819074889727e+07  1.9714350971401557e+07  3.2688874558008846e+07  2.6673160143289201e+07  3.0463475125707652e+07  2.8153396971839614e+07  2.9215762462355461e+07  3.4092868474079348e+07  2.9175481856677510e+07  3.6351790381951302e+07  2.8626444570672635e+07  3.3245938787557889e+07  2.8240905169345226e+07  3.9632993439878397e+07  3.2632127303864520e+07  4.9479004556601018e+07  3.3931107245469771e+07  4.2104234912124671e+07  3.1220762669101104e+07  3.7559043466072485e+07  3.2614808139515433e+07  4.3936862357727066e+07  3.2840912529729016e+07  4.4067234391865209e+07  3.2177275374160323e+07  3.9357915648856051e+07  2.7803649502031874e+07  4.1743241855045363e+07  2.9133145001704328e+07  3.7019615715132192e+07  2.9905650213279460e+07  3.2997379147061985e+07  3.6136085360164769e+07  2.7087068909408469e+07  2.9243673651240338e+07  2.3940891342386134e+07  2.3112421548927747e+07  1.6586709263706766e+07  2.5998495754985690e+07  8.7104990576736704e+06  2.8251086266600598e+07  7.0245966087209862e+06  2.6663693013704218e+07  1.1254360373061217e+07 