<?xml version="1.0"?>
<VTKFile type="UnstructuredGrid"  version="0.1"  >
<UnstructuredGrid>
<Piece  NumberOfPoints="11925" NumberOfCells="22284">
<Points>
<DataArray  type="Float64"  NumberOfComponents="3"  format="ascii">0.009106770432969287 0.0084582340381214 0  0.009141919339108864 0.008441218550270694 0  0.009203598740601114 0.008393845335784609 0  0.009248431083532146 0.008349860421943302 0  0.009296575788899144 0.008291876136114247 0  0.00934265184641383 0.008225659869648794 0  0.009393578065451109 0.008122249398276498 0  0.009424875532860347 0.008002512562814071 0  0.009449530416649156 0.007942856790653622 0  0.009467776063564975 0.007776381909547738 0  0.009496347239411999 0.007611274617662952 0  0.009499145002853376 0.007525125628140703 0  0.009496347239411999 0.007464102266759158 0  0.009467776063564975 0.007298994974874372 0  0.009449530416649156 0.007132520093768488 0  0.009424875532860347 0.00707286432160804 0  0.009393578065451109 0.006953127486145613 0  0.00934265184641383 0.006849717014773317 0  0.009296575788899144 0.006783500748307864 0  0.009248431083532146 0.006725516462478808 0  0.009203598740601114 0.006681531548637502 0  0.009141919338909114 0.006634158334151417 0  0.009106770432902705 0.006617142873950686 0  0.009057788944723618 0.006598443490950575 0  0.009035429646949504 0.006603784476015589 0  0.009003273865471631 0.006637537337391888 0  0.008992706568800921 0.006658843167954558 0  0.008972489432160457 0.006721105527638192 0  0.008943689764150664 0.006775124298212487 0  0.008927575292032289 0.006821608040201005 0  0.008858421521121648 0.006940476521074617 0  0.008818283204798657 0.006994423939357116 0  0.008742251619928807 0.007081030046222233 0  0.008689386069399707 0.007127977288024682 0  0.00865169762718865 0.007155237400276061 0  0.008598593426450953 0.007187519986677493 0  0.008503029036046951 0.007258952469496642 0  0.008441469295249169 0.007286330637148408 0  0.008404275359722921 0.007310151607682054 0  0.008340789248380142 0.007336567990292792 0  0.008278894472361808 0.007370606062816746 0  0.008227853892241668 0.007385785667750049 0  0.008178391959798996 0.007406751625964 0  0.008013447788775593 0.00743563391875675 0  0.007952261306532662 0.007456731513377061 0  0.007902010050251256 0.007466988976395871 0  0.007550251256281408 0.00748107426496475 0  0.007173366834170854 0.007466988976395871 0  0.007123115577889447 0.007456731513377061 0  0.007061929095646517 0.00743563391875675 0  0.006896984924623115 0.007406751625964 0  0.006771663215364072 0.00735919225436318 0  0.006734587636041969 0.007336567990292792 0  0.006695979899497487 0.00732259899495977 0  0.006633907589172942 0.007286330637148408 0  0.00657234784837516 0.007258952469496642 0  0.006476783457971159 0.007187519986677493 0  0.006385990815022405 0.007127977288024682 0  0.006333125264493302 0.007081030046222233 0  0.006244530865553103 0.006978164963285671 0  0.006205048905315104 0.00692211055276382 0  0.006159330552520386 0.006845248264868939 0  0.006131687120271447 0.006775124298212487 0  0.006102887452261655 0.006721105527638192 0  0.006082670315621189 0.006658843167954558 0  0.006072103018950479 0.006637537337391888 0  0.006039947237472605 0.006603784476015589 0  0.006017587939698492 0.006598443490950575 0  0.005933457545512996 0.006634158334151417 0  0.005871778143820997 0.006681531548637502 0  0.005826945800889965 0.006725516462478808 0  0.005778801095522966 0.006783500748307864 0  0.005732725038008282 0.006849717014773317 0  0.005681798818971001 0.006953127486145613 0  0.005650501351561765 0.00707286432160804 0  0.005625846467772956 0.007132520093768488 0  0.005607600820857134 0.007298994974874372 0  0.005577737985543962 0.00747666508082951 0  0.005579029645010113 0.007611274617662952 0  0.005607600820857134 0.007776381909547738 0  0.005625846467772956 0.007942856790653622 0  0.005650501351561765 0.008002512562814071 0  0.005676707781126685 0.008109686584206147 0  0.005732725038008282 0.008225659869648794 0  0.005778801095522966 0.008291876136114247 0  0.00583916892901236 0.008362423236013654 0  0.005871778143820997 0.008393845335784609 0  0.005933457545313248 0.008441218550270694 0  0.005968606451452823 0.0084582340381214 0  0.006017587939698492 0.008476935349731016 0  0.006039947427631444 0.008471594355449344 0  0.006059540775356642 0.008452005488667369 0  0.006077635869842498 0.008429097268812035 0  0.006102887452261655 0.00835427135678392 0  0.006131687120271447 0.008300252586209624 0  0.006159330552520386 0.008230128619553171 0  0.006216955363300465 0.008134900363347493 0  0.006257093679623455 0.008080952945064994 0  0.006333125264493302 0.007994346838199877 0  0.006370813706704358 0.007959962410467781 0  0.00642367925723346 0.007920139484146049 0  0.006476783457971159 0.007887856897744617 0  0.00657234784837516 0.007816424414925468 0  0.006633907589172942 0.007789046247273704 0  0.006671101524699189 0.007765225276740057 0  0.006734587636041969 0.007738808894129319 0  0.006796482412060302 0.007704770821605365 0  0.00692211055276382 0.00766245157494053 0  0.007061929095646517 0.007639742965665362 0  0.007123115577889447 0.007618645371045051 0  0.007173366834170854 0.00760838790802624 0  0.007525125628140703 0.00759430261945736 0  0.007902010050251256 0.00760838790802624 0  0.007952261306532662 0.007618645371045051 0  0.008013447788775593 0.007639742965665362 0  0.00815326633165829 0.00766245157494053 0  0.008278894472361808 0.007704770821605365 0  0.008340789248380142 0.007738808894129319 0  0.008404275359722921 0.007765225276740057 0  0.008441469295249169 0.007789046247273704 0  0.008503029036046951 0.007816424414925468 0  0.008598593426450953 0.007887856897744617 0  0.00865169762718865 0.007920139484146049 0  0.008704563177717754 0.007959962410467781 0  0.008742251619928807 0.007994346838199877 0  0.008818283204798657 0.008080952945064994 0  0.008858421521121648 0.008134900363347493 0  0.008916046331901725 0.008230128619553171 0  0.008943689764150664 0.008300252586209624 0  0.008972489432160457 0.00835427135678392 0  0.008997741014579612 0.008429097268812035 0  0.009015836109065469 0.008452005488667369 0  0.009035429456790667 0.008471594355449344 0  0.009057788944723618 0.008476935349731016 0  0.000584560956065443 0.0006566731908302978 0  0.0004648241206030151 0.0006253757234210605 0  0.0006879714274377391 0.0007075994098675775 0  0.0004051683484425679 0.0006007208396322515 0  0.0007541876939031931 0.0007536754673822622 0  0.0002386934673366834 0.0005824751927164302 0  0.0008121719797322475 0.0008018201727492608 0  7.895734593675217e-05 0.0005538767054284305 0  0.000856156893573553 0.0008466525156802934 0  0 0.0005480494466900812 0  0.0009035301080596382 0.0009083319171725436 0  0 0 0  0.000939246867973806 0.0009924623115577891 0  0.01 0 0  0.0009339058736921331 0.001014821772831462 0  0.01 0.0005571664569146784 0  0.0008914087205285403 0.001052510215042517 0  0.009937185929648241 0.0005602048678154705 0  0.0008165829145728644 0.00107776182261448 0  0.009811557788944724 0.0005824755727250804 0  0.0007625641439985681 0.001106561492130742 0  0.00964508290783884 0.0006007208396322515 0  0.0006924401773421158 0.001134204924379682 0  0.009585427135678391 0.0006253757234210605 0  0.000597211921136439 0.001191829735159762 0  0.009478253114286317 0.0006515821529859823 0  0.0005055760606428836 0.00126320124586456 0  0.00937484264291402 0.0007001169347433132 0  0.0004537270030180498 0.001310933582424631 0  0.009296063562378215 0.0007536754673822622 0  0.0004097111541863734 0.001360865186881701 0  0.00923807927654916 0.0008018201727492608 0  0.0003501684555335619 0.001451657829830455 0  0.009194094362707853 0.0008466525156802934 0  0.0002787359727144142 0.001547222220234457 0  0.009146721148221768 0.0009083319171725436 0  0.0002513578050626486 0.001608781961032239 0  0.0091110043883076 0.0009924623115577891 0  0.0002275368345290006 0.001645975896558485 0  0.009116345382589274 0.001014821785907898 0  0.0002011204519182638 0.001709462007901265 0  0.009158842483081762 0.001052510228118953 0  0.0001670823793943093 0.001771356783919598 0  0.009233668341708544 0.001077761824120951 0  0.0001247631327294741 0.001896984924623115 0  0.009287687112282839 0.001106561492130742 0  0.0001020545234543062 0.002036803467505815 0  0.009357811078939291 0.001134204924379682 0  8.096507571907495e-05 0.002097989949748744 0  0.009453039335144969 0.001191829735159762 0  7.071342713566267e-05 0.002148241206030151 0  0.009544675195638523 0.00126320124586456 0  5.669507456120024e-05 0.0025 0  0.009596524253263357 0.001310933582424631 0  7.071342713566267e-05 0.002876884422110553 0  0.009640540102095033 0.001360865186881701 0  8.096507571907495e-05 0.00292713567839196 0  0.009700082800747845 0.001451657829830455 0  0.0001020545234543062 0.002988322160634889 0  0.009771515283566994 0.001547222220234457 0  0.0001247631327294741 0.003128140703517588 0  0.009798893451218758 0.001608781961032239 0  0.0001670823793943093 0.003253768844221106 0  0.009822714421752407 0.001645975896558485 0  0.0002011204519182638 0.003315663620239438 0  0.009849130804363143 0.001709462007901265 0  0.0002275368345290006 0.003379149731582219 0  0.009883168876887099 0.001771356783919598 0  0.0002513578050626486 0.003416343667108464 0  0.009925488123551932 0.001896984924623115 0  0.0002787359727144142 0.003477903407906247 0  0.009948196732827102 0.002036803467505815 0  0.0003501684555335619 0.003573467798310248 0  0.009969286180562333 0.002097989949748744 0  0.0004097111541863734 0.003664260441259002 0  0.009979537829145744 0.002148241206030151 0  0.0004537270030180498 0.003714192045716073 0  0.009993556181720207 0.0025 0  0.0005055760606428836 0.003761924382276144 0  0.009979537829145744 0.002876884422110553 0  0.000597211921136439 0.003833295892980942 0  0.009969286180562333 0.00292713567839196 0  0.0006924401773421158 0.003890920703761021 0  0.009948196732827102 0.002988322160634889 0  0.0007625641439985681 0.003918564136009961 0  0.009925488123551932 0.0031281407035175
[...]
<PointData  Scalars="$\sigma_{VM}$"> 
<DataArray  type="Float64"  Name="$\sigma_{VM}$"  format="ascii">5.3690407847732022e+07  6.6386354047232591e+07  8.3426067243516460e+07  9.8638738289920181e+07  1.0264305462947628e+08  1.2675068338781545e+08  1.1755051622320843e+08  1.2961740515081365e+08  1.3187003788689382e+08  1.1491302394240393e+08  1.2616573458502199e+08  1.5665126132909307e+08  1.2142679274979784e+08  9.9365878950118899e+07  1.0523909873518425e+08  9.8406836657636940e+07  8.5082689979482993e+07  7.8634240868442893e+07  5.3970270694203921e+07  4.4049563798278384e+07  2.2266987684182979e+07  3.1996167175159641e+06  2.1221343921085428e+07  1.0056095023167603e+08  1.7579906842302188e+08  1.7471229632812178e+08  1.3490712517148939e+08  1.0105619266887170e+08  9.9013798658510998e+07  9.1277357216598719e+07  8.7361211293358967e+07  8.8357016004973143e+07  8.5178098020572275e+07  8.1383906852335826e+07  9.8084354315328196e+07  1.0348275696874048e+08  9.2744051423287839e+07  9.5972685581762627e+07  9.9113569641837463e+07  9.3162643400841758e+07  8.7041573929114997e+07  8.1659751171072617e+07  8.6257324184298411e+07  9.2908632094556063e+07  9.5786330372865289e+07  9.1461996698562622e+07  7.9655870074621886e+07  8.1623545395860001e+07  8.1905315877229378e+07  7.8442014038520321e+07  6.6927728744884767e+07  6.4699864576199695e+07  7.4677304666267633e+07  7.2770263395631269e+07  6.9337523110494420e+07  6.8637237950417325e+07  6.8960461045187980e+07  6.4154400138624199e+07  5.7691544353544608e+07  6.1767463974128224e+07  6.0982340289295703e+07  6.3533492734141268e+07  7.2331556190756157e+07  7.2588654213523954e+07  9.0791965493175313e+07  1.0430540839489762e+08  5.1391042056910530e+07  5.9745811245377079e+07  1.0544001527014212e+08  1.5340183956766307e+08  1.6586392652685013e+08  1.8844890946207881e+08  2.1368422334850347e+08  1.9599003418858311e+08  2.0916367023242417e+08  2.0337642034224626e+08  1.8023934872149593e+08  1.6822335541089255e+08  1.7702731253659973e+08  1.2312639588211864e+08  1.1649457859712955e+08  9.6839091672145709e+07  6.4242443320620097e+07  2.4795138739321433e+07  1.3782915692790981e+07  6.0877866361862734e+07  1.0257847351894636e+08  1.6032859102815744e+08  2.2989613207811135e+08  3.6366930648879969e+08  4.0164934041147327e+08  2.3116872128447697e+08  1.0365414333983417e+08  4.7324929696332604e+07  2.6297501918294944e+07  1.9826954769893385e+07  1.3001261170863979e+07  1.2007134472523838e+07  1.1006150564762501e+07  9.3838079054877460e+06  1.1214153686514143e+07  1.1435187232794520e+07  1.0042373573793370e+07  9.5046500375649091e+06  1.0169396427636174e+07  9.6759083164372817e+06  8.1015136292759767e+06  8.5721909391402695e+06  9.4805974097235724e+06  7.8520533452884788e+06  8.8013348262337856e+06  8.2623798941154424e+06  7.1183628571423190e+06  6.0228270032668607e+06  7.4855213997286949e+06  6.0213854108429607e+06  5.5661715348374285e+06  6.3156682587584490e+06  6.5122404572014464e+06  6.0788519177101627e+06  6.1280090996053703e+06  6.7299770820270497e+06  6.4793595404979829e+06  5.4396410849973392e+06  6.0933780456315549e+06  6.8598937779667163e+06  7.4567188725120621e+06  9.4481989871708918e+06  1.2589039923548209e+07  1.6870012592032991e+07  2.5441595143594150e+07  3.6028727329365261e+07  1.8021317540581763e+07  2.4018248571433838e+07  1.9813074235773624e+06  2.0053838574222403e+06  3.4682000922081387e+06  1.0341498083415246e+06  2.0515308898486425e+06  6.1590321412440098e+05  1.1670935751445999e+06  2.2197777322067291e+05  2.0430868540584056e+06  2.7628398617496307e+05  6.9925721516205883e+06  5.4155436526432505e+05  2.6545294978057679e+07  4.7087734302691225e+05  3.9416790253700852e+07  4.0480070052662172e+05  9.1453834565304071e+06  2.4123998529586117e+05  3.6781139120042380e+06  3.9935877902334556e+05  1.3887391511361333e+07  9.2645389933339937e+05  1.9033695052326940e+07  1.9622413528342717e+06  2.5887772962954506e+07  1.6675495333280526e+06  3.2145619516867988e+07  3.1286865304940226e+06  3.4606031171397634e+07  1.6399029039190754e+06  4.3566651736722559e+07  1.7680026107731347e+06  5.2946193966896884e+07  -8.8094804646974942e+05  5.7457746574859798e+07  7.9456202027569972e+06  6.4787821328930624e+07  2.4604996126954984e+07  6.6933913148817010e+07  3.9217837866249822e+07  7.1394023809469655e+07  9.7063721015904769e+06  6.4214601398730241e+07  3.5392641459124247e+06  6.8679052379979923e+07  1.3715320861185146e+07  8.1084572136685073e+07  1.9320345458387028e+07  8.3934790868570194e+07  2.5478589148039125e+07  8.1267775827218622e+07  3.1439198798829600e+07  6.1600921083238542e+07  3.5096197131612659e+07  7.6130371666630760e+07  4.3706214816026971e+07  6.6853011615865469e+07  5.2174177858790167e+07  6.2126519864975139e+07  5.8371449486432403e+07  4.8935246491988651e+07  6.3853639357216932e+07  4.1599332024416357e+07  6.8364134212398350e+07  4.4008590786790334e+07  7.0593883181375414e+07  3.8178293968626447e+07  6.3902236183548532e+07  3.5292091389851309e+07  6.9386879959502473e+07  2.6098528184795160e+07  8.1453786260191858e+07  1.7900916850894548e+07  8.2242392879342511e+07  9.3674147979928553e+06  8.0524546194690913e+07  1.7709897446595011e+06  6.5332820160099797e+07  3.0301513648591759e+06  7.3611754859635815e+07  1.0777213376225555e+07  7.0033107220757172e+07  2.0853536355133686e+07  6.3216672490046859e+07  2.8401182074659914e+07  5.0303169821904808e+07  3.6097845226744212e+07  4.2319660892120972e+07  4.3683121286123276e+07  4.0702005766639747e+07  4.3164439281271420e+07  3.8807356138459377e+07  6.7726333285730099e+06  3.4588349246371873e+07  3.0439068926552823e+06  2.6027832404485933e+07  2.7706986634396119e+06  1.7711598246352576e+07  9.9640960458544677e+05  9.0027384867971912e+06  3.0999590056732838e+05  1.2727380455776446e+06  9.1169400699765174e+04  2.8588181761579160e+06  6.7243604424502269e+02  1.0849494786548885e+07  1.5088434649240300e+04  2.0249713702670787e+07  5.4768506712977260e+03  2.9091449202233650e+07  1.3761612031641025e+03  3.5630896462653324e+07  9.5545054990051440e+01  4.3646491163227499e+07  1.3453667577541950e+02  4.4336916628041208e+07  8.5905972236596327e+01  6.0132960735269170e+06  2.1338389713893372e+02  2.1130401972419755e+06  1.0588874808373191e+03  2.9271006210259646e+06  2.1650921325126506e+03  8.9694028300321149e+05  4.8511452985474880e+03  4.3009591690756282e+05  7.4073886311671004e+03  4.7192334164711974e+04  9.5557395793770975e+03  6.2682818957630179e+03  2.9551822378432257e+03  1.4110879445007069e+04  5.2393753914977306e+03  6.4511806621019759e+03  8.8994727105644033e+03  1.3527177224822860e+03  7.4757592869359622e+04  7.2973057485936280e+01  2.2452398202094439e+05  3.6989215070708758e+02  4.5141530583217921e+05  3.2436561076948101e+02  6.6267476290441153e+05  1.1829300844433421e+03  1.0409700931683257e+06  2.6885734024908011e+03  1.5559526784571209e+06  5.0150532056328875e+03  2.4758487960431688e+06  6.7510181994229206e+03  3.4231382910269736e+06  8.2963599216713428e+03  3.2137913190153809e+06  2.5982242734313686e+03  1.7493283373262407e+06  2.7587737322484199e+03  2.7530953776178505e+07  1.9105547302539864e+04  6.5874625864971772e+07  7.3193421529380634e+04  8.6584244714795664e+07  2.2699646063117951e+05  1.1800397842706941e+08  4.4271797289307893e+05  1.2984640885794094e+08  6.8067867097309185e+05  1.4862103384629303e+08  1.0353015293420340e+06  1.7550339938095456e+08  1.5511794510889039e+06  1.6614372643418983e+08  2.4731598745794063e+06  1.7984667028965661e+08  3.4944797373820110e+06  1.8705118132718119e+08  3.0602319740372286e+06  1.6753760073980317e+08  1.0391188719128709e+06  1.8953726551177004e+08  2.8634422749913406e+07  2.3522494780105898e+08  6.2889072168985620e+07  1.9067452727022529e+08  8.7376619092756689e+07  1.6334928714416367e+08  1.1666000162893181e+08  1.8361493206795260e+08  1.3319117051961532e+08  1.8135819637960446e+08  1.4741465432649365e+08  1.6608269422557727e+08  1.7208065227967793e+08  1.7471632639248627e+08  1.6828831178993270e+08  1.5044964385345989e+08  1.8244284712674284e+08  1.2900991890516749e+08  1.8976666546306327e+08  1.2070543636743490e+08  1.6109028977060184e+08  8.5617021122592852e+07  1.9158855212020150e+08  6.3960464435899347e+07  2.3172928243651393e+08  2.4627735601198826e+07  1.9085706890001845e+08  1.7771078481524093e+06  1.6690384913493344e+08  2.6533267631437876e+06  1.8693660141369864e+08  3.2110160199417118e+06  1.8094842310452661e+08  2.6230769867959986e+06  1.6560257099919176e+08  1.5136075677083228e+06  1.7461646927907547e+08  1.0672726754491138e+06  1.4675336805180061e+08  6.6004584821137378e+05  1.3208870718508567e+08  4.3781815725112899e+05  1.1806048041608785e+08  2.2449139026332996e+05  8.6030120576747715e+07  6.4318302757153171e+04  6.2874590312361039e+07  1.4015640820706014e+04  2.7434772860995315e+07  6.9072754255812488e+03  4.5113668558112689e+05  2.7071098871411646e+03  3.1273960170474807e+06  8.3745557142485395e+03  3.6067812351557869e+06  7.3192608387666023e+03  2.5096939604896642e+06  4.4724209538078894e+03  1.6377510459698134e+06  2.7747494602953270e+03  1.0775764641326379e+06  1.0676948976066055e+03  6.9036931537042477e+05  3.0040285359440043e+02  4.2786528772001766e+05  8.9453309183186647e+01  2.2497977626902366e+05  1.5509623070418235e+02  7.6586669637263170e+04  1.0841640141818931e+02  1.1461346555549466e+04  1.3033818736194048e+03  4.8719633643760344e+03  6.5964278189249262e+03  2.6255622567109349e+03  1.3554482278870886e+04  8.6723049654366678e+03  5.7343539502101858e+03  6.3669967604580524e+03  6.2353122698531144e+04  5.3277207267219783e+03  3.7074791804525774e+05  2.4118156498571411e+03  8.7715772570362978e+05  1.1887152254901075e+03  2.7208633059478686e+06  3.1790568491480030e+02  2.4063176754593616e+06  3.4886160645566480e+02  6.0615506983056292e+06  2.5748358080464531e+01  4.0226316679581337e+07  1.4222366294834505e+03  4.4027137194349796e+07  6.3250457409388500e+03  3.6020815960781939e+07  1.4767821974479819e+04  2.7268010403379753e+07  4.6496305152892928e+03  1.9796481076066010e+07  6.1631777291506885e+04  1.0921509448558604e+07  4.0644173967346345e+05  3.3918157781282812e+06  8.0978285051339434e+05  1.9203734307065243e+06  2.7307537799045974e+06  8.6681125820650496e+06  3.1370330959744253e+06  1.8013417633567739e+07  6.3672017554869503e+06  2.6276192232179739e+07  4.4627215011425808e+07  3.4559296092128374e+07  4.2471390213890456e+07  3.7384904113784917e+07  3.6459084536002405e+07  4.2705759512557648e+07  2.8692970002390757e+07  4.2291590107214607e+07  2.0834150329765532e+07  5.0830357201140597e+07  1.0898492403652225e+07  5.9757952673465349e+07  2.9042623534355839e+06  7.1211454382662117e+07  1.3697030563743229e+06  7.1292023481997728e+07  8.5737402115329411e+06  7.0240494752450362e+07  1.7467236436625369e+07  8.5566585140767768e+07  2.6926186302463938e+07  7.9056100479538962e+07  3.4131637244382851e+07  8.1484548022790760e+07  3.8765250114078671e+07  6.9149995252935857e+07  4.2516749270579815e+07  6.3859446382732868e+07  4.1939698798547916e+07  6.8856443733465910e+07  4.9209329718266964e+07  6.8625226635073215e+07  6.2861276592662200e+07  6.4870881366760038e+07  6.7219371564696357e+07  5.7360006318350859e+07  7.2034191737110913e+07  5.1044428354525931e+07  7.1042091930912390e+07  4.3251151278548159e+07  8.5910936064230070e+07  3.3889540263411313e+07  8.2188740393119141e+07  3.1914146943341892e+07  8.2703558112365305e+07  2.5399040936755221e+07  6.8970639637430295e+07  1.9362068648341395e+07  6.4216599447665237e+07  1.3707687786410037e+07  6.9851963553172588e+07  3.9569023707452929e+06  6.7802320729898110e+07  9.3599144041369911e+06  6.3807455107228473e+07  3.9132529485421725e+07  5.7492201589233123e+07  2.6356776090358041e+07  5.1213583422530733e+07  8.1896772291853726e+06  4.3043714302614681e+07  3.3902311283948808e+05  3.5072373645316318e+07  5.1082255133503617e+05  3.1406359254488818e+07  1.4486235864209812e+06  2.4884259842899118e+07  2.5496322924887328e+06  1.9324932363350738e+07  1.9383375648689866e+06  1.3412655608783610e+07  1.4389354911920368e+06  3.6552795700436383e+06  8.3179782333542348e+05  1.0195650323771358e+07  5.7671224152292602e+05  3.9379516153129436e+07  1.5359822119062830e+05  2.6456337330049697e+07  1.9172240758100266e+05  7.5999455587073648e+06  5.0405431764847774e+05  1.2697529248825451e+06  5.7066989359754848e+05  4.8613960348894313e+05  2.5187172271544175e+05  1.7596397825383223e+06  2.9824898741451748e+03  2.8662886801606296e+06  2.8631024270254496e+05  1.6172530521910212e+06  7.4229919345177920e+05  2.3314588881162638e+06  4.4796483214289680e+07  9.2651394442442060e+07  5.0225876848433837e+07  1.2068699265806012e+08  1.0231084204858960e+08  1.4518946880088896e+08  8.6865856591187164e+07  1.6373044139494938e+08  7.5633203094577998e+07  1.9235075109383139e+08  7.0235783776457191e+07  2.0996865052191672e+08  6.5151953658196755e+07  1.9623560414910838e+08  6.0015284134088792e+07  2.1245125076937401e+08  6.1600390046154857e+07  2.0339742866555521e+08  5.8665829471618757e+07  1.6411598534633619e+08  5.6876030660938166e+07  1.8475400666670325e+08  6.8602196804073110e+07  2.1670028520317012e+08  7.2795955275929570e+07  1.5957363959462979e+08  6.7383033926170602e+07  1.2507399994687517e+08  7.0732664104492813e+07  1.1770316200389782e+08  7.3130523201449558e+07  9.2461737256718054e+07  7.3407915753918767e+07  5.9212466969209932e+07  6.2948946247334585e+07  2.3685677544655904e+07  7.0256143445310593e+07  1.3896889942260001e+07  7.6920789249714926e+07  5.5267242009274155e+07  8.1945099157943159e+07  9.9057284879674241e+07  8.0878871185141847e+07  1.5500993856827995e+08  7.3756416930378228e+07  2.3687049677505171e+08  8.6469288509809136e+07  3.6324788880942637e+08  8.9207599972156852e+07  3.5115621506424612e+08  9.5839011673962593e+07  1.7851703744605571e+08  8.4453894660200924e+07  8.9491298852822095e+07  8.3431787125987798e+07  4.0815710573211268e+07  9.7464123737350747e+07  2.8068819451265968e+07  9.9687692643634006e+07  2.0584988859458636e+07  9.5725759991473570e+07  1.4560567080441598e+07  9.3889638620773435e+07  1.2262367457086995e+07  9.9802800798800930e+07  1.1016130061435405e+07  9.7317971829629332e+07  9.1891784874638710e+06  8.2264083262370065e+07  1.1125544135157147e+07  8.4682631487620264e+07  1.1510715395196367e+07  8.8456500953454435e+07  9.9844981288254801e+06  8.6125589365311101e+07  9.5673031081493292e+06  9.0639390928557679e+07  1.0099411479844771e+07  9.9590608485248968e+07  9.5657524932163991e+06  1.0752900491875698e+08  8.4091793345511109e+06  1.3676941890045232e+08  7.4984936634551967e+06  1.9100394448903590e+08  8.5891363601555955e+06  2.0307375519163004e+08  9.4581994455749318e+06  9.5632447838908896e+07  7.5472963255067104e+06  2.4964529592672814e+07  8.4453506468504574e+06  3.0038862986834701e+06  8.2682756533252569e+06  2.1970214419785611e+07  7.1119397717724331e+06  4.1130744886781409e+07  5.8649454333925247e+06  5.4818444816131510e+07  7.4620630978229549e+06  7.8824311679498732e+07  5.9635712268830985e+06  8.6318901119677469e+07  5.5492645260982644e+06  1.0102139549118762e+08  6.5139741566620674e+06  1.0765192194595553e+08  6.4894299750642246e+06  1.0731974716209123e+08  6.1289066733846776e+06  1.2361303139103697e+08  6.1598618859928222e+06  1.2247725051087211e+08  6.6320801720059179e+06  1.1328976693878828e+08  6.1131619219354885e+06  1.2931273171430939e+08  5.9610957625471028e+06  1.2842915998941703e+08  6.9946432561183590e+06  1.2019213385384238e+08  7.7017785219767187e+06  1.2665253794555160e+08  9.4391005182407498e+06  1.0998541821151735e+08  1.2839860907148402e+07  9.4075952778139800e+07  1.6063939032871226e+07  8.7618315142150164e+07  2.4326315954957165e+07  5.9583636223121963e+07  3.1637260228596177e+07  3.5423516270926490e+07  2.2433053471224666e+07  4.2533563236299813e+07  4.8288258840394139e+07  4.0698614492019497e+07  4.3260812996910818e+07  5.1483649899603985e+07  4.1357791189783722e+07  6.3574652099708825e+07  4.8022598045523591e+07  5.0835469929765157e+07  5.6476074829512432e+07  5.8825753926840499e+07  5.7139295934683412e+07  7.6701246316816181e+07  7.6504046301935345e+07  8.2809915703573316e+07  8.1704606948834777e+07  9.2290529544544414e+07  9.0948743950838387e+07  1.0774927959289442e+08  1.1316431448540662e+08  1.2888696062752053e+08  1.2487263831921308e+08  1.7302209507662857e+08  1.8085901414699641e+08  1.7366458506397748e+08  1.7619462893492281e+08  3.4440940125606626e+07  4.1587961508429185e+07  1.6003758468459547e+06  5.2652290788710269e+05  2.0430169582530513e+07  1.8217262992856730e+07  2.7491061883779071e+07  2.5946651110090155e+07  3.7862775611223191e+07  3.9150263574232861e+07  4.8051452071131594e+07  4.9903141684265107e+07  5.5278556953286245e+07  5.1267490932350077e+07  6.6735470737593397e+07  6.8513055898777574e+07  7.9649937638861641e+07  8.0296709085332662e+07  8.8514362597771302e+07  8.7748406028155684e+07  9.8793804239200160e+07  9.9180817574901372e+07  1.0208077259622517e+08  1.0405876044028591e+08  1.0462047592623746e+08  1.0992742554148723e+08  9.4477141459931925e+07  9.4931920141788423e+07  9.9943747519101918e+07  9.9404268305846870e+07  1.1079262455823794e+08  1.1424781133887380e+08  1.2529146901389450e+08  1.1965610221638118e+08  1.1134124958355394e+08  1.1277866052816409e+08  7.9409976555533186e+07  7.3866119025930107e+07  7.1213589322887823e+07  7.1698333902063653e+07  5.2923814143686235e+07  5.5478772154193923e+07  4.5645757604304768e+07  4.5965336478904247e+07  2.4266396059085265e+07  2.4372293111165646e+07  7.6276610053860797e+06  7.3871929295429839e+06  1.8029097366583166e+06  2.8832495078676431e+06  1.1359340424266968e+07  1.0195904209985681e+07  1.7647699965055697e+07  1.9224758952067297e+07  3.2855876305348236e+07  3.1939369609341100e+07  5.0887745674088776e+07  5.1082459393328823e+07  6.1271798632956050e+07  6.3461275557589963e+07  6.7289819910242870e+07  6.5738024112448402e+07  8.2631914439520702e+07  8.2262798975656956e+07  9.3409997491938651e+07  9.3889467852126196e+07  1.1187786182546020e+08  1.1200333117321527e+08  1.3514903941188195e+08  1.3722996045392087e+08  1.6290880670246795e+08  1.6582975212127486e+08  2.3056485631637695e+08  2.2078387053563651e+08  3.4913034531679374e+08  3.5867792162363118e+08  1.8637162489312923e+08  1.8297255647613639e+08  6.1798582040287711e+07  5.9869840909097038e+07  2.3155239872779779e+07  2.5866940939942807e+07  1.9572628405383028e+07  1.8896363399128955e+07  1.2924870667369440e+07  1.5032782471292904e+07  8.8559651445883680e+06  8.7291890845428947e+06  5.9685484028080367e+06  6.2828621041408591e+06  4.0330602287867293e+06  4.4579262694084030e+06  5.9293444888031669e+06  6.1146249702072693e+06  5.8161613001401667e+06  5.5992038326929370e+06  6.6439585752121694e+06  7.1492065975899026e+06  8.8302352053694986e+06  9.8973112424009115e+07  2.2382578400713652e+07  1.8459538681423947e+08  2.0253518968686839e+06  1.8924203715863129e+08  2.3373844391135748e+07  1.3610163579305360e+08  3.9643071701750986e+07  1.0836006747416943e+08  5.7160448734457597e+07  9.7816794165437073e+07  7.9493618309354946e+07  9.1253781395746663e+07  8.3805687658815652e+07  8.6422361458069891e+07  1.0060278934099412e+08  8.7844804982418492e+07  1.0803707309188201e+08  8.5066892760451287e+07  1.0075729859185646e+08  8.1816300694848493e+07  1.2213100275651598e+08  9.7560512510301977e+07  1.5393171750138175e+08  1.0271715504730962e+08  1.2775348454668526e+08  9.3157887038917050e+07  1.1475856935023606e+08  9.6391056800532579e+07  1.3195380583969845e+08  9.8145585556376517e+07  1.2950494808900912e+08  9.7081252514412656e+07  1.1830944293076301e+08  8.1440759662158787e+07  1.2564623892088765e+08  8.7610041692250967e+07  1.0869584990042825e+08  9.1426384189425290e+07  9.6818550957542032e+07  9.7263966363867834e+07  8.1391413122860461e+07  8.9470119000041083e+07  7.0363865334197834e+07  7.3940279842504337e+07  4.9752600014819406e+07  7.8087114715942040e+07  2.4142099964068610e+07  7.5317137029283792e+07  1.8974126532581933e+07  8.0440985671245456e+07  3.4263523867133990e+07  