<?xml version="1.0"?>
<VTKFile type="UnstructuredGrid"  version="0.1"  >
<UnstructuredGrid>
<Piece  NumberOfPoints="11925" NumberOfCells="22284">
<Points>
<DataArray  type="Float64"  NumberOfComponents="3"  format="ascii">0.009106770432969287 0.0084582340381214 0  0.009141919339108864 0.008441218550270694 0  0.009203598740601114 0.008393845335784609 0  0.009248431083532146 0.008349860421943302 0  0.009296575788899144 0.008291876136114247 0  0.00934265184641383 0.008225659869648794 0  0.009393578065451109 0.008122249398276498 0  0.009424875532860347 0.008002512562814071 0  0.009449530416649156 0.007942856790653622 0  0.009467776063564975 0.007776381909547738 0  0.009496347239411999 0.007611274617662952 0  0.009499145002853376 0.007525125628140703 0  0.009496347239411999 0.007464102266759158 0  0.009467776063564975 0.007298994974874372 0  0.009449530416649156 0.007132520093768488 0  0.009424875532860347 0.00707286432160804 0  0.009393578065451109 0.006953127486145613 0  0.00934265184641383 0.006849717014773317 0  0.009296575788899144 0.006783500748307864 0  0.009248431083532146 0.006725516462478808 0  0.009203598740601114 0.006681531548637502 0  0.009141919338909114 0.006634158334151417 0  0.009106770432902705 0.006617142873950686 0  0.009057788944723618 0.006598443490950575 0  0.009035429646949504 0.006603784476015589 0  0.009003273865471631 0.006637537337391888 0  0.008992706568800921 0.006658843167954558 0  0.008972489432160457 0.006721105527638192 0  0.008943689764150664 0.006775124298212487 0  0.008927575292032289 0.006821608040201005 0  0.008858421521121648 0.006940476521074617 0  0.008818283204798657 0.006994423939357116 0  0.008742251619928807 0.007081030046222233 0  0.008689386069399707 0.007127977288024682 0  0.00865169762718865 0.007155237400276061 0  0.008598593426450953 0.007187519986677493 0  0.008503029036046951 0.007258952469496642 0  0.008441469295249169 0.007286330637148408 0  0.008404275359722921 0.007310151607682054 0  0.008340789248380142 0.007336567990292792 0  0.008278894472361808 0.007370606062816746 0  0.008227853892241668 0.007385785667750049 0  0.008178391959798996 0.007406751625964 0  0.008013447788775593 0.00743563391875675 0  0.007952261306532662 0.007456731513377061 0  0.007902010050251256 0.007466988976395871 0  0.007550251256281408 0.00748107426496475 0  0.007173366834170854 0.007466988976395871 0  0.007123115577889447 0.007456731513377061 0  0.007061929095646517 0.00743563391875675 0  0.006896984924623115 0.007406751625964 0  0.006771663215364072 0.00735919225436318 0  0.006734587636041969 0.007336567990292792 0  0.006695979899497487 0.00732259899495977 0  0.006633907589172942 0.007286330637148408 0  0.00657234784837516 0.007258952469496642 0  0.006476783457971159 0.007187519986677493 0  0.006385990815022405 0.007127977288024682 0  0.006333125264493302 0.007081030046222233 0  0.006244530865553103 0.006978164963285671 0  0.006205048905315104 0.00692211055276382 0  0.006159330552520386 0.006845248264868939 0  0.006131687120271447 0.006775124298212487 0  0.006102887452261655 0.006721105527638192 0  0.006082670315621189 0.006658843167954558 0  0.006072103018950479 0.006637537337391888 0  0.006039947237472605 0.006603784476015589 0  0.006017587939698492 0.006598443490950575 0  0.005933457545512996 0.006634158334151417 0  0.005871778143820997 0.006681531548637502 0  0.005826945800889965 0.006725516462478808 0  0.005778801095522966 0.006783500748307864 0  0.005732725038008282 0.006849717014773317 0  0.005681798818971001 0.006953127486145613 0  0.005650501351561765 0.00707286432160804 0  0.005625846467772956 0.007132520093768488 0  0.005607600820857134 0.007298994974874372 0  0.005577737985543962 0.00747666508082951 0  0.005579029645010113 0.007611274617662952 0  0.005607600820857134 0.007776381909547738 0  0.005625846467772956 0.007942856790653622 0  0.005650501351561765 0.008002512562814071 0  0.005676707781126685 0.008109686584206147 0  0.005732725038008282 0.008225659869648794 0  0.005778801095522966 0.008291876136114247 0  0.00583916892901236 0.008362423236013654 0  0.005871778143820997 0.008393845335784609 0  0.005933457545313248 0.008441218550270694 0  0.005968606451452823 0.0084582340381214 0  0.006017587939698492 0.008476935349731016 0  0.006039947427631444 0.008471594355449344 0  0.006059540775356642 0.008452005488667369 0  0.006077635869842498 0.008429097268812035 0  0.006102887452261655 0.00835427135678392 0  0.006131687120271447 0.008300252586209624 0  0.006159330552520386 0.008230128619553171 0  0.006216955363300465 0.008134900363347493 0  0.006257093679623455 0.008080952945064994 0  0.006333125264493302 0.007994346838199877 0  0.006370813706704358 0.007959962410467781 0  0.00642367925723346 0.007920139484146049 0  0.006476783457971159 0.007887856897744617 0  0.00657234784837516 0.007816424414925468 0  0.006633907589172942 0.007789046247273704 0  0.006671101524699189 0.007765225276740057 0  0.006734587636041969 0.007738808894129319 0  0.006796482412060302 0.007704770821605365 0  0.00692211055276382 0.00766245157494053 0  0.007061929095646517 0.007639742965665362 0  0.007123115577889447 0.007618645371045051 0  0.007173366834170854 0.00760838790802624 0  0.007525125628140703 0.00759430261945736 0  0.007902010050251256 0.00760838790802624 0  0.007952261306532662 0.007618645371045051 0  0.008013447788775593 0.007639742965665362 0  0.00815326633165829 0.00766245157494053 0  0.008278894472361808 0.007704770821605365 0  0.008340789248380142 0.007738808894129319 0  0.008404275359722921 0.007765225276740057 0  0.008441469295249169 0.007789046247273704 0  0.008503029036046951 0.007816424414925468 0  0.008598593426450953 0.007887856897744617 0  0.00865169762718865 0.007920139484146049 0  0.008704563177717754 0.007959962410467781 0  0.008742251619928807 0.007994346838199877 0  0.008818283204798657 0.008080952945064994 0  0.008858421521121648 0.008134900363347493 0  0.008916046331901725 0.008230128619553171 0  0.008943689764150664 0.008300252586209624 0  0.008972489432160457 0.00835427135678392 0  0.008997741014579612 0.008429097268812035 0  0.009015836109065469 0.008452005488667369 0  0.009035429456790667 0.008471594355449344 0  0.009057788944723618 0.008476935349731016 0  0.000584560956065443 0.0006566731908302978 0  0.0004648241206030151 0.0006253757234210605 0  0.0006879714274377391 0.0007075994098675775 0  0.0004051683484425679 0.0006007208396322515 0  0.0007541876939031931 0.0007536754673822622 0  0.0002386934673366834 0.0005824751927164302 0  0.0008121719797322475 0.0008018201727492608 0  7.895734593675217e-05 0.0005538767054284305 0  0.000856156893573553 0.0008466525156802934 0  0 0.0005480494466900812 0  0.0009035301080596382 0.0009083319171725436 0  0 0 0  0.000939246867973806 0.0009924623115577891 0  0.01 0 0  0.0009339058736921331 0.001014821772831462 0  0.01 0.0005571664569146784 0  0.0008914087205285403 0.001052510215042517 0  0.009937185929648241 0.0005602048678154705 0  0.0008165829145728644 0.00107776182261448 0  0.009811557788944724 0.0005824755727250804 0  0.0007625641439985681 0.001106561492130742 0  0.00964508290783884 0.0006007208396322515 0  0.0006924401773421158 0.001134204924379682 0  0.009585427135678391 0.0006253757234210605 0  0.000597211921136439 0.001191829735159762 0  0.009478253114286317 0.0006515821529859823 0  0.0005055760606428836 0.00126320124586456 0  0.00937484264291402 0.0007001169347433132 0  0.0004537270030180498 0.001310933582424631 0  0.009296063562378215 0.0007536754673822622 0  0.0004097111541863734 0.001360865186881701 0  0.00923807927654916 0.0008018201727492608 0  0.0003501684555335619 0.001451657829830455 0  0.009194094362707853 0.0008466525156802934 0  0.0002787359727144142 0.001547222220234457 0  0.009146721148221768 0.0009083319171725436 0  0.0002513578050626486 0.001608781961032239 0  0.0091110043883076 0.0009924623115577891 0  0.0002275368345290006 0.001645975896558485 0  0.009116345382589274 0.001014821785907898 0  0.0002011204519182638 0.001709462007901265 0  0.009158842483081762 0.001052510228118953 0  0.0001670823793943093 0.001771356783919598 0  0.009233668341708544 0.001077761824120951 0  0.0001247631327294741 0.001896984924623115 0  0.009287687112282839 0.001106561492130742 0  0.0001020545234543062 0.002036803467505815 0  0.009357811078939291 0.001134204924379682 0  8.096507571907495e-05 0.002097989949748744 0  0.009453039335144969 0.001191829735159762 0  7.071342713566267e-05 0.002148241206030151 0  0.009544675195638523 0.00126320124586456 0  5.669507456120024e-05 0.0025 0  0.009596524253263357 0.001310933582424631 0  7.071342713566267e-05 0.002876884422110553 0  0.009640540102095033 0.001360865186881701 0  8.096507571907495e-05 0.00292713567839196 0  0.009700082800747845 0.001451657829830455 0  0.0001020545234543062 0.002988322160634889 0  0.009771515283566994 0.001547222220234457 0  0.0001247631327294741 0.003128140703517588 0  0.009798893451218758 0.001608781961032239 0  0.0001670823793943093 0.003253768844221106 0  0.009822714421752407 0.001645975896558485 0  0.0002011204519182638 0.003315663620239438 0  0.009849130804363143 0.001709462007901265 0  0.0002275368345290006 0.003379149731582219 0  0.009883168876887099 0.001771356783919598 0  0.0002513578050626486 0.003416343667108464 0  0.009925488123551932 0.001896984924623115 0  0.0002787359727144142 0.003477903407906247 0  0.009948196732827102 0.002036803467505815 0  0.0003501684555335619 0.003573467798310248 0  0.009969286180562333 0.002097989949748744 0  0.0004097111541863734 0.003664260441259002 0  0.009979537829145744 0.002148241206030151 0  0.0004537270030180498 0.003714192045716073 0  0.009993556181720207 0.0025 0  0.0005055760606428836 0.003761924382276144 0  0.009979537829145744 0.002876884422110553 0  0.000597211921136439 0.003833295892980942 0  0.009969286180562333 0.00292713567839196 0  0.0006924401773421158 0.003890920703761021 0  0.009948196732827102 0.002988322160634889 0  0.0007625641439985681 0.003918564136009961 0  0.009925488123551932 0.0031281407035175
[...]
<PointData  Scalars="$\epsilon_{VM}$"> 
<DataArray  type="Float64"  Name="$\epsilon_{VM}$"  format="ascii">1.5048060046468227e-04  1.8785017405869263e-04  2.3720200208269390e-04  2.8281911566205249e-04  2.8824412050320583e-04  3.5994978946066332e-04  3.3310973384106810e-04  3.7480903860904319e-04  3.7619586353721381e-04  3.2700102665805418e-04  3.5501421653136089e-04  4.3539699400115824e-04  3.4358158058448324e-04  2.8627799732988587e-04  3.0128772904745372e-04  2.8515539027131894e-04  2.4332778433933715e-04  2.2252306662178214e-04  1.5192976465676518e-04  1.2455327101669816e-04  6.3151304676887349e-05  1.7206811957682558e-05  6.4518354269416301e-05  2.6502012680071872e-04  5.0659179973679580e-04  4.9512031068108355e-04  3.7948291668746427e-04  2.9552045597736607e-04  2.8331489486145464e-04  2.6731207003627541e-04  2.5309438779236293e-04  2.5715647897394376e-04  2.4924696617959949e-04  2.3781826507327308e-04  2.8491260760228040e-04  2.9543127418166465e-04  2.7205074282749328e-04  2.7633683583679254e-04  2.8565553625660249e-04  2.6798426307625715e-04  2.5024542529194322e-04  2.3946084901279129e-04  2.5050327768573612e-04  2.6691317726379622e-04  2.8577890270155856e-04  2.7435211881649349e-04  2.3703765335071863e-04  2.4730606911647365e-04  2.4852523860784972e-04  2.2650888970020462e-04  1.9613280348491926e-04  1.8653214455962002e-04  2.1460270939884925e-04  2.1023879573703168e-04  2.0101556311980410e-04  2.0030050215042093e-04  2.0140033084799943e-04  1.8655579700826844e-04  1.7031514145469915e-04  1.8001123513141875e-04  1.7745037566141504e-04  1.8507945248397411e-04  2.0714105764541867e-04  2.1185469813546511e-04  2.5947846595185647e-04  2.9615266583877587e-04  1.6035190213473138e-04  1.9170999088151148e-04  2.8890429609408028e-04  4.3175608036995303e-04  4.7347383532462693e-04  5.4242766476528021e-04  6.0666608359596572e-04  5.5881295496607486e-04  6.0414777208460575e-04  5.8319582184094751e-04  5.1440474059019745e-04  4.7268694816754014e-04  4.9507649025729039e-04  3.5320641306947598e-04  3.3550625811599506e-04  2.7682406014166872e-04  1.8416771245063863e-04  7.6820185370999244e-05  4.4711158050745613e-05  1.6665080153087627e-04  2.9091066237380708e-04  4.4190524815765261e-04  6.5496344166422846e-04  1.0363045256338917e-03  1.0991246221617428e-03  6.3347116499827810e-04  2.7934922590705562e-04  1.3956236117631108e-04  7.1607883335612387e-05  5.5668318751622159e-05  3.7023611840366885e-05  3.4793798061970143e-05  3.1462362436520220e-05  2.7307115813931034e-05  3.2079167748380639e-05  3.2560406268709931e-05  2.8981052748655849e-05  2.7491868716648335e-05  2.8882077574978700e-05  2.7732380648449367e-05  2.3253248435586386e-05  2.4584964056374495e-05  2.6837291580936283e-05  2.3100720896031867e-05  2.6147637766635458e-05  2.3635248932633109e-05  2.1382254653130993e-05  1.7537243774296564e-05  2.0803517012711564e-05  1.7628908764142715e-05  1.5973368397307537e-05  1.8109896483035791e-05  1.8562300273256017e-05  1.7603098471840495e-05  1.7730715633643227e-05  1.9294369903901548e-05  1.8556169637945424e-05  1.5956979714143946e-05  1.7559938483011578e-05  1.9781800894734998e-05  2.1681486519781610e-05  2.7057457506245825e-05  3.6156608825866082e-05  4.8533616973373416e-05  7.2203546908167340e-05  9.7430781766695156e-05  5.8952115216761994e-05  7.6966545550784040e-05  4.6942953240065150e-06  6.1994650738461067e-06  1.0118596500783074e-05  2.3853263973903515e-06  6.8038867600156172e-06  1.8845017442790750e-06  6.7441062798467627e-06  4.2403746055930944e-07  8.1272072826393632e-06  6.7829923517903334e-07  2.0190944230655749e-05  1.6824938966435073e-06  7.2304401233313600e-05  1.2157577572576395e-06  1.1155777865461865e-04  1.1591190234724992e-06  3.1819339063162666e-05  6.0241823644525634e-07  1.3090898788632246e-05  1.1715003117926027e-06  3.6394870764457309e-05  2.1584622018113654e-06  5.4862902408604403e-05  5.7289028497379706e-06  7.5028503591889896e-05  4.1014602507710550e-06  9.2600896588868647e-05  8.9420567364882697e-06  1.0116015017025592e-04  6.2691144375058214e-06  1.2701494799923101e-04  4.9368693950887082e-06  1.5354582794872750e-04  -2.8877834519205375e-06  1.6721733919657284e-04  2.3955524594290171e-05  1.8764525735070564e-04  6.7359390073609294e-05  1.9264966085003895e-04  1.1121640000382795e-04  2.0351565212410098e-04  3.2971931744247071e-05  1.8721001037151939e-04  1.2267558171842644e-05  2.0211555679712151e-04  3.5291049987485612e-05  2.3298537283802042e-04  5.6417851959027115e-05  2.5541606457960171e-04  7.3963964988455689e-05  2.2815610379034291e-04  9.0033809689706623e-05  1.9789314727370802e-04  1.0271382159281409e-04  2.1972557563258423e-04  1.2643849559193073e-04  2.1193305124699914e-04  1.5252636181535138e-04  1.8055843604703809e-04  1.7034201306602526e-04  1.4333660225534616e-04  1.8540148215095953e-04  1.2177839019737338e-04  1.9692394698666495e-04  1.2508090950231118e-04  2.0197685837206094e-04  1.1183735887459141e-04  1.8710915306603267e-04  1.0249718737682791e-04  2.0335296945396471e-04  7.5867556697662615e-05  2.3659086783449425e-04  5.3001181490673323e-05  2.5702818021734037e-04  2.6622968413210856e-05  2.3898551594848328e-04  4.0388611415093878e-06  2.0972061737719699e-04  1.0765331749717284e-05  2.1315139593507394e-04  2.9927178752869484e-05  2.2212907300707673e-04  5.9302154922142662e-05  1.8286220613530086e-04  8.0382655387716622e-05  1.4655405473192846e-04  1.0388543434878335e-04  1.2544700886843796e-04  1.2264047891900255e-04  1.1685540956566912e-04  1.2053881942665135e-04  1.1229884193134280e-04  2.5793629379534019e-05  9.8600439491725196e-05  1.0621795227551820e-05  7.5707847046325590e-05  7.6967898026504000e-06  5.2534009744937701e-05  2.8200405844810986e-06  2.5767932554597521e-05  8.6634817184628227e-07  1.9039067624365731e-06  2.5310628306230725e-07  1.1464836529688964e-05  8.0714202234071185e-09  3.1629001628525939e-05  4.8007978241605774e-08  5.7169885483652223e-05  1.6681174654625372e-08  8.2594315563452812e-05  4.2881821416856746e-09  1.0249467833210729e-04  5.1758528322409219e-10  1.2442573370638704e-04  4.8579748956995676e-10  1.2076081479802209e-04  3.8062448986226369e-10  2.4744653004232866e-05  1.1671630328198467e-09  1.0811629064485609e-05  3.2068903721959400e-09  7.6794243630855487e-06  6.6442242550300102e-09  2.6868843561293661e-06  1.4491138989187558e-08  1.1575960017719576e-06  2.5846203113906953e-08  1.5346537237423007e-07  2.8891146629220728e-08  5.2519810952408950e-08  2.0123630512966763e-08  3.6288053620337226e-08  2.1694274068813258e-08  1.7570518031728498e-08  1.5729466652277958e-08  4.1896098441522602e-09  2.1754322503953476e-07  6.7057198363001679e-10  6.4974637853894112e-07  1.2406603368840656e-09  1.2753117090641796e-06  8.9596215517724181e-10  1.8973533233157726e-06  3.3727891610477126e-09  3.0269990306884960e-06  8.8281775089258893e-09  4.6903590426921008e-06  1.4648977831087519e-08  7.5218680035052967e-06  2.3405239762191133e-08  9.0266706934012715e-06  2.7331310803453474e-08  8.2008034476633206e-06  1.8264987109151449e-08  1.5552314959014394e-05  1.6068458559422403e-08  7.4636845485641834e-05  5.6096176448224754e-08  1.8283156663069129e-04  2.1561985275565396e-07  2.4331193357127979e-04  6.3137264552958806e-07  3.3513587568058444e-04  1.2825835291256733e-06  3.6769862268518571e-04  1.9219471890180767e-06  4.2361233488947398e-04  3.0091544534961468e-06  4.9442316352746589e-04  4.6741508300670577e-06  4.7568113750415453e-04  7.6443026378276011e-06  5.2220828642857782e-04  8.8757354694740346e-06  5.3239050607586133e-04  9.4243228597031158e-06  4.7870120133474282e-04  1.1294635985001424e-05  5.3377842971712261e-04  7.5139779733944133e-05  6.5184824346213545e-04  1.7523713753977554e-04  5.2613222712100582e-04  2.4501626565648550e-04  4.6835809847845677e-04  3.2976938621820043e-04  5.2581691706513067e-04  3.8043649299977604e-04  5.2311879114357875e-04  4.2320013838294349e-04  4.7334896806880953e-04  4.8521679240471846e-04  4.9114168477733461e-04  4.8265816916389840e-04  4.2890899995149171e-04  5.2452184418129877e-04  3.6550993750518332e-04  5.4009400977743968e-04  3.4141594030574518e-04  4.6453489114530101e-04  2.4084264348560525e-04  5.3561678374930844e-04  1.7716125180616422e-04  6.4099996970583468e-04  6.8057793074421634e-05  5.3740482063646938e-04  1.5439783549779644e-05  4.7450877787730598e-04  9.0868018445309917e-06  5.3161504182964547e-04  8.3565727528427792e-06  5.2455857072836480e-04  7.8695843235990590e-06  4.7412918353395133e-04  4.6042793295055829e-06  4.9327140474748302e-04  3.1008760321519621e-06  4.1909818700049730e-04  1.8742614369550570e-06  3.7601088553080865e-04  1.2474390029212236e-06  3.3414707494656065e-04  6.3312533952335914e-07  2.4138051101524569e-04  1.8235518247038746e-07  1.7427750262441756e-04  3.4386536830038495e-08  7.0079136975136763e-05  2.3598321428201364e-08  2.1201603805552909e-05  1.8806047759662632e-08  6.4919310607831862e-06  2.4776687883011744e-08  9.8847388615577524e-06  2.4129374133984420e-08  7.3514951192107812e-06  1.2998832287224175e-08  4.7898580648494614e-06  8.5350405725710248e-09  3.1741801237650228e-06  3.2599566116592271e-09  2.0161041049629360e-06  1.0354830040128624e-09  1.2480342248656490e-06  9.8871042667489722e-11  6.5542026394042228e-07  5.5156374509128552e-10  2.2480789079827837e-07  4.8774457635296714e-10  1.6939265064929071e-08  3.8433859668457539e-09  2.3835543662467246e-08  1.8973938837734228e-08  2.7063724806476991e-08  3.8204318103406674e-08  2.3529124268818179e-08  3.9780603385859089e-08  2.2462038498132997e-08  1.8715017733157225e-07  1.5203922923150114e-08  1.0078709549640569e-06  8.3847839244687975e-09  2.6041173814066470e-06  3.4306112737060083e-09  7.2869464694829269e-06  8.8145881692308539e-10  1.0597225492280042e-05  1.2062435615764254e-09  2.3846896489626686e-05  7.0182867361611198e-10  1.1265565650296911e-04  3.9861261266254465e-09  1.2665479668349489e-04  1.7362246315764426e-08  1.0332200798678160e-04  4.5393749330676374e-08  7.8254542108789336e-05  1.4458636850529104e-08  5.6916343604200067e-05  2.0090053091225760e-07  3.2655196032947306e-05  1.1582470986872893e-06  1.2757728180463703e-05  2.4904454197348028e-06  4.0083778323816422e-06  7.1148403334349291e-06  2.4938534052925239e-05  1.1645813235386473e-05  5.2248476014780570e-05  2.5068937765354584e-05  7.7000680528554842e-05  1.2168070929048239e-04  9.9877297606312281e-05  1.2075579202401043e-04  1.0783038545458168e-04  1.0440965038776178e-04  1.2286088914010231e-04  8.1692619017161683e-05  1.2438597748227627e-04  5.9096860771397090e-05  1.4742119513628878e-04  3.0159700795677647e-05  1.7370919264245377e-04  9.5481795257830088e-06  2.1974647118635653e-04  4.9086523148661070e-06  2.1288844016925944e-04  2.4689472071840464e-05  2.2290415059404191e-04  5.0643696299990298e-05  2.5527646846302843e-04  7.9146107220699554e-05  2.4617129150331644e-04  9.8537073654312747e-05  2.3346176526420109e-04  1.1175727851841883e-04  2.0245989058951755e-04  1.2319814757738814e-04  1.8568793742459905e-04  1.2383602543224374e-04  1.9715357436902217e-04  1.4380230451341554e-04  1.9943553809984260e-04  1.8324655281667875e-04  1.8682899356934260e-04  2.1184118207451746e-04  1.6652792809822300e-04  2.1467185346939736e-04  1.4775187593045664e-04  2.2614648634797826e-04  1.2630403799623711e-04  2.4945328264618398e-04  9.9711934330988346e-05  2.5676530889407400e-04  9.2460373754111000e-05  2.3789059489640833e-04  7.3910424938414360e-05  2.0219943402746498e-04  5.5883371542219117e-05  1.8649647460041490e-04  3.6483934987038316e-05  2.0178581924963114e-04  1.1605354796157777e-05  1.9364043678974096e-04  3.1897668415911965e-05  1.8429956423072328e-04  1.1080475803964037e-04  1.6783685382558997e-04  6.8480757434251761e-05  1.4924478188311208e-04  2.4173902989357140e-05  1.2485167123822198e-04  3.0842301820913296e-07  1.0222192232478352e-04  1.7776323086648065e-06  9.1305293128630710e-05  5.9472512819430886e-06  7.2666767337153547e-05  6.3635586814037618e-06  5.5075138695838509e-05  5.0769905287330386e-06  3.4876879197093719e-05  4.0816253982435262e-06  1.4686415049405695e-05  2.2568881118055200e-06  3.4077119468316261e-05  1.4656563409705189e-06  1.1346580707426603e-04  3.8205662052013899e-07  7.1722270995570170e-05  3.4643142299174380e-07  2.2985328842109756e-05  1.3408018853718903e-06  5.9275286088513791e-06  1.2768706325730220e-06  5.9152013250023897e-06  6.4437534267995140e-07  5.9606787317654844e-06  -1.0645794393557575e-08  7.8306478049861973e-06  8.6225305214767642e-07  4.1480814146711506e-06  1.9984877788345705e-06  6.9775062484080576e-06  1.5503141012766721e-04  2.5621371238368268e-04  1.6278419628206598e-04  3.4177718524814211e-04  2.8040150303147872e-04  4.1081466042011845e-04  2.4470885305954922e-04  4.6807170007491744e-04  2.2116423100469881e-04  5.4861928767872641e-04  2.0315984280416360e-04  5.9034646236960132e-04  1.8850703468878226e-04  5.5660930791685684e-04  1.7540552678832491e-04  6.1179485590626603e-04  1.7916514970688023e-04  5.7702666411472829e-04  1.7054156098929348e-04  4.6895290336765999e-04  1.6761911013594784e-04  5.2511662438354612e-04  1.9800226622327129e-04  6.0202995666765646e-04  2.0897266127309453e-04  4.4530196492741748e-04  1.9621667493715058e-04  3.5578521775504176e-04  2.0434686502880350e-04  3.3613389002424155e-04  2.1061095066923140e-04  2.6690704251399144e-04  2.1110471176451892e-04  1.6692823438615903e-04  1.8396709858452094e-04  7.6075660510196579e-05  2.0489394522406947e-04  3.9377307811345226e-05  2.1896491713041744e-04  1.4944244889555016e-04  2.5069866249001228e-04  2.7561429141863904e-04  2.4134011068216506e-04  4.3124451207701827e-04  2.2184539953263227e-04  6.7985390165217329e-04  2.5822361014175859e-04  1.0095662049604695e-03  2.7622451993321686e-04  9.9994197179621887e-04  2.7624516908315036e-04  5.1140442590285066e-04  2.4778459378567419e-04  2.3338130596176171e-04  2.4405556209939949e-04  1.2010063942393107e-04  2.8176286902583525e-04  7.7199925529985772e-05  2.8549217137369847e-04  5.7988723152836991e-05  2.7837750720781010e-04  4.1857469638493441e-05  2.7360322696007761e-04  3.5409816585523768e-05  2.8789128696935840e-04  3.1226008419196068e-05  2.7907208154719310e-04  2.7001396748549563e-05  2.4245456964301282e-04  3.1851571396976559e-05  2.4636218222427546e-04  3.2836271751659595e-05  2.5615962394268782e-04  2.8858220178422211e-05  2.5075050838966408e-04  2.7622131244952200e-05  2.6309761362017350e-04  2.8819938555911852e-05  2.8562909695824577e-04  2.7454878163432419e-05  3.1010384305074542e-04  2.4156799058787356e-05  3.8448656812512292e-04  2.2167233338233365e-05  5.4831026631790771e-04  2.4962925099341365e-05  5.6067394824303902e-04  2.6703674711694449e-05  2.5391425251699792e-04  2.2070452717904059e-05  7.3547287715291105e-05  2.4877083503915336e-05  1.7485642635561095e-05  2.3973144731801280e-05  6.2239351952119262e-05  2.0928852658339144e-05  1.1711849310549304e-04  1.7303978632534110e-05  1.5639708560872046e-04  2.0720522959669765e-05  2.2393559289830042e-04  1.7500009455505977e-05  2.4830694195707300e-04  1.5827822521930919e-05  2.9193054717890449e-04  1.8554661216291876e-05  3.0842928876069080e-04  1.8516705310609139e-05  3.0446834293343936e-04  1.7802635810947067e-05  3.5104846260714093e-04  1.7831110965286587e-05  3.4488382454454450e-04  1.9051234791503166e-05  3.2663792105382653e-04  1.7739079266897131e-05  3.6853869927196701e-04  1.7366078381517340e-05  3.7191312664509548e-04  2.0276477293163821e-05  3.4146006545312510e-04  2.2211641331698995e-05  3.5645479502967320e-04  2.7261804166031829e-05  3.1179959593083048e-04  3.6653921138368465e-05  2.6837129779118461e-04  4.5928576694761320e-05  2.4748274040283587e-04  6.9358842487101183e-05  1.6694433617839478e-04  8.9389737075101631e-05  1.0857244877481808e-04  7.1387763888077196e-05  1.1789852919875016e-04  1.3074503848302312e-04  1.1628784745411683e-04  1.2304451452275103e-04  1.4662623113482383e-04  1.2049224239949938e-04  1.7870958363872043e-04  1.3738933248813026e-04  1.4881270001506581e-04  1.6503959804525759e-04  1.6606421025697660e-04  1.5959581476908188e-04  2.1583985600121246e-04  2.1511790082356580e-04  2.3716226969200534e-04  2.3088899430261889e-04  2.6261983843968136e-04  2.6244259828279125e-04  3.0598503858806004e-04  3.1838243950440246e-04  3.6882764792454253e-04  3.5601005222455392e-04  4.8123459766744367e-04  5.0694167564340733e-04  4.6889646329895303e-04  4.7260124289142085e-04  1.0505519027085019e-04  1.1210709117647402e-04  1.7299323866530014e-05  2.2774295871599027e-05  5.0808914252298269e-05  4.8710988421735321e-05  8.1388496838881804e-05  7.4339985172081698e-05  1.0813777117643728e-04  1.1151293836707218e-04  1.4171813048544869e-04  1.4369330873265117e-04  1.6001961739187681e-04  1.5187763510313265e-04  1.9315376805768887e-04  1.9844948781444664e-04  2.3208038824191471e-04  2.3186931420751745e-04  2.5659467018429929e-04  2.5469155247661370e-04  2.8499127514209965e-04  2.8776404682640401e-04  2.9378576088914717e-04  2.9988827544103147e-04  2.9925522628145202e-04  3.1947444607925018e-04  2.7609292171186132e-04  2.7431786147279902e-04  2.9265673179005279e-04  2.9304089968197801e-04  3.1896917216222426e-04  3.3152630392304939e-04  3.8592383509418086e-04  3.7617089002714877e-04  3.2839457578084420e-04  3.2790686340872406e-04  2.6794469533904941e-04  2.5482909756754132e-04  2.0414157766321335e-04  2.0424904002632586e-04  1.7112696172101241e-04  1.7572028265903079e-04  1.2920132690008419e-04  1.2947446733166718e-04  7.0723286507483584e-05  6.9706823469478207e-05  2.5413494957212943e-05  2.3275396956174589e-05  1.2844057648368263e-05  1.5918922485843012e-05  2.7326046398791441e-05  2.8001989173127250e-05  5.0097966884741127e-05  5.3451532430348495e-05  9.3577184530321337e-05  9.1537243053524560e-05  1.4676628625281068e-04  1.4651978349589903e-04  1.7971412840625249e-04  1.8355066864527222e-04  1.9481284110370740e-04  1.9129075781188276e-04  2.3738106041621416e-04  2.3691179023912224e-04  2.7287783397623257e-04  2.7475333010318527e-04  3.2027474967477495e-04  3.2133815891728027e-04  3.9063394231627670e-04  3.9620091735799527e-04  4.6699561572750560e-04  4.7706057206353127e-04  6.6089981308506082e-04  6.2505278079645903e-04  9.6648423556156080e-04  9.9024855968628082e-04  4.7253133321523101e-04  4.7341486983234625e-04  1.8546595186056847e-04  1.7666574672059497e-04  6.0495875892885541e-05  6.9187891500456072e-05  5.5475073775045257e-05  5.4844911715371675e-05  3.6636545819382319e-05  4.1135998550366320e-05  2.5599749269032472e-05  2.3788100741787982e-05  1.7155336440641664e-05  1.8670936729787788e-05  1.2473220383578114e-05  1.3501988023647941e-05  1.6874977241043080e-05  1.6547298219962894e-05  1.7551599099506863e-05  1.5355574260440305e-05  1.8998274048415732e-05  2.0956654735182314e-05  2.3433452583250449e-05  2.6441905905330863e-04  6.6079287007040247e-05  5.0688488617959334e-04  1.5092272018270128e-05  5.4792239240427536e-04  6.5609572800295153e-05  3.8307169201161849e-04  1.1121345268189754e-04  3.1300128712904665e-04  1.6245341068190137e-04  2.8111662292758363e-04  2.2330031132157275e-04  2.6556517251469523e-04  2.4057848658894264e-04  2.5256915352288170e-04  2.9136352722088766e-04  2.5527855237243225e-04  3.0946521219908277e-04  2.4769972763152007e-04  2.8833965057441225e-04  2.4126673669502949e-04  3.3690489435107005e-04  2.8088576989301602e-04  4.2620320347959575e-04  2.9465049619047465e-04  3.6033882414659177e-04  2.7111765562245306e-04  3.2716694248220403e-04  2.7813449591736845e-04  3.7517642155959996e-04  2.8244174954817854e-04  3.7565004662127249e-04  2.7888237420258118e-04  3.3669047419056133e-04  2.3784221249149257e-04  3.5503976939321941e-04  2.5515097700072018e-04  3.1055267857261099e-04  2.6082992104628212e-04  2.7728763245587698e-04  2.9553529514089185e-04  2.3030494994753019e-04  2.6753390707244567e-04  2.0054881438508974e-04  2.2226165891240198e-04  1.3889825576161383e-04  2.3262997829571591e-04  7.8967169339379573e-05  2.3428907300167390e-04  6.3247264330277487e-05  2.3109367652109989e-04  9.6588370961199019e