<?xml version="1.0"?>
<VTKFile type="UnstructuredGrid"  version="0.1"  >
<UnstructuredGrid>
<Piece  NumberOfPoints="1799" NumberOfCells="3156">
<Points>
<DataArray  type="Float64"  NumberOfComponents="3"  format="ascii">1.694065894508601e-21 0.008447317744001559 0  0 0.006243487017789186 0  0 0.01 0  0.01 0.01 0  0.01 0.004739447698251261 0  0.01 0.003038811340045742 0  0.01 0 0  0 0 0  0.00972274937591714 0.00446136709 0  0.009653726258356362 0.004545183154286949 0  0.009783606631901408 0.0043734488461064 0  0.009577812281436313 0.004624366443043088 0  0.009835143529851395 0.004282096254618384 0  0.009496374895431106 0.004698536913086191 0  0.009876351429728553 0.004188097333533943 0  0.009410843899527923 0.004767474310794485 0  0.009906389591104073 0.004092339945416686 0  0.009322680015752169 0.00483112308721043 0  0.009924603388293412 0.003995788691361544 0  0.009233342881914028 0.004889592860194898 0  0.009930538269388231 0.00389945963832429 0  0.009144259222736564 0.004943154406398476 0  0.009923949134101986 0.003804393533973133 0  0.009056791952980949 0.004992231280310688 0  0.009904804916195522 0.003711628202889073 0  0.00897221094262878 0.005037387269757166 0  0.009873288272257268 0.003622170840092915 0  0.008891666132610079 0.005079310004121139 0  0.009829790396922524 0.003536970921943865 0  0.008816163631214721 0.005118791130579932 0  0.009774901102315603 0.003456894440322572 0  0.008746545347644217 0.005156703562277342 0  0.009709394413691105 0.003382700134020289 0  0.008683472631978471 0.005193976378365099 0  0.009634210041128223 0.00331501834219343 0  0.008627414292309099 0.005231568017322153 0  0.009550431186043644 0.003254333039822774 0  0.008578639252366998 0.005270438450342868 0  0.009459259228807002 0.003200967535951617 0  0.008537213999305775 0.005311521049719365 0  0.00936198591772306 0.003155074224035663 0  0.008503004854204898 0.00535569487730484 0  0.009259963738278846 0.00311662867229655 0  0.008475684980220988 0.005403758110057852 0  0.009154575183414377 0.003085428233059718 0  0.008454745928046752 0.005456403293512485 0  0.009047201669650919 0.00306109523639258 0  0.008439513408278112 0.005514195070427174 0  0.008939192849631329 0.003043084717779311 0  0.008429166878152986 0.005577550971903466 0  0.008831837058876933 0.003030696514962359 0  0.008422762438422462 0.005646725783411865 0  0.008726333603687408 0.003023091458314896 0  0.008419258457098896 0.005721799910265017 0  0.008623767548895558 0.003019311274956418 0  0.008417543272430451 0.005802672068315741 0  0.008525087599857118 0.003018301731897273 0  0.008416464279248125 0.00588905651847861 0  0.008431087594226352 0.003018938460180701 0  0.008414857671986093 0.005980484950740676 0  0.008342392027717107 0.003020054832380215 0  0.008411578104923951 0.00607631300744762 0  0.008259445936461489 0.003020471211663848 0  0.008405527535824455 0.006175731319709577 0  0.008182509349292211 0.003019024853329008 0  0.008395682542970321 0.006277780817654691 0  0.008111656409014527 0.003014599720199745 0  0.008381119447013561 0.006381371967788657 0  0.008046779145346881 0.003006155472077048 0  0.008361036626979524 0.006485307491577932 0  0.007987595766591686 0.002992754906602592 0  0.008334773492744059 0.006588308031041598 0  0.007933663225123278 0.002973589164041123 0  0.008301825662481763 0.006689040151823762 0  0.007884393706229835 0.002948000060762873 0  0.008261855990795578 0.006786146013815808 0  0.007839074593337327 0.002915498984345503 0  0.00821470119903896 0.006878273995427361 0  0.00779689137756701 0.002875781865550529 0  0.008160373971076945 0.006964109531182152 0  0.007756952908035942 0.002828739836943341 0  0.008099060492600814 0.007042405414120494 0  0.007718318323066783 0.002774465292296384 0  0.008031113527237115 0.007112010824752832 0  0.007680024962909086 0.00271325317257295 0  0.00795704123519566 0.007171898376800313 0  0.007641116542652925 0.002645597420482335 0  0.007877492047271241 0.007221188515997342 0  0.007600670860259881 0.002572182663460059 0  0.007793236005976425 0.007259170670701667 0  0.007557826329114609 0.002493871301548735 0  0.007705143073969071 0.007285320630435001 0  0.007511806656826274 0.002411686289155665 0  0.007614158985545023 0.007299313718867113 0  0.007461943041351158 0.002326790005260706 0  0.007521279277912055 0.0073010334289404 0  0.007407693320609463 0.002240459702730237 0  0.007427522183731196 0.007290575297323677 0  0.007348657590981677 0.002154060111582997 0  0.007333901093897399 0.007268245910489354 0  0.007284589901391725 0.00206901384126507 0  0.007241397309057064 0.007234557052593699 0  0.007215405730813352 0.001986770281484875 0  0.007150933789699272 0.00719021512310135 0  0.007141185065425865 0.001908773738582196 0  0.007063350588039396 0.007136106066830752 0  0.007062171004568673 0.001836431563827099 0  0.006979382601016691 0.007073276167978721 0  0.006978763939261549 0.001771083030979474 0  0.006899640223662019 0.007002909160025809 0  0.006891511460488134 0.001713969702858609 0  0.006824593407373458 0.006926300192755933 0  0.006801094263833782 0.001666207991002947 0  0.006754559540147956 0.006844827273742502 0  0.006708308419676155 0.00162876455961884 0  0.006689695467758148 0.006759920862683462 0  0.006614044471369561 0.001602435156224392 0  0.006629993868701035 0.006673032341407502 0  0.006519263905397843 0.001587827368384263 0  0.006575284084148806 0.006585602109130518 0  0.006424973605244305 0.00158534771074889 0  0.006525237389907268 0.006499028060960921 0  0.006332198953034525 0.001595193341602671 0  0.006479376583406328 0.006414635197532647 0  0.006241956278528544 0.001617348595877673 0  0.006437089647876208 0.006333647085242707 0  0.006155225372873471 0.001651586404869184 0  0.006397647150892512 0.00625715984059454 0  0.00607292278421836 0.001697474554571888 0  0.006360222938045857 0.006186119249742206 0  0.005995876593836629 0.001754386617555196 0  0.006323917597038065 0.006121301557042314 0  0.005924803335248409 0.001821517280492992 0  0.006287784095183865 0.006063298366166584 0  0.005860287665879005 0.001897901683632007 0  0.0062508549359344 0.00601250599634399 0  0.00580276533234513 0.001982438292224905 0  0.006212170139093256 0.005969119527087292 0  0.005752509888229881 0.002073914735631396 0  0.006170805325914 0.005933131650016665 0  0.005709623529238961 0.002171035979469365 0  0.00612589918486164 0.005904336328960144 0  0.005674032307267846 0.002272454141595308 0  0.006076679606648487 0.005882337152288339 0  0.005645485874731519 0.002376799225137041 0  0.006022487807921907 0.005866560147323738 0  0.005623561796267508 0.002482710022195841 0  0.005962799810943057 0.005856270718467968 0  0.005607674349474454 0.002588864440638754 0  0.005897244710577686 0.005850594271079678 0  0.005597087622580383 0.002694008523617222 0  0.005825619238346946 0.005848539994562327 0  0.005590932607696336 0.002796983466621648 0  0.005747898224220681 0.005849027202760175 0  0.005588227886339777 0.002896749989114506 0  0.005664240658026499 0.005850913569457749 0  0.005587903411768036 0.002992409485755934 0  0.005574991161285845 0.005853024553003058 0  0.00558882681266186 0.003083221464236011 0  0.005480676794268173 0.0058541832778865 0  0.005589831576859201 0.003168616870700337 0  0.005381999239242995 0.005853240133126504 0  0.005589746423825433 0.003248207007348517 0  0.005279822516415462 0.005849101357707455 0  0.005587425141631403 0.00332178785741102 0  0.005175156500976945 0.005840755911796739 0  0.005581776149243588 0.003389339747608045 0  0.00506913661529584 0.005827299978297529 0  0.005571791048314209 0.003451022394501277 0  0.004963000166879053 0.005807958501303589 0  0.005556571450340227 0.003507165495970296 0  0.004858059887934908 0.005782103244641807 0  0.005535353404530312 0.003558255139524018 0  0.004755675304028876 0.005749266942985061 0  0.005507528808027482 0.003604916402549837 0  0.004657222615643685 0.005709153217746636 0  0.005472663251911699 0.003647892613343369 0  0.004564063816013228 0.005661642037623928 0  0.005430509841895833 0.003688021823527707 0  0.004477515790388595 0.00560679061654508 0  0.005381018629732107 0.003726211110241175 0  0.004398820145347423 0.005544829757060492 0  0.005324341397676651 0.003763409378575775 0  0.004329114501762111 0.00547615576202805 0  0.00526083165129817 0.003800579369906148 0  0.004269405951942947 0.005401318148896703 0  0.005191039792677943 0.00383866959910631 0  0.004220547331062618 0.005321003506214064 0  0.005115703563750334 0.003878586942798619 0  0.004183216886472467 0.005236015928541855 0  0.005035733965268281 0.003921170581761714 0  0.004157901847560569 0.005147254551350707 0  0.004952196967785547 0.00396716796394016 0  0.004144886305359802 0.005055688779556268 0  0.004866291434383562 0.004017213401087919 0  0.004144243707482425 0.004962331860358698 0  0.004779323768077839 0.004071809843297703 0  0.004155834162682716 0.004868213491542542 0  0.004692679877608203 0.004131314293258991 0  0.004179306633167043 0.004774352179382177 0  0.004607795121646793 0.004195927228129257 0  0.004214105974540842 0.0046817280652164 0  0.004526122941701917 0.004265686293763611 0  0.004259484665915422 0.004591256926493267 0  0.004449102926905492 0.004340464426324128 0  0.004314518959085191 0.004503766026986902 0  0.004378129068627031 0.004419972442741865 0  0.00593001182314166 0.006372403387971871 0  0.005939572443554628 0.006436360317137665 0  0.005925376372385204 0.006368751471385894 0  0.005946732308607814 0.006530898816930391 0  0.005866840669782601 0.00633199119654035 0  0.00594701266737181 0.006625814903473438 0  0.005804249765180952 0.006301600770407027 0  0.005940440295727538 0.006720641436504761 0  0.00573695820405656 0.00627701458488837 0  0.005927101959384199 0.006814914480349616 0  0.00566445506679863 0.006257506825568757 0  0.005907143630376305 0.006908179927508449 0  0.005586382222683439 0.006242212086839124 0  0.005880768731714959 0.007 0  0.005502548881191342 0.006230149145824911 0  0.00584823543546249 0.007089959498878739 0  0.0054129
[...]
<PointData  Scalars="$\epsilon_{VM}$"> 
<DataArray  type="Float64"  Name="$\epsilon_{VM}$"  format="ascii">2.4758392977473880e-03  1.4965186732149524e-03  1.0750445005613168e-03  3.9461373148943737e-04  1.3183644959751462e-03  2.2696579678680600e-03  6.8119444338229126e-04  3.8229308972593932e-04  2.0501742116444677e-03  9.5754739115739348e-04  3.2117371890611327e-03  4.5092343292464827e-04  3.8983522255694259e-03  1.0318020193203015e-04  4.3899986268647511e-03  5.5342147683260293e-04  3.8923614755101395e-03  1.2522412295000953e-04  6.5009795850882778e-03  3.2648349313571947e-05  1.2476948840532281e-02  1.6527517228995508e-04  7.8805514228769726e-03  2.2115155784442796e-04  4.1371180223218479e-03  2.6452143961195668e-04  4.3858103904155571e-03  1.5960396316420065e-04  4.0465812730923435e-03  1.7518683276883634e-04  3.2441292398268633e-03  1.7025561904873102e-04  2.7111792787628155e-03  1.2472280767863718e-04  1.4814040777813219e-03  1.1284435663635175e-04  2.3390976862532218e-03  8.9355690796711135e-05  2.1635767058365012e-03  7.2657790920161781e-05  1.6134813943606513e-03  7.0637845447912669e-05  1.1086972540306991e-03  7.2355923789885646e-05  1.7122330552105664e-03  8.1871639827546186e-05  1.1191261098945182e-03  8.6499056827158850e-05  8.6582203565634011e-04  1.0144027443076997e-04  8.0503941962932761e-04  1.3201951954320496e-04  6.5691462665333565e-04  1.4370981817156387e-04  5.4580392228626990e-04  1.4341517477938986e-04  4.6011164046164013e-04  1.7880891353025987e-04  3.5508558899134142e-04  1.9955507927180068e-04  2.8618298159116713e-04  2.0757138580190551e-04  2.1536815361921269e-04  1.9281221911061802e-04  1.7047735963346980e-04  2.8534419727144434e-04  1.2494894327563579e-04  2.0470911725802972e-04  1.0597130320336483e-04  2.8916961340550080e-04  8.2353244694472383e-05  1.6714043092482553e-04  7.4673605941412384e-05  2.5936246078700470e-04  7.3808350433096301e-05  1.8345664068650911e-04  7.6834641503476916e-05  2.4837898021393053e-04  8.7040665475045871e-05  1.8215847817084960e-04  1.0052219517029708e-04  2.3475257611123035e-04  1.3928805451598412e-04  2.3023522138111948e-04  1.6771775214071110e-04  2.5050837475459718e-04  2.0803532650135001e-04  2.5415602330260985e-04  2.6012937725466116e-04  2.3891046938839510e-04  3.0805621620978409e-04  1.8888679364927670e-04  3.6343344003103155e-04  1.5225063770616680e-04  4.0531622793881238e-04  9.4806262800821984e-05  4.4966693466707571e-04  3.4498990553204843e-05  4.7869197885059954e-04  1.6701663039759149e-05  4.9554997323374703e-04  5.9573319104879355e-05  4.9816223329257408e-04  1.0501941826340065e-04  5.0470633801033321e-04  1.3797291790125117e-04  4.8086856602355216e-04  1.5631197878293278e-04  4.4505986671884240e-04  1.5331797643535470e-04  4.0961219743204712e-04  1.2292809361485048e-04  3.5574970540463530e-04  8.0313618378914048e-05  3.0729562210018481e-04  2.8740399628407012e-05  2.5695836210977045e-04  9.5250949037592759e-05  2.0527904865706739e-04  2.6890928379810585e-04  1.7577382678315472e-04  4.5030845773449371e-04  1.5785830076585355e-04  6.8274726247528146e-04  1.5089574448895796e-04  9.1526849305004698e-04  1.5714814818853912e-04  1.0524059428620703e-03  1.7381996020174103e-04  1.1263311953321608e-03  1.8998329523335503e-04  1.0783744083661640e-03  2.1051834682593197e-04  1.0121480897726165e-03  2.1799755412926357e-04  8.6603342799734524e-04  2.2923063425752684e-04  7.9947293908787340e-04  2.2955067526786457e-04  7.2580627485010639e-04  2.2411744315306573e-04  7.1560639067451122e-04  2.1320754281507745e-04  7.6132572183566381e-04  1.9866644127667344e-04  8.3912196900767550e-04  1.8096928727763008e-04  9.9401195527751111e-04  1.6130304660384688e-04  1.0950844843665879e-03  1.3995131960987031e-04  1.2339347027362862e-03  1.1929553726865580e-04  1.3103587439447458e-03  9.9345399010486115e-05  1.2433538896605093e-03  8.0666579025112393e-05  1.1274024728884073e-03  6.3485719840415404e-05  8.8603475998899292e-04  4.8831770864090490e-05  5.5047684978691883e-04  3.6980508667740797e-05  1.6825890976824304e-04  2.7912674424869331e-05  2.1968801072783887e-04  2.0908248416495877e-05  5.8346176904811899e-04  1.5940455780327078e-05  9.6205869973823611e-04  1.3714869183639748e-05  1.3010116320895811e-03  1.1882975853629775e-05  1.5580404435927651e-03  1.2194127072606425e-05  1.7814746355713836e-03  1.3829599543253435e-05  1.8678186382151453e-03  1.6471526491081562e-05  1.9571909364951884e-03  2.1307668609105460e-05  1.9104114227318073e-03  2.7733432122460661e-05  1.8527441015760550e-03  4.0660253846965719e-05  1.7344528543892651e-03  5.0145821851486844e-05  1.5497782507758852e-03  6.6754880828671725e-05  1.3003305898010840e-03  8.4382113049758891e-05  1.0799134582098492e-03  1.0348372679668153e-04  7.5349480058302506e-04  1.2380631996945370e-04  4.7467443856752384e-04  1.4289697860941605e-04  2.7766089399297507e-04  1.5888836715202432e-04  1.1334703063588760e-04  1.7449872252699969e-04  2.4660907737523275e-05  1.7677466638241462e-04  5.7131765902352708e-05  1.7234242045494660e-04  1.1572372198128505e-04  1.5638735547588052e-04  3.4218204926418582e-03  1.8082035947446621e-03  3.7134976459997087e-03  1.1301469352285281e-03  2.4037314177854418e-03  8.4749895728805440e-04  2.1305319958217933e-03  6.0227832646507875e-04  2.0824877575663227e-03  3.9754895756135194e-04  1.8975137011986278e-03  2.6837820602050377e-04  1.7765111613163508e-03  1.5220995750640933e-04  1.5199538764707776e-03  7.2829575039440778e-05  1.2536125557255930e-03  2.7598194198511390e-05  9.0759777327809423e-04  8.6630869346043330e-06  6.1036894389621111e-04  5.3254105010929960e-05  2.4146675354294196e-04  7.1636892084676085e-05  1.3632613740584929e-04  9.0667037849628425e-05  3.3194819626733267e-04  1.0400415493158857e-04  5.5915399578842302e-04  1.0851757645400318e-04  8.4103677794059256e-04  1.1298812264176358e-04  9.5053563523550956e-04  1.1635156858949543e-04  1.0517271251657334e-03  1.1145539239697391e-04  1.0657764625834148e-03  1.1135749009189153e-04  1.0752334353828408e-03  1.0337064226003154e-04  1.0050972588057062e-03  9.9700778596638630e-05  9.3981898044581832e-04  9.3441950343585282e-05  8.2890253861566050e-04  8.7465786359410276e-05  7.9430713683290477e-04  8.0809811494380202e-05  6.8652092090356047e-04  7.4925273268430865e-05  5.8395855611360588e-04  6.9368601147446265e-05  5.2643428092665119e-04  6.3785032517262686e-05  4.3163268525439911e-04  5.9001339861207922e-05  3.2275245912269553e-04  5.3432609732275608e-05  2.4877849353535842e-04  5.1076937033668801e-05  4.5061942028117377e-04  4.6029831105093176e-05  2.6446033481641445e-04  4.3436984129571247e-05  1.1604878291983688e-04  4.1416711960754245e-05  5.1031982030131841e-05  3.7915809412836735e-05  9.4478622945973162e-06  3.6611989002691164e-05  2.0215155843388984e-05  3.4899719462418026e-05  5.6017840194265706e-05  3.3621281782032721e-05  8.5206389681700330e-05  3.2524447332784844e-05  1.1010822687785306e-04  3.1800526728806595e-05  1.3362127951093984e-04  3.1111411581757128e-05  1.5597160192323611e-04  3.0725025363138749e-05  1.6999507851444477e-04  3.0256208195561007e-05  1.9009620381786282e-04  3.0062360851088869e-05  2.0489655496194222e-04  3.0024633164245757e-05  2.1755550364531244e-04  2.9503907266384699e-05  2.3018892457240893e-04  2.9280962879162502e-05  2.4182607469453926e-04  2.9020314610188873e-05  2.4907832072339577e-04  2.8327170758986149e-05  2.5725777572480622e-04  2.8339454727185466e-05  2.6336201754696931e-04  2.7534228373384274e-05  2.7429530495059313e-04  2.7292045586516393e-05  2.7097211288818092e-04  2.6469554575642719e-05  2.8091168745603823e-04  2.6074927174656565e-05  2.8382998324200467e-04  2.5325253927780504e-05  2.8704380117610594e-04  2.4235366886567907e-05  2.9198708006684764e-04  2.3973674707386545e-05  2.9503890088280766e-04  2.4296396033651324e-05  3.0136049778262526e-04  2.4229914281900271e-05  3.0527282353353161e-04  2.3829033366481292e-05  3.1396316146436125e-04  2.5390026830419565e-05  3.2496281126088560e-04  2.7300315316428037e-05  3.3013087954772370e-04  2.8399360422787309e-05  3.5125119046716766e-04  3.0380974012544363e-05  3.4875322055676452e-04  3.7795727867131604e-05  3.6386939384786367e-04  4.0536166776498867e-05  3.9720787550096589e-04  5.1109632908100781e-05  3.9209367380514090e-04  6.1920093887242277e-05  3.8418975231963026e-04  7.4222051576858068e-05  4.2709010299315901e-04  9.2599052331156660e-05  4.1398847869215754e-04  1.0602249942181453e-04  4.5951289001575096e-04  1.4162490579880499e-04  5.6724636175248884e-04  1.6913550248581346e-04  3.3160078428751214e-04  2.0419964954488873e-04  4.5945570471394085e-04  2.5173440858595471e-04  3.5472378725743192e-04  2.8423980236670014e-04  6.8866315288441710e-04  3.6599472775728165e-04  2.4659766597113011e-04  4.1693362064113302e-04  3.1007430610768952e-04  4.8804781020557377e-04  1.1947726897826174e-04  5.7804167656675472e-04  2.3135464434971130e-04  6.3853045620477220e-04  2.8103110485432292e-04  7.1932788057588540e-04  6.7848479709487017e-04  8.5266389376502947e-04  3.4955934037085117e-05  8.9078721268689846e-04  2.8136237825304261e-04  1.0027498274794442e-03  7.0909229723386462e-04  1.0878588415275216e-03  1.3012675688274388e-03  1.1474176344963007e-03  1.9989041668044818e-03  1.1097795875808175e-03  2.5149543139672040e-03  1.0982427836776620e-03  3.0027573534916079e-03  1.7716211398136465e-03  3.0738771663762665e-03  1.1313426680690619e-03  3.4611210242312023e-03  1.9974312345602983e-03  2.9701913628158612e-03  7.1355278432515832e-04  4.3738264306644997e-03  1.1443388017163122e-03  6.3262452028958341e-03  -8.9200063938630025e-05  1.0930292016371647e-02  7.8347723503694572e-04  8.9669043084830112e-03  2.8992671876575662e-03  4.8985260145922895e-03  2.8846517936652041e-03  3.6655048360846655e-03  3.0781648689178977e-03  2.8784623076277237e-03  3.2763960923506029e-03  1.6345526272068106e-03  3.0170552095757578e-04  1.9411908048178460e-04  1.0910029469955044e-04  5.5535933950288027e-05  2.9906981856187894e-05  1.6317642093484779e-05  1.9976576759828224e-05  1.8660830193823606e-05  1.5460949572369474e-05  2.0031562766463210e-05  2.7718915322112055e-05  1.3720789044738019e-04  1.4850065706114148e-04  4.6752016567459624e-04  7.6470579756191426e-04  5.3002556403135368e-04  4.2204211185930483e-04  4.3620985153745894e-03  6.8057084822155075e-04  1.0229364000314495e-03  3.1384397815207064e-04  2.4785703170985461e-04  1.8175717363495670e-04  1.1554653239962415e-04  5.3456547157873166e-05  1.1164589022991649e-05  4.7158932263941593e-05  9.1852867409211990e-05  1.2374835862210445e-04  1.6741911011825680e-04  1.4888782765061463e-04  7.5938432891594916e-05  1.9675992693571199e-04  4.0372096536789239e-04  7.9800143155741644e-04  4.6418287172282581e-04  4.0740148621458964e-04  3.9554589998566371e-04  1.1311134797991628e-04  2.0463074167190800e-04  2.4517160341956554e-04  2.8266723409855658e-04  1.2176187830961045e-04  1.3563437917147599e-04  3.0952848260725049e-04  1.2851959341035995e-04  8.1775630890061000e-05  3.4448025551219954e-04  6.9724271058030566e-05  7.5103281494828670e-05  7.6294789738107197e-05  4.4510440956681507e-04  1.5989582881321333e-04  7.7931294348395900e-05  2.2674664262596544e-04  2.7342735097277739e-04  7.9568653456965291e-05  1.7195575917862692e-04  1.8627532213141474e-04  4.2512975877893349e-05  1.7262856248244235e-04  3.3990123637659313e-05  9.9020931983730937e-05  9.0485316384210807e-05  3.8447234241870408e-04  3.8634720426231495e-04  2.0711788271128120e-04  6.7859150524171628e-04  1.2103795241208133e-04  9.0084479962861081e-05  8.1354841061565087e-05  6.2494754423601174e-05  4.7909784466800578e-05  3.6535118684397063e-05  3.2003347703332243e-05  2.9746718782764326e-05  2.8487304281298915e-05  3.6890294705857117e-05  2.6825128542642959e-05  2.5972597929517362e-05  2.5173680489234956e-05  2.9598627364090911e-05  4.2072988505312252e-05  6.1598853454054907e-05  1.8230077413898898e-03  1.0910526558563075e-04  1.8171883642532750e-04  2.9492666476207193e-04  4.4063569570058475e-04  6.1130516940597680e-04  6.6259237288450348e-04  1.5182816441181769e-04  1.2241756605816165e-04  1.5274765165143532e-04  7.6029944238978353e-04  1.0865774396009745e-04  8.5267409128165667e-05  1.0435434241714027e-04  2.2420123667546966e-04  7.8458218768420111e-04  9.3992138270006641e-05  2.3339626195241891e-05  6.2609757957074298e-05  4.4293772321461403e-04  7.6544658257566190e-04  5.4493364935424154e-04  1.6371729053843363e-04  1.4170944708870304e-04  1.3496186008708696e-04  1.8009303921370673e-04  2.3433186127546019e-04  1.5614123492506619e-03  3.1134376686678985e-04  8.5175102505573785e-04  1.0857980330823301e-03  1.9401059023557859e-04  1.3663845999320795e-04  2.7448113257295773e-05  4.0768649103021523e-04  1.3339505247542293e-04  1.0561819988555000e-04  1.0579412804097819e-04  1.5304045934219933e-04  1.2471415918602164e-03  4.8493989352704997e-05  9.4573969915138443e-05  7.8212014842346425e-04  9.7972995600990247e-04  5.6248280062739575e-05  2.0903755572248428e-04  2.7907434612897062e-04  7.1595152680385013e-05  3.3150247082391622e-04  6.9059168480737352e-04  7.2005797600243737e-04  7.6531071232140461e-04  7.6502284291468981e-05  8.7845805660965049e-04  1.7131495253278365e-04  5.1254327579247061e-05  5.2265369126932290e-05  9.1708587231975993e-04  1.0051186080683497e-03  7.0080261590829305e-04  1.2344331632464794e-04  1.5801147926505215e-04  1.9674264904873192e-05  1.2314652147796601e-04  1.0914962329643550e-03  2.1191468197293643e-04  9.7753920509016006e-04  4.1490293978522775e-04  2.4084018360848153e-04  1.0802123275896784e-03  2.9044647710433675e-04  4.9371148781237131e-04  3.9248289781595286e-04  7.5658903027386382e-04  2.5407683308705383e-05  2.5118402412921127e-05  9.6174592422554729e-05  9.4582712521150186e-04  2.9760877786076320e-04  7.3821026980769398e-04  4.9511670117628509e-04  2.0511777438107713e-05  2.7334272536658845e-04  5.7320794532187834e-04  1.4428164580588561e-04  2.0562712448818085e-05  1.1285903754542018e-04  1.7634491806071267e-04  2.0965193182891787e-03  1.1595955877450976e-03  1.3038975965555726e-03  7.8654882699401372e-04  8.8665458511056022e-04  5.7536993008284933e-04  5.3273673797355338e-04  5.8674938999952943e-04  3.9868310921763471e-04  3.8295128530897157e-04  3.6771205625792634e-04  3.9854270333702441e-04  3.8441818453963550e-04  4.2985386190975560e-04  3.6477969913535321e-04  3.4058924799624943e-04  4.5582861212209241e-04  3.2505138134558784e-04  5.1178058488945185e-04  4.2839542187812053e-04  3.9991044204584612e-04  5.2038769387441038e-04  4.9403710980749265e-04  3.5850389589581032e-04  2.9850941493826867e-04  2.4603205511333255e-04  6.0694678436894309e-04  4.2862990339612086e-04  6.4366039413061714e-04  3.1504008866682371e-04  3.0079313232184932e-04  3.5988723853956270e-04  4.6166537805904495e-04  3.7239782290400753e-04  5.6608987192665054e-04  2.4699878732986094e-05  1.1682605508253373e-04  1.0451928841044599e-04  4.0209211176237176e-04  3.4681805522150623e-04  3.9778557544203517e-04  3.7217890812885800e-04  4.1950643858835248e-04  4.0161311512175056e-04  4.4808845112297917e-04  4.0587468311408740e-04  4.8130221222556960e-04  4.6122791057294607e-04  5.6049202243413203e-04  4.8260571573708228e-04  3.9220999501109524e-04  4.1897368337127239e-04  5.6913992195277896e-04  3.4320851839322240e-04  3.5726348996934095e-04  3.9000212898461137e-04  3.3381409461408283e-04  2.9622146895382818e-04  2.7096288975568143e-04  2.9321044728035009e-04  2.4556514939111346e-04  2.2853168525939659e-04  2.0989375253517483e-04  1.8920426537760108e-04  1.7648117295078058e-04  1.8687670143649089e-04  1.6285255610618167e-04  1.5939453310934864e-04  1.6196088086917117e-04  1.3712079914647948e-04  1.3431412743519016e-04  2.5044277265540908e-04  2.7866862863707098e-04  1.3694237217567451e-04  1.1861376094166597e-04  4.7583856201735206e-04  3.2442823073182024e-04  1.8711667939720641e-04  2.1935999318225389e-04  3.1859589412181415e-04  3.1919160755514424e-04  1.0573737438828235e-04  3.4933832762268675e-05  4.6252167232645913e-04  1.6008524673723860e-04  2.2986451083497705e-04  2.0749638285591434e-04  6.6745624105308068e-04  2.0650006538706680e-05  3.3022270590140291e-05  1.3498406332476451e-04  1.4633693703459610e-04  3.0423894832704273e-04  1.3864769025158678e-04  1.7792012912802785e-04  1.6937310876292920e-04  1.3707053450875655e-04  1.3676838553481317e-04  1.5841931825900916e-04  1.3310887666723251e-04  1.1425474220238134e-04  1.1217694210135712e-04  9.0253393385079806e-05  9.4676792865504628e-05  1.1101588863478043e-04  9.1859778895049941e-05  1.0624076421761318e-04  8.7790942066572739e-05  1.0094425512184651e-04  8.2879106274787965e-05  9.7758943158727165e-05  6.8603743684015906e-05  6.4056385528674426e-05  4.6713245246828506e-05  1.1195955406571619e-04  1.0676318995053255e-04  8.7022156577016077e-05  9.8461301947960428e-05  1.1837387193685232e-04  7.5022058752464320e-05  4.6103745927418061e-05  3.4320812415267096e-05  3.7842539276841188e-05  3.3869481492795359e-05  1.1925560457563499e-04  1.1817246428006352e-04  1.2120000062577205e-04  4.5900880434550194e-05  4.1806435181110324e-05  1.2296365340954660e-04  7.5931394669930663e-05  7.8654321046976706e-05  1.1462441321906372e-04  1.0955484210223202e-04  5.1511735242203243e-05  1.0087664631806150e-04  7.0923955062884828e-05  8.1738062350056686e-05  6.5675280359336411e-05  6.6326206423054148e-05  3.0673833147244306e-05  5.2813391091524201e-05  4.6418721028833490e-05  1.2134822510609898e-04  2.8685697183224564e-05  4.2508608422014390e-05  1.4435927896001998e-04  4.8485571187690103e-05  5.5721612996188054e-05  1.1270408728007977e-04  8.4749343050058762e-05  4.8564164454640706e-05  3.9453567887178420e-05  1.0612763208891023e-04  1.0132004990218429e-04  2.7934164979445823e-05  6.9204252820364413e-05  1.1047532317006142e-04  5.8436452709552904e-05  4.9232815029637922e-05  4.1980752387205640e-05  1.0617947970760533e-04  2.6311710996791856e-04  3.3296502357253336e-04  3.0002973080462477e-04  1.6018445354599409e-04  1.8281741207329386e-04  2.3653362658542936e-04  1.8165664333179944e-04  2.3257871082966414e-04  2.0185065840351126e-04  2.5355614653268404e-04  2.2175040267839421e-04  1.9060576717094507e-04  2.1345933754394935e-04  1.9687683611189276e-04  2.1468996309317138e-04  2.0098409150209079e-04  2.1340582667968205e-04  2.0365329445658451e-04  2.0342429296719899e-04  1.9398013696538661e-04  2.0943052008015177e-04  1.9380567970397322e-04  1.8627799592388044e-04  1.6914083821207830e-04  2.2934393342903441e-04  1.5419031360512981e-04  1.4413636772659104e-04  1.5716009458520945e-04  1.2491522804264335e-04  1.1936556823547897e-04  1.0130506371494142e-04  1.0098711222952584e-04  8.9161378209165438e-05  8.9465758582863298e-05  9.6872927114490407e-05  8.5991638422984682e-05  8.6053524202909024e-05  8.8163794221924097e-05  8.6896225356318258e-05  9.2320870784735954e-05  8.8801769846698629e-05  8.1842111370836998e-05  8.1652450224354878e-05  7.4019112923889841e-05  9.6459979820958194e-05  6.9143073478174159e-05  6.3062987675573557e-05  9.8859043400077758e-05  1.0240349821530330e-04  1.0248210538375913e-04  1.0444812826130018e-04  1.0430118907832528e-04  1.0209013003697627e-04  1.0060411107972470e-04  5.4303014718872420e-05  6.2411247214947402e-05  5.0767642989508598e-05  6.2479779967699798e-05  5.9653517560379550e-05  3.0395238575858493e-04  1.8567031012805402e-04  1.8016086201780486e-04  1.6558931183251139e-04  1.6246530478173857e-04  1.6115220258648737e-04  1.0265723268843356e-04  1.4843867745584940e-04  1.4754684381647186e-04  9.5610932968918200e-05  9.4868388298872914e-05  4.5553772656185854e-05  8.5651970679103092e-05  8.5052204749765291e-05  8.5950267757917227e-05  6.5512003775592664e-05  1.6703945054867604e-04  2.6265983816903574e-04  2.4573969826865137e-04  7.3770679829520091e-05  7.2785830825500359e-05  8.3750507269142547e-05  1.6973893983947719e-04  8.6791099829712466e-05  1.0305102892684199e-04  1.8052764965200313e-04  9.0182567770948351e-05  5.9701384128426228e-05  2.6646606481255775e-04  2.3487007505280276e-