<?xml version="1.0"?>
<VTKFile type="UnstructuredGrid"  version="0.1"  >
<UnstructuredGrid>
<Piece  NumberOfPoints="11925" NumberOfCells="22284">
<Points>
<DataArray  type="Float64"  NumberOfComponents="3"  format="ascii">0.009106770432969287 0.0084582340381214 0  0.009141919339108864 0.008441218550270694 0  0.009203598740601114 0.008393845335784609 0  0.009248431083532146 0.008349860421943302 0  0.009296575788899144 0.008291876136114247 0  0.00934265184641383 0.008225659869648794 0  0.009393578065451109 0.008122249398276498 0  0.009424875532860347 0.008002512562814071 0  0.009449530416649156 0.007942856790653622 0  0.009467776063564975 0.007776381909547738 0  0.009496347239411999 0.007611274617662952 0  0.009499145002853376 0.007525125628140703 0  0.009496347239411999 0.007464102266759158 0  0.009467776063564975 0.007298994974874372 0  0.009449530416649156 0.007132520093768488 0  0.009424875532860347 0.00707286432160804 0  0.009393578065451109 0.006953127486145613 0  0.00934265184641383 0.006849717014773317 0  0.009296575788899144 0.006783500748307864 0  0.009248431083532146 0.006725516462478808 0  0.009203598740601114 0.006681531548637502 0  0.009141919338909114 0.006634158334151417 0  0.009106770432902705 0.006617142873950686 0  0.009057788944723618 0.006598443490950575 0  0.009035429646949504 0.006603784476015589 0  0.009003273865471631 0.006637537337391888 0  0.008992706568800921 0.006658843167954558 0  0.008972489432160457 0.006721105527638192 0  0.008943689764150664 0.006775124298212487 0  0.008927575292032289 0.006821608040201005 0  0.008858421521121648 0.006940476521074617 0  0.008818283204798657 0.006994423939357116 0  0.008742251619928807 0.007081030046222233 0  0.008689386069399707 0.007127977288024682 0  0.00865169762718865 0.007155237400276061 0  0.008598593426450953 0.007187519986677493 0  0.008503029036046951 0.007258952469496642 0  0.008441469295249169 0.007286330637148408 0  0.008404275359722921 0.007310151607682054 0  0.008340789248380142 0.007336567990292792 0  0.008278894472361808 0.007370606062816746 0  0.008227853892241668 0.007385785667750049 0  0.008178391959798996 0.007406751625964 0  0.008013447788775593 0.00743563391875675 0  0.007952261306532662 0.007456731513377061 0  0.007902010050251256 0.007466988976395871 0  0.007550251256281408 0.00748107426496475 0  0.007173366834170854 0.007466988976395871 0  0.007123115577889447 0.007456731513377061 0  0.007061929095646517 0.00743563391875675 0  0.006896984924623115 0.007406751625964 0  0.006771663215364072 0.00735919225436318 0  0.006734587636041969 0.007336567990292792 0  0.006695979899497487 0.00732259899495977 0  0.006633907589172942 0.007286330637148408 0  0.00657234784837516 0.007258952469496642 0  0.006476783457971159 0.007187519986677493 0  0.006385990815022405 0.007127977288024682 0  0.006333125264493302 0.007081030046222233 0  0.006244530865553103 0.006978164963285671 0  0.006205048905315104 0.00692211055276382 0  0.006159330552520386 0.006845248264868939 0  0.006131687120271447 0.006775124298212487 0  0.006102887452261655 0.006721105527638192 0  0.006082670315621189 0.006658843167954558 0  0.006072103018950479 0.006637537337391888 0  0.006039947237472605 0.006603784476015589 0  0.006017587939698492 0.006598443490950575 0  0.005933457545512996 0.006634158334151417 0  0.005871778143820997 0.006681531548637502 0  0.005826945800889965 0.006725516462478808 0  0.005778801095522966 0.006783500748307864 0  0.005732725038008282 0.006849717014773317 0  0.005681798818971001 0.006953127486145613 0  0.005650501351561765 0.00707286432160804 0  0.005625846467772956 0.007132520093768488 0  0.005607600820857134 0.007298994974874372 0  0.005577737985543962 0.00747666508082951 0  0.005579029645010113 0.007611274617662952 0  0.005607600820857134 0.007776381909547738 0  0.005625846467772956 0.007942856790653622 0  0.005650501351561765 0.008002512562814071 0  0.005676707781126685 0.008109686584206147 0  0.005732725038008282 0.008225659869648794 0  0.005778801095522966 0.008291876136114247 0  0.00583916892901236 0.008362423236013654 0  0.005871778143820997 0.008393845335784609 0  0.005933457545313248 0.008441218550270694 0  0.005968606451452823 0.0084582340381214 0  0.006017587939698492 0.008476935349731016 0  0.006039947427631444 0.008471594355449344 0  0.006059540775356642 0.008452005488667369 0  0.006077635869842498 0.008429097268812035 0  0.006102887452261655 0.00835427135678392 0  0.006131687120271447 0.008300252586209624 0  0.006159330552520386 0.008230128619553171 0  0.006216955363300465 0.008134900363347493 0  0.006257093679623455 0.008080952945064994 0  0.006333125264493302 0.007994346838199877 0  0.006370813706704358 0.007959962410467781 0  0.00642367925723346 0.007920139484146049 0  0.006476783457971159 0.007887856897744617 0  0.00657234784837516 0.007816424414925468 0  0.006633907589172942 0.007789046247273704 0  0.006671101524699189 0.007765225276740057 0  0.006734587636041969 0.007738808894129319 0  0.006796482412060302 0.007704770821605365 0  0.00692211055276382 0.00766245157494053 0  0.007061929095646517 0.007639742965665362 0  0.007123115577889447 0.007618645371045051 0  0.007173366834170854 0.00760838790802624 0  0.007525125628140703 0.00759430261945736 0  0.007902010050251256 0.00760838790802624 0  0.007952261306532662 0.007618645371045051 0  0.008013447788775593 0.007639742965665362 0  0.00815326633165829 0.00766245157494053 0  0.008278894472361808 0.007704770821605365 0  0.008340789248380142 0.007738808894129319 0  0.008404275359722921 0.007765225276740057 0  0.008441469295249169 0.007789046247273704 0  0.008503029036046951 0.007816424414925468 0  0.008598593426450953 0.007887856897744617 0  0.00865169762718865 0.007920139484146049 0  0.008704563177717754 0.007959962410467781 0  0.008742251619928807 0.007994346838199877 0  0.008818283204798657 0.008080952945064994 0  0.008858421521121648 0.008134900363347493 0  0.008916046331901725 0.008230128619553171 0  0.008943689764150664 0.008300252586209624 0  0.008972489432160457 0.00835427135678392 0  0.008997741014579612 0.008429097268812035 0  0.009015836109065469 0.008452005488667369 0  0.009035429456790667 0.008471594355449344 0  0.009057788944723618 0.008476935349731016 0  0.000584560956065443 0.0006566731908302978 0  0.0004648241206030151 0.0006253757234210605 0  0.0006879714274377391 0.0007075994098675775 0  0.0004051683484425679 0.0006007208396322515 0  0.0007541876939031931 0.0007536754673822622 0  0.0002386934673366834 0.0005824751927164302 0  0.0008121719797322475 0.0008018201727492608 0  7.895734593675217e-05 0.0005538767054284305 0  0.000856156893573553 0.0008466525156802934 0  0 0.0005480494466900812 0  0.0009035301080596382 0.0009083319171725436 0  0 0 0  0.000939246867973806 0.0009924623115577891 0  0.01 0 0  0.0009339058736921331 0.001014821772831462 0  0.01 0.0005571664569146784 0  0.0008914087205285403 0.001052510215042517 0  0.009937185929648241 0.0005602048678154705 0  0.0008165829145728644 0.00107776182261448 0  0.009811557788944724 0.0005824755727250804 0  0.0007625641439985681 0.001106561492130742 0  0.00964508290783884 0.0006007208396322515 0  0.0006924401773421158 0.001134204924379682 0  0.009585427135678391 0.0006253757234210605 0  0.000597211921136439 0.001191829735159762 0  0.009478253114286317 0.0006515821529859823 0  0.0005055760606428836 0.00126320124586456 0  0.00937484264291402 0.0007001169347433132 0  0.0004537270030180498 0.001310933582424631 0  0.009296063562378215 0.0007536754673822622 0  0.0004097111541863734 0.001360865186881701 0  0.00923807927654916 0.0008018201727492608 0  0.0003501684555335619 0.001451657829830455 0  0.009194094362707853 0.0008466525156802934 0  0.0002787359727144142 0.001547222220234457 0  0.009146721148221768 0.0009083319171725436 0  0.0002513578050626486 0.001608781961032239 0  0.0091110043883076 0.0009924623115577891 0  0.0002275368345290006 0.001645975896558485 0  0.009116345382589274 0.001014821785907898 0  0.0002011204519182638 0.001709462007901265 0  0.009158842483081762 0.001052510228118953 0  0.0001670823793943093 0.001771356783919598 0  0.009233668341708544 0.001077761824120951 0  0.0001247631327294741 0.001896984924623115 0  0.009287687112282839 0.001106561492130742 0  0.0001020545234543062 0.002036803467505815 0  0.009357811078939291 0.001134204924379682 0  8.096507571907495e-05 0.002097989949748744 0  0.009453039335144969 0.001191829735159762 0  7.071342713566267e-05 0.002148241206030151 0  0.009544675195638523 0.00126320124586456 0  5.669507456120024e-05 0.0025 0  0.009596524253263357 0.001310933582424631 0  7.071342713566267e-05 0.002876884422110553 0  0.009640540102095033 0.001360865186881701 0  8.096507571907495e-05 0.00292713567839196 0  0.009700082800747845 0.001451657829830455 0  0.0001020545234543062 0.002988322160634889 0  0.009771515283566994 0.001547222220234457 0  0.0001247631327294741 0.003128140703517588 0  0.009798893451218758 0.001608781961032239 0  0.0001670823793943093 0.003253768844221106 0  0.009822714421752407 0.001645975896558485 0  0.0002011204519182638 0.003315663620239438 0  0.009849130804363143 0.001709462007901265 0  0.0002275368345290006 0.003379149731582219 0  0.009883168876887099 0.001771356783919598 0  0.0002513578050626486 0.003416343667108464 0  0.009925488123551932 0.001896984924623115 0  0.0002787359727144142 0.003477903407906247 0  0.009948196732827102 0.002036803467505815 0  0.0003501684555335619 0.003573467798310248 0  0.009969286180562333 0.002097989949748744 0  0.0004097111541863734 0.003664260441259002 0  0.009979537829145744 0.002148241206030151 0  0.0004537270030180498 0.003714192045716073 0  0.009993556181720207 0.0025 0  0.0005055760606428836 0.003761924382276144 0  0.009979537829145744 0.002876884422110553 0  0.000597211921136439 0.003833295892980942 0  0.009969286180562333 0.00292713567839196 0  0.0006924401773421158 0.003890920703761021 0  0.009948196732827102 0.002988322160634889 0  0.0007625641439985681 0.003918564136009961 0  0.009925488123551932 0.0031281407035175
[...]
<PointData  Tensors="$\sigma$"> 
<DataArray  type="Float64"  Name="$\sigma$"  NumberOfComponents="9" format="ascii">2.7312097197181322e+07 -1.3486045554099109e+07 0.0000000000000000e+00 -1.3486045554099103e+07 7.6308073381058751e+06 0.0000000000000000e+00 0.0000000000000000e+00 0.0000000000000000e+00 0.0000000000000000e+00  2.7987344387815524e+07 -1.9757119191092737e+07 0.0000000000000000e+00 -1.9757119191092733e+07 1.5515236130383603e+07 0.0000000000000000e+00 0.0000000000000000e+00 0.0000000000000000e+00 0.0000000000000000e+00  2.9805558665268369e+07 -2.6209597597348671e+07 0.0000000000000000e+00 -2.6209597597348671e+07 2.3957158188017450e+07 0.0000000000000000e+00 0.0000000000000000e+00 0.0000000000000000e+00 0.0000000000000000e+00  2.8777115842732891e+07 -3.1018268343570501e+07 0.0000000000000000e+00 -3.1018268343570493e+07 3.4894186975985222e+07 0.0000000000000000e+00 0.0000000000000000e+00 0.0000000000000000e+00 0.0000000000000000e+00  2.3706505047758989e+07 -2.9708524347524174e+07 0.0000000000000000e+00 -2.9708524347524174e+07 4.4049730625263818e+07 0.0000000000000000e+00 0.0000000000000000e+00 0.0000000000000000e+00 0.0000000000000000e+00  2.0039719166101001e+07 -3.4535112583611205e+07 0.0000000000000000e+00 -3.4535112583611205e+07 6.1163103120046653e+07 0.0000000000000000e+00 0.0000000000000000e+00 0.0000000000000000e+00 0.0000000000000000e+00  1.1341725044715164e+07 -2.4503066889770780e+07 0.0000000000000000e+00 -2.4503066889770780e+07 6.5163472704951912e+07 0.0000000000000000e+00 0.0000000000000000e+00 0.0000000000000000e+00 0.0000000000000000e+00  4.7118793672318347e+06 -2.1243574667865276e+07 0.0000000000000000e+00 -2.1243574667865276e+07 7.6816579425166517e+07 0.0000000000000000e+00 0.0000000000000000e+00 0.0000000000000000e+00 0.0000000000000000e+00  4.2553349408237161e+06 -1.7639664905386534e+07 0.0000000000000000e+00 -1.7639664905386534e+07 7.9816681549925625e+07 0.0000000000000000e+00 0.0000000000000000e+00 0.0000000000000000e+00 0.0000000000000000e+00  9.5052875860329357e+05 -1.0227496485156661e+07 0.0000000000000000e+00 -1.0227496485156661e+07 7.1753902622092918e+07 0.0000000000000000e+00 0.0000000000000000e+00 0.0000000000000000e+00 0.0000000000000000e+00  3.6228565889726747e+06 -9.0913466238065176e+06 0.0000000000000000e+00 -9.0913466238065157e+06 7.9184821459487855e+07 0.0000000000000000e+00 0.0000000000000000e+00 0.0000000000000000e+00 0.0000000000000000e+00  2.7277513820493165e+06 -1.5553444945243280e+05 0.0000000000000000e+00 -1.5553444945243283e+05 9.9051746323088542e+07 0.0000000000000000e+00 0.0000000000000000e+00 0.0000000000000000e+00 0.0000000000000000e+00  1.0066497174315025e+06 6.6273000379979340e+06 0.0000000000000000e+00 6.6273000379979350e+06 7.6008332743016765e+07 0.0000000000000000e+00 0.0000000000000000e+00 0.0000000000000000e+00 0.0000000000000000e+00  -2.2720080887257814e+05 7.8226084302890636e+06 0.0000000000000000e+00 7.8226084302890599e+06 6.2626188210141033e+07 0.0000000000000000e+00 0.0000000000000000e+00 0.0000000000000000e+00 0.0000000000000000e+00  3.2875390562362997e+06 1.2076068776937276e+07 0.0000000000000000e+00 1.2076068776937282e+07 6.4449885844267897e+07 0.0000000000000000e+00 0.0000000000000000e+00 0.0000000000000000e+00 0.0000000000000000e+00  4.2479391925143963e+06 1.6476664730083685e+07 0.0000000000000000e+00 1.6476664730083667e+07 5.8298266041781738e+07 0.0000000000000000e+00 0.0000000000000000e+00 0.0000000000000000e+00 0.0000000000000000e+00  7.1567688334935168e+06 1.7027314979962807e+07 0.0000000000000000e+00 1.7027314979962807e+07 4.7991039780447736e+07 0.0000000000000000e+00 0.0000000000000000e+00 0.0000000000000000e+00 0.0000000000000000e+00  1.1980308745976780e+07 2.1252840134239752e+07 0.0000000000000000e+00 2.1252840134239744e+07 3.8555785472333677e+07 0.0000000000000000e+00 0.0000000000000000e+00 0.0000000000000000e+00 0.0000000000000000e+00  1.1151751218264058e+07 1.5237349372974731e+07 0.0000000000000000e+00 1.5237349372974733e+07 2.4766768938808464e+07 0.0000000000000000e+00 0.0000000000000000e+00 0.0000000000000000e+00 0.0000000000000000e+00  1.2495966955115007e+07 1.3687663180481873e+07 0.0000000000000000e+00 1.3687663180481868e+07 1.6523348754762698e+07 0.0000000000000000e+00 0.0000000000000000e+00 0.0000000000000000e+00 0.0000000000000000e+00  7.4219796630474338e+06 7.4701531856241478e+06 0.0000000000000000e+00 7.4701531856241440e+06 7.5605553292096565e+06 0.0000000000000000e+00 0.0000000000000000e+00 0.0000000000000000e+00 0.0000000000000000e+00  1.6677483717786783e+05 1.5970858805935562e+06 0.0000000000000000e+00 1.5970858805935562e+06 1.9739646251409373e+06 0.0000000000000000e+00 0.0000000000000000e+00 0.0000000000000000e+00 0.0000000000000000e+00  -1.3294613154866539e+07 -7.1015537576583689e+06 0.0000000000000000e+00 -7.1015537576583698e+06 6.8728378792190016e+05 0.0000000000000000e+00 0.0000000000000000e+00 0.0000000000000000e+00 0.0000000000000000e+00  -6.4962286561923936e+07 4.0690875124267461e+06 0.0000000000000000e+00 4.0690875124267484e+06 -5.4154587161471834e+06 0.0000000000000000e+00 0.0000000000000000e+00 0.0000000000000000e+00 0.0000000000000000e+00  -8.4915287416966021e+07 4.8037272868772402e+07 0.0000000000000000e+00 4.8037272868772402e+07 -3.6322730382974632e+07 0.0000000000000000e+00 0.0000000000000000e+00 0.0000000000000000e+00 0.0000000000000000e+00  -3.7758459016370468e+07 5.2131958637562148e+07 0.0000000000000000e+00 5.2131958637562148e+07 -7.6025547989084899e+07 0.0000000000000000e+00 0.0000000000000000e+00 0.0000000000000000e+00 0.0000000000000000e+00  -1.4486739530567868e+07 3.0195388569279935e+07 0.0000000000000000e+00 3.0195388569279935e+07 -7.2947177184312984e+07 0.0000000000000000e+00 0.0000000000000000e+00 0.0000000000000000e+00 0.0000000000000000e+00  -9.5969884795904439e+06 2.3764123735061008e+07 0.0000000000000000e+00 2.3764123735061008e+07 -5.4294133092129715e+07 0.0000000000000000e+00 0.0000000000000000e+00 0.0000000000000000e+00 0.0000000000000000e+00  -1.0317243075878216e+07 2.3286309365587704e+07 0.0000000000000000e+00 2.3286309365587704e+07 -5.2608312091206402e+07 0.0000000000000000e+00 0.0000000000000000e+00 0.0000000000000000e+00 0.0000000000000000e+00  -1.0780283130101888e+07 2.4455784567336164e+07 0.0000000000000000e+00 2.4455784567336164e+07 -4.5344775097923279e+07 0.0000000000000000e+00 0.0000000000000000e+00 0.0000000000000000e+00 0.0000000000000000e+00  -1.5061620328317957e+07 2.5347702429696541e+07 0.0000000000000000e+00 2.5347702429696541e+07 -3.9854010773681156e+07 0.0000000000000000e+00 0.0000000000000000e+00 0.0000000000000000e+00 0.0000000000000000e+00  -2.2574812873246208e+07 2.8438182946105428e+07 0.0000000000000000e+00 2.8438182946105428e+07 -3.2187800172060397e+07 0.0000000000000000e+00 0.0000000000000000e+00 0.0000000000000000e+00 0.0000000000000000e+00  -2.5224514797979407e+07 2.7752520102615885e+07 0.0000000000000000e+00 2.7752520102615885e+07 -2.7510219434371017e+07 0.0000000000000000e+00 0.0000000000000000e+00 0.0000000000000000e+00 0.0000000000000000e+00  -3.1362984717625070e+07 2.5840341343954120e+07 0.0000000000000000e+00 2.5840341343954120e+07 -1.9814282608463094e+07 0.0000000000000000e+00 0.0000000000000000e+00 0.0000000000000000e+00 0.0000000000000000e+00  -4.1762031097757034e+07 2.9940298654629696e+07 0.0000000000000000e+00 2.9940298654629696e+07 -1.9169071485582400e+07 0.0000000000000000e+00 0.0000000000000000e+00 0.0000000000000000e+00 0.0000000000000000e+00  -4.4173226767462008e+07 3.0571722028374288e+07 0.0000000000000000e+00 3.0571722028374281e+07 -2.1895365639467213e+07 0.0000000000000000e+00 0.0000000000000000e+00 0.0000000000000000e+00 0.0000000000000000e+00  -4.1743187155492499e+07 2.7417062705229454e+07 0.0000000000000000e+00 2.7417062705229454e+07 -1.5451120082716282e+07 0.0000000000000000e+00 0.0000000000000000e+00 0.0000000000000000e+00 0.0000000000000000e+00  -4.8192335076464482e+07 2.5018290558696065e+07 0.0000000000000000e+00 2.5018290558696065e+07 -1.2810571963152790e+07 0.0000000000000000e+00 0.0000000000000000e+00 0.0000000000000000e+00 0.0000000000000000e+00  -5.0859446528957568e+07 2.4913978499475960e+07 0.0000000000000000e+00 2.4913978499475960e+07 -1.1634151533225561e+07 0.0000000000000000e+00 0.0000000000000000e+00 0.0000000000000000e+00 0.0000000000000000e+00  -4.8261650487018473e+07 2.3022871714738224e+07 0.0000000000000000e+00 2.3022871714738224e+07 -1.0136038230420616e+07 0.0000000000000000e+00 0.0000000000000000e+00 0.0000000000000000e+00 0.0000000000000000e+00  -4.7363991529706933e+07 1.9355307761531018e+07 0.0000000000000000e+00 1.9355307761531033e+07 -8.6668856716178991e+06 0.0000000000000000e+00 0.0000000000000000e+00 0.0000000000000000e+00 0.0000000000000000e+00  -4.4757565115155809e+07 1.8772495410882719e+07 0.0000000000000000e+00 1.8772495410882711e+07 -5.4752479282187587e+06 0.0000000000000000e+00 0.0000000000000000e+00 0.0000000000000000e+00 0.0000000000000000e+00  -5.2277935123739250e+07 1.2017164481493689e+07 0.0000000000000000e+00 1.2017164481493695e+07 -3.1431274293559357e+06 0.0000000000000000e+00 0.0000000000000000e+00 0.0000000000000000e+00 0.0000000000000000e+00  -5.6308465896507166e+07 1.0894497640946781e+07 0.0000000000000000e+00 1.0894497640946787e+07 -1.1549455975491095e+06 0.0000000000000000e+00 0.0000000000000000e+00 0.0000000000000000e+00 0.0000000000000000e+00  -5.7463127535326265e+07 1.6327805145234337e+07 0.0000000000000000e+00 1.6327805145234341e+07 -6.7095043254545014e+06 0.0000000000000000e+00 0.0000000000000000e+00 0.0000000000000000e+00 0.0000000000000000e+00  -5.6228328807960659e+07 7.2053121403157292e+06 0.0000000000000000e+00 7.2053121403157273e+06 9.4990379353143424e+06 0.0000000000000000e+00 0.0000000000000000e+00 0.0000000000000000e+00 0.0000000000000000e+00  -4.8936876439775981e+07 -1.4745932124327490e+05 0.0000000000000000e+00 -1.4745932124327504e+05 1.5335902128140521e+06 0.0000000000000000e+00 0.0000000000000000e+00 0.0000000000000000e+00 0.0000000000000000e+00  -4.9812226705310017e+07 -7.3466393049575267e+06 0.0000000000000000e+00 -7.3466393049575211e+06 9.8480930093445051e+06 0.0000000000000000e+00 0.0000000000000000e+00 0.0000000000000000e+00 0.0000000000000000e+00  -4.9475164886016801e+07 -1.3957475367745118e+07 0.0000000000000000e+00 -1.3957475367745129e+07 -5.2694819536313759e+06 0.0000000000000000e+00 0.0000000000000000e+00 0.0000000000000000e+00 0.0000000000000000e+00  -4.7994819842777506e+07 -9.0089944779556636e+06 0.0000000000000000e+00 -9.0089944779556543e+06 -1.2046050112219157e+06 0.0000000000000000e+00 0.0000000000000000e+00 0.0000000000000000e+00 0.0000000000000000e+00  -3.9564384765890494e+07 -1.1146476771026729e+07 0.0000000000000000e+00 -1.1146476771026738e+07 -2.0139276348776363e+06 0.0000000000000000e+00 0.0000000000000000e+00 0.0000000000000000e+00 0.0000000000000000e+00  -3.4119088860724777e+07 -1.5637954856075060e+07 0.0000000000000000e+00 -1.5637954856075061e+07 -6.8926209649347896e+06 0.0000000000000000e+00 0.0000000000000000e+00 0.0000000000000000e+00 0.0000000000000000e+00  -3.8157101900434867e+07 -1.8937524458788492e+07 0.0000000000000000e+00 -1.8937524458788481e+07 -9.0384631754383724e+06 0.0000000000000000e+00 0.0000000000000000e+00 0.0000000000000000e+00 0.0000000000000000e+00  -3.6916883415501624e+07 -1.8579163792370152e+07 0.0000000000000000e+00 -1.8579163792370155e+07 -9.4801821639162917e+06 0.0000000000000000e+00 0.0000000000000000e+00 0.0000000000000000e+00 0.0000000000000000e+00  -3.4653011864587836e+07 -1.8354856042747021e+07 0.0000000000000000e+00 -1.8354856042747021e+07 -8.5132278253518716e+06 0.0000000000000000e+00 0.0000000000000000e+00 0.0000000000000000e+00 0.0000000000000000e+00  -3.0894017698910732e+07 -2.0130188851209771e+07 0.0000000000000000e+00 -2.0130188851209771e+07 -1.2279118205426671e+07 0.0000000000000000e+00 0.0000000000000000e+00 0.0000000000000000e+00 0.0000000000000000e+00  -2.8665345393467855e+07 -2.1226348264077768e+07 0.0000000000000000e+00 -2.1226348264077768e+07 -1.3790679466584969e+07 0.0000000000000000e+00 0.0000000000000000e+00 0.0000000000000000e+00 0.0000000000000000e+00  -2.6394582349332377e+07 -1.9897189852070849e+07 0.0000000000000000e+00 -1.9897189852070849e+07 -1.4005314478443215e+07 0.0000000000000000e+00 0.0000000000000000e+00 0.0000000000000000e+00 0.0000000000000000e+00  -1.6890717404695474e+07 -1.9002662114176188e+07 0.0000000000000000e+00 -1.9002662114176188e+07 -1.8742792283861566e+07 0.0000000000000000e+00 0.0000000000000000e+00 0.0000000000000000e+00 0.0000000000000000e+00  -1.4821232386132067e+07 -1.9745063026094906e+07 0.0000000000000000e+00 -1.9745063026094906e+07 -2.3210575679219943e+07 0.0000000000000000e+00 0.0000000000000000e+00 0.0000000000000000e+00 0.0000000000000000e+00  -1.0710395716937743e+07 -1.7788083748708427e+07 0.0000000000000000e+00 -1.7788083748708427e+07 -2.7732463804080069e+07 0.0000000000000000e+00 0.0000000000000000e+00 0.0000000000000000e+00 0.0000000000000000e+00  -7.8533605947862584e+06 -1.6999615849052303e+07 0.0000000000000000e+00 -1.6999615849052303e+07 -3.1562801432069380e+07 0.0000000000000000e+00 0.0000000000000000e+00 0.0000000000000000e+00 0.0000000000000000e+00  -8.4798612682247311e+06 -1.8013441912541054e+07 0.0000000000000000e+00 -1.8013441912541054e+07 -3.7187973534796394e+07 0.0000000000000000e+00 0.0000000000000000e+00 0.0000000000000000e+00 0.0000000000000000e+00  -6.2412669493276132e+06 -1.6770409564882269e+07 0.0000000000000000e+00 -1.6770409564882269e+07 -3.9307824944025569e+07 0.0000000000000000e+00 0.0000000000000000e+00 0.0000000000000000e+00 0.0000000000000000e+00  -9.9679313511941619e+06 -2.0730070659641460e+07 0.0000000000000000e+00 -2.0730070659641460e+07 -4.8960388992776752e+07 0.0000000000000000e+00 0.0000000000000000e+00 0.0000000000000000e+00 0.0000000000000000e+00  -2.0658156460280098e+07 -2.9178027681352317e+07 0.0000000000000000e+00 -2.9178027681352317e+07 -4.7274154594848692e+07 0.0000000000000000e+00 0.0000000000000000e+00 0.0000000000000000e+00 0.0000000000000000e+00  -1.5221103829461787e+07 -1.8324909600482728e+07 0.0000000000000000e+00 -1.8324909600482728e+07 -2.0723002928932417e+07 0.0000000000000000e+00 0.0000000000000000e+00 0.0000000000000000e+00 0.0000000000000000e+00  3.0587292472923957e+07 -1.8003788739166785e+07 0.0000000000000000e+00 -1.8003788739166785e+07 6.9708889458420938e+06 0.0000000000000000e+00 0.0000000000000000e+00 0.0000000000000000e+00 0.0000000000000000e+00  4.5621786240065113e+07 -3.0350522365352135e+07 0.0000000000000000e+00 -3.0350522365352135e+07 2.4217194167519990e+07 0.0000000000000000e+00 0.0000000000000000e+00 0.0000000000000000e+00 0.0000000000000000e+00  5.3811028411038250e+07 -4.8366716848201782e+07 0.0000000000000000e+00 -4.8366716848201789e+07 4.4681031943809450e+07 0.0000000000000000e+00 0.0000000000000000e+00 0.0000000000000000e+00 0.0000000000000000e+00  4.7070734398700088e+07 -5.1576163135874540e+07 0.0000000000000000e+00 -5.1576163135874555e+07 6.0575963153763086e+07 0.0000000000000000e+00 0.0000000000000000e+00 0.0000000000000000e+00 0.0000000000000000e+00  4.3452200581385650e+07 -5.6934131124651209e+07 0.0000000000000000e+00 -5.6934131124651201e+07 7.8389358110243663e+07 0.0000000000000000e+00 0.0000000000000000e+00 0.0000000000000000e+00 0.0000000000000000e+00  3.2532429685425103e+07 -5.6675132853280649e+07 0.0000000000000000e+00 -5.6675132853280649e+07 1.0507262698725234e+08 0.0000000000000000e+00 0.0000000000000000e+00 0.0000000000000000e+00 0.0000000000000000e+00  1.8892948394247595e+07 -4.1259562065856405e+07 0.0000000000000000e+00 -4.1259562065856427e+07 1.0861411416756418e+08 0.0000000000000000e+00 0.0000000000000000e+00 0.0000000000000000e+00 0.0000000000000000e+00  7.3851474764834568e+06 -3.3920549137315527e+07 0.0000000000000000e+00 -3.3920549137315519e+07 1.2417909458422330e+08 0.0000000000000000e+00 0.0000000000000000e+00 0.0000000000000000e+00 0.0000000000000000e+00  7.2307992722523948e+06 -2.8383370630586386e+07 0.0000000000000000e+00 -2.8383370630586386e+07 1.2286560374703006e+08 0.0000000000000000e+00 0.0000000000000000e+00 0.0000000000000000e+00 0.0000000000000000e+00  1.2902006015012234e+06 -1.6841251892603371e+07 0.0000000000000000e+00 -1.6841251892603371e+07 1.1197150593208486e+08 0.0000000000000000e+00 0.0000000000000000e+00 0.0000000000000000e+00 0.0000000000000000e+00  5.8305594653016459e+06 -7.2846774569510790e+06 0.0000000000000000e+00 -7.2846774569510790e+06 1.0653787168402828e+08 0.0000000000000000e+00 0.0000000000000000e+00 0.0000000000000000e+00 0.0000000000000000e+00  6.4525809950791742e+05 1.1055188826875359e+07 0.0000000000000000e+00 1.1055188826875359e+07 1.1224117552771597e+08 0.0000000000000000e+00 0.0000000000000000e+00 0.0000000000000000e+00 0.0000000000000000e+00  1.1518038453662714e+06 8.7126104350261204e+06 0.0000000000000000e+00 8.7126104350261204e+06 7.7600934879223600e+07 0.0000000000000000e+00 0.0000000000000000e+00 0.0000000000000000e+00 0.0000000000000000e+00  3.0895403057666756e+06 1.4116919765589628e+07 0.0000000000000000e+00 1.4116919765589628e+07 7.1673162524584591e+07 0.0000000000000000e+00 0.0000000000000000e+00 0.0000000000000000e+00 0.0000000000000000e+00  3.7859362337532556e+06 1.5393524345369924e+07 0.0000000000000000e+00 1.5393524345369924e+07 5.7685618434225231e+07 0.0000000000000000e+00 0.0000000000000000e+00 0.0000000000000000e+00 0.0000000000000000e+00  3.6213625192522090e+06 1.1640881371426823e+07 0.0000000000000000e+00 1.1640881371426823e+07 3.7152555261038959e+07 0.0000000000000000e+00 0.0000000000000000e+00 0.0000000000000000e+00 0.0000000000000000e+00  5.6815732779843523e+05 5.5872828814996965e+06 0.0000000000000000e+00 5.5872828814996965e+06 1.6640671125278508e+07 0.0000000000000000e+00 0.0000000000000000e+00 0.0000000000000000e+00 0.0000000000000000e+00  -6.6315598031064980e+06 -7.1503964826821676e+06 0.0000000000000000e+00 -7.1503964826821676e+06 -4.6206328814155832e+06 0.0000000000000000e+00 0.0000000000000000e+00 0.0000000000000000e+00 0.0000000000000000e+00  -1.9286917527111065e+07 -1.9084289411252279e+07 0.0000000000000000e+00 -1.9084289411252279e+07 -1.8755524309292380e+07 0.0000000000000000e+00 0.0000000000000000e+00 0.0000000000000000e+00 0.0000000000000000e+00  -4.2930118788855717e+07 -3.1658135625089720e+07 0.0000000000000000e+00 -3.1658135625089720e+07 -2.3334898695205893e+07 0.0000000000000000e+00 0.0000000000000000e+00 0.0000000000000000e+00 0.0000000000000000e+00  -7.6805150340047807e+07 -4.3035783570512593e+07 0.0000000000000000e+00 -4.3035783570512593e+07 -2.7349004688593790e+07 0.0000000000000000e+00 0.0000000000000000e+00 0.0000000000000000e+00 0.0000000000000000e+00  -1.2971165413494888e+08 -4.8939089662108228e+07 0.0000000000000000e+00 -4.8939089662108228e+07 -1.6192677950479435e+07 0.0000000000000000e+00 0.0000000000000000e+00 0.0000000000000000e+00 0.0000000000000000e+00  -2.3400686972300276e+08 -5.3131079533158233e+06 0.0000000000000000e+00 -5.3131079533158252e+06 -1.9102723170910936e+07 0.0000000000000000e+00 0.0000000000000000e+00 0.0000000000000000e+00 0.0000000000000000e+00  -2.1871157074189216e+08 9.0957489776106805e+07 0.0000000000000000e+00 9.0957489776106790e+07 -6.1332405049890585e+07 0.0000000000000000e+00 0.0000000000000000e+00 0.0000000000000000e+00 0.0000000000000000e+00  -7.4857328690810263e+07 7.5400561500259206e+07 0.0000000000000000e+00 7.5400561500259206e+07 -7.7514018703790635e+07 0.0000000000000000e+00 0.0000000000000000e+00 0.0000000000000000e+00 0.0000000000000000e+00  -2.1923182334642369e+07 3.0000344824006442e+07 0.0000000000000000e+00 3.0000344824006442e+07 -4.7171389506060988e+07 0.0000000000000000e+00 0.0000000000000000e+00 0.0000000000000000e+00 0.0000000000000000e+00  -3.8508032776344880e+06 1.2179241496400733e+07 0.0000000000000000e+00 1.2179241496400733e+07 -2.5385517162887819e+07 0.0000000000000000e+00 0.0000000000000000e+00 0.0000000000000000e+00 0.0000000000000000e+00  -3.1920802302196072e+06 6.5087680746551575e+06 0.0000000000000000e+00 6.5087680746551575e+06 -1.3604158599645095e+07 0.0000