<?xml version="1.0"?>
<VTKFile type="UnstructuredGrid"  version="0.1"  >
<UnstructuredGrid>
<Piece  NumberOfPoints="11925" NumberOfCells="22284">
<Points>
<DataArray  type="Float64"  NumberOfComponents="3"  format="ascii">0.009106770432969287 0.0084582340381214 0  0.009141919339108864 0.008441218550270694 0  0.009203598740601114 0.008393845335784609 0  0.009248431083532146 0.008349860421943302 0  0.009296575788899144 0.008291876136114247 0  0.00934265184641383 0.008225659869648794 0  0.009393578065451109 0.008122249398276498 0  0.009424875532860347 0.008002512562814071 0  0.009449530416649156 0.007942856790653622 0  0.009467776063564975 0.007776381909547738 0  0.009496347239411999 0.007611274617662952 0  0.009499145002853376 0.007525125628140703 0  0.009496347239411999 0.007464102266759158 0  0.009467776063564975 0.007298994974874372 0  0.009449530416649156 0.007132520093768488 0  0.009424875532860347 0.00707286432160804 0  0.009393578065451109 0.006953127486145613 0  0.00934265184641383 0.006849717014773317 0  0.009296575788899144 0.006783500748307864 0  0.009248431083532146 0.006725516462478808 0  0.009203598740601114 0.006681531548637502 0  0.009141919338909114 0.006634158334151417 0  0.009106770432902705 0.006617142873950686 0  0.009057788944723618 0.006598443490950575 0  0.009035429646949504 0.006603784476015589 0  0.009003273865471631 0.006637537337391888 0  0.008992706568800921 0.006658843167954558 0  0.008972489432160457 0.006721105527638192 0  0.008943689764150664 0.006775124298212487 0  0.008927575292032289 0.006821608040201005 0  0.008858421521121648 0.006940476521074617 0  0.008818283204798657 0.006994423939357116 0  0.008742251619928807 0.007081030046222233 0  0.008689386069399707 0.007127977288024682 0  0.00865169762718865 0.007155237400276061 0  0.008598593426450953 0.007187519986677493 0  0.008503029036046951 0.007258952469496642 0  0.008441469295249169 0.007286330637148408 0  0.008404275359722921 0.007310151607682054 0  0.008340789248380142 0.007336567990292792 0  0.008278894472361808 0.007370606062816746 0  0.008227853892241668 0.007385785667750049 0  0.008178391959798996 0.007406751625964 0  0.008013447788775593 0.00743563391875675 0  0.007952261306532662 0.007456731513377061 0  0.007902010050251256 0.007466988976395871 0  0.007550251256281408 0.00748107426496475 0  0.007173366834170854 0.007466988976395871 0  0.007123115577889447 0.007456731513377061 0  0.007061929095646517 0.00743563391875675 0  0.006896984924623115 0.007406751625964 0  0.006771663215364072 0.00735919225436318 0  0.006734587636041969 0.007336567990292792 0  0.006695979899497487 0.00732259899495977 0  0.006633907589172942 0.007286330637148408 0  0.00657234784837516 0.007258952469496642 0  0.006476783457971159 0.007187519986677493 0  0.006385990815022405 0.007127977288024682 0  0.006333125264493302 0.007081030046222233 0  0.006244530865553103 0.006978164963285671 0  0.006205048905315104 0.00692211055276382 0  0.006159330552520386 0.006845248264868939 0  0.006131687120271447 0.006775124298212487 0  0.006102887452261655 0.006721105527638192 0  0.006082670315621189 0.006658843167954558 0  0.006072103018950479 0.006637537337391888 0  0.006039947237472605 0.006603784476015589 0  0.006017587939698492 0.006598443490950575 0  0.005933457545512996 0.006634158334151417 0  0.005871778143820997 0.006681531548637502 0  0.005826945800889965 0.006725516462478808 0  0.005778801095522966 0.006783500748307864 0  0.005732725038008282 0.006849717014773317 0  0.005681798818971001 0.006953127486145613 0  0.005650501351561765 0.00707286432160804 0  0.005625846467772956 0.007132520093768488 0  0.005607600820857134 0.007298994974874372 0  0.005577737985543962 0.00747666508082951 0  0.005579029645010113 0.007611274617662952 0  0.005607600820857134 0.007776381909547738 0  0.005625846467772956 0.007942856790653622 0  0.005650501351561765 0.008002512562814071 0  0.005676707781126685 0.008109686584206147 0  0.005732725038008282 0.008225659869648794 0  0.005778801095522966 0.008291876136114247 0  0.00583916892901236 0.008362423236013654 0  0.005871778143820997 0.008393845335784609 0  0.005933457545313248 0.008441218550270694 0  0.005968606451452823 0.0084582340381214 0  0.006017587939698492 0.008476935349731016 0  0.006039947427631444 0.008471594355449344 0  0.006059540775356642 0.008452005488667369 0  0.006077635869842498 0.008429097268812035 0  0.006102887452261655 0.00835427135678392 0  0.006131687120271447 0.008300252586209624 0  0.006159330552520386 0.008230128619553171 0  0.006216955363300465 0.008134900363347493 0  0.006257093679623455 0.008080952945064994 0  0.006333125264493302 0.007994346838199877 0  0.006370813706704358 0.007959962410467781 0  0.00642367925723346 0.007920139484146049 0  0.006476783457971159 0.007887856897744617 0  0.00657234784837516 0.007816424414925468 0  0.006633907589172942 0.007789046247273704 0  0.006671101524699189 0.007765225276740057 0  0.006734587636041969 0.007738808894129319 0  0.006796482412060302 0.007704770821605365 0  0.00692211055276382 0.00766245157494053 0  0.007061929095646517 0.007639742965665362 0  0.007123115577889447 0.007618645371045051 0  0.007173366834170854 0.00760838790802624 0  0.007525125628140703 0.00759430261945736 0  0.007902010050251256 0.00760838790802624 0  0.007952261306532662 0.007618645371045051 0  0.008013447788775593 0.007639742965665362 0  0.00815326633165829 0.00766245157494053 0  0.008278894472361808 0.007704770821605365 0  0.008340789248380142 0.007738808894129319 0  0.008404275359722921 0.007765225276740057 0  0.008441469295249169 0.007789046247273704 0  0.008503029036046951 0.007816424414925468 0  0.008598593426450953 0.007887856897744617 0  0.00865169762718865 0.007920139484146049 0  0.008704563177717754 0.007959962410467781 0  0.008742251619928807 0.007994346838199877 0  0.008818283204798657 0.008080952945064994 0  0.008858421521121648 0.008134900363347493 0  0.008916046331901725 0.008230128619553171 0  0.008943689764150664 0.008300252586209624 0  0.008972489432160457 0.00835427135678392 0  0.008997741014579612 0.008429097268812035 0  0.009015836109065469 0.008452005488667369 0  0.009035429456790667 0.008471594355449344 0  0.009057788944723618 0.008476935349731016 0  0.000584560956065443 0.0006566731908302978 0  0.0004648241206030151 0.0006253757234210605 0  0.0006879714274377391 0.0007075994098675775 0  0.0004051683484425679 0.0006007208396322515 0  0.0007541876939031931 0.0007536754673822622 0  0.0002386934673366834 0.0005824751927164302 0  0.0008121719797322475 0.0008018201727492608 0  7.895734593675217e-05 0.0005538767054284305 0  0.000856156893573553 0.0008466525156802934 0  0 0.0005480494466900812 0  0.0009035301080596382 0.0009083319171725436 0  0 0 0  0.000939246867973806 0.0009924623115577891 0  0.01 0 0  0.0009339058736921331 0.001014821772831462 0  0.01 0.0005571664569146784 0  0.0008914087205285403 0.001052510215042517 0  0.009937185929648241 0.0005602048678154705 0  0.0008165829145728644 0.00107776182261448 0  0.009811557788944724 0.0005824755727250804 0  0.0007625641439985681 0.001106561492130742 0  0.00964508290783884 0.0006007208396322515 0  0.0006924401773421158 0.001134204924379682 0  0.009585427135678391 0.0006253757234210605 0  0.000597211921136439 0.001191829735159762 0  0.009478253114286317 0.0006515821529859823 0  0.0005055760606428836 0.00126320124586456 0  0.00937484264291402 0.0007001169347433132 0  0.0004537270030180498 0.001310933582424631 0  0.009296063562378215 0.0007536754673822622 0  0.0004097111541863734 0.001360865186881701 0  0.00923807927654916 0.0008018201727492608 0  0.0003501684555335619 0.001451657829830455 0  0.009194094362707853 0.0008466525156802934 0  0.0002787359727144142 0.001547222220234457 0  0.009146721148221768 0.0009083319171725436 0  0.0002513578050626486 0.001608781961032239 0  0.0091110043883076 0.0009924623115577891 0  0.0002275368345290006 0.001645975896558485 0  0.009116345382589274 0.001014821785907898 0  0.0002011204519182638 0.001709462007901265 0  0.009158842483081762 0.001052510228118953 0  0.0001670823793943093 0.001771356783919598 0  0.009233668341708544 0.001077761824120951 0  0.0001247631327294741 0.001896984924623115 0  0.009287687112282839 0.001106561492130742 0  0.0001020545234543062 0.002036803467505815 0  0.009357811078939291 0.001134204924379682 0  8.096507571907495e-05 0.002097989949748744 0  0.009453039335144969 0.001191829735159762 0  7.071342713566267e-05 0.002148241206030151 0  0.009544675195638523 0.00126320124586456 0  5.669507456120024e-05 0.0025 0  0.009596524253263357 0.001310933582424631 0  7.071342713566267e-05 0.002876884422110553 0  0.009640540102095033 0.001360865186881701 0  8.096507571907495e-05 0.00292713567839196 0  0.009700082800747845 0.001451657829830455 0  0.0001020545234543062 0.002988322160634889 0  0.009771515283566994 0.001547222220234457 0  0.0001247631327294741 0.003128140703517588 0  0.009798893451218758 0.001608781961032239 0  0.0001670823793943093 0.003253768844221106 0  0.009822714421752407 0.001645975896558485 0  0.0002011204519182638 0.003315663620239438 0  0.009849130804363143 0.001709462007901265 0  0.0002275368345290006 0.003379149731582219 0  0.009883168876887099 0.001771356783919598 0  0.0002513578050626486 0.003416343667108464 0  0.009925488123551932 0.001896984924623115 0  0.0002787359727144142 0.003477903407906247 0  0.009948196732827102 0.002036803467505815 0  0.0003501684555335619 0.003573467798310248 0  0.009969286180562333 0.002097989949748744 0  0.0004097111541863734 0.003664260441259002 0  0.009979537829145744 0.002148241206030151 0  0.0004537270030180498 0.003714192045716073 0  0.009993556181720207 0.0025 0  0.0005055760606428836 0.003761924382276144 0  0.009979537829145744 0.002876884422110553 0  0.000597211921136439 0.003833295892980942 0  0.009969286180562333 0.00292713567839196 0  0.0006924401773421158 0.003890920703761021 0  0.009948196732827102 0.002988322160634889 0  0.0007625641439985681 0.003918564136009961 0  0.009925488123551932 0.0031281407035175
[...]
<PointData  Tensors="$\sigma$"> 
<DataArray  type="Float64"  Name="$\sigma$"  NumberOfComponents="9" format="ascii">1.9283730682618625e+07 -9.8474158997401632e+06 0.0000000000000000e+00 -9.8474158997401651e+06 5.7991275768615128e+06 0.0000000000000000e+00 0.0000000000000000e+00 0.0000000000000000e+00 0.0000000000000000e+00  1.9990045064068556e+07 -1.4184627219067115e+07 0.0000000000000000e+00 -1.4184627219067115e+07 1.1326024155551439e+07 0.0000000000000000e+00 0.0000000000000000e+00 0.0000000000000000e+00 0.0000000000000000e+00  2.1222349199306309e+07 -1.8801798087820157e+07 0.0000000000000000e+00 -1.8801798087820157e+07 1.7368969551462483e+07 0.0000000000000000e+00 0.0000000000000000e+00 0.0000000000000000e+00 0.0000000000000000e+00  2.0559588897340517e+07 -2.2213894170100156e+07 0.0000000000000000e+00 -2.2213894170100156e+07 2.5245844797205940e+07 0.0000000000000000e+00 0.0000000000000000e+00 0.0000000000000000e+00 0.0000000000000000e+00  1.6801050687406931e+07 -2.1079369617491588e+07 0.0000000000000000e+00 -2.1079369617491588e+07 3.1744334484985221e+07 0.0000000000000000e+00 0.0000000000000000e+00 0.0000000000000000e+00 0.0000000000000000e+00  1.4334847658239255e+07 -2.4617082323509425e+07 0.0000000000000000e+00 -2.4617082323509425e+07 4.3797579450969167e+07 0.0000000000000000e+00 0.0000000000000000e+00 0.0000000000000000e+00 0.0000000000000000e+00  8.1994823401861079e+06 -1.7507030674793616e+07 0.0000000000000000e+00 -1.7507030674793616e+07 4.6389673392609045e+07 0.0000000000000000e+00 0.0000000000000000e+00 0.0000000000000000e+00 0.0000000000000000e+00  3.2171337780875266e+06 -1.4932147802239472e+07 0.0000000000000000e+00 -1.4932147802239472e+07 5.5271958636877291e+07 0.0000000000000000e+00 0.0000000000000000e+00 0.0000000000000000e+00 0.0000000000000000e+00  2.9768413356935466e+06 -1.2734769779500080e+07 0.0000000000000000e+00 -1.2734769779500080e+07 5.6943722656275883e+07 0.0000000000000000e+00 0.0000000000000000e+00 0.0000000000000000e+00 0.0000000000000000e+00  5.7934520318736974e+05 -7.2504140659070211e+06 0.0000000000000000e+00 -7.2504140659070211e+06 5.0972372517677374e+07 0.0000000000000000e+00 0.0000000000000000e+00 0.0000000000000000e+00 0.0000000000000000e+00  2.0336070138906599e+06 -6.0147487636122191e+06 0.0000000000000000e+00 -6.0147487636122191e+06 5.6407467413321108e+07 0.0000000000000000e+00 0.0000000000000000e+00 0.0000000000000000e+00 0.0000000000000000e+00  1.9963567954464755e+06 -5.7728922028038047e+04 0.0000000000000000e+00 -5.7728922028038047e+04 6.9843563943219766e+07 0.0000000000000000e+00 0.0000000000000000e+00 0.0000000000000000e+00 0.0000000000000000e+00  7.2266482418202073e+05 4.3664629567800555e+06 0.0000000000000000e+00 4.3664629567800555e+06 5.4187107780621283e+07 0.0000000000000000e+00 0.0000000000000000e+00 0.0000000000000000e+00 0.0000000000000000e+00  -1.4686522115241067e+05 5.5187505526024010e+06 0.0000000000000000e+00 5.5187505526024010e+06 4.4776514325173736e+07 0.0000000000000000e+00 0.0000000000000000e+00 0.0000000000000000e+00 0.0000000000000000e+00  2.2848702958138692e+06 8.5545590654494539e+06 0.0000000000000000e+00 8.5545590654494539e+06 4.6074310528083205e+07 0.0000000000000000e+00 0.0000000000000000e+00 0.0000000000000000e+00 0.0000000000000000e+00  2.9194068145392551e+06 1.1701755693673225e+07 0.0000000000000000e+00 1.1701755693673218e+07 4.2103050397838838e+07 0.0000000000000000e+00 0.0000000000000000e+00 0.0000000000000000e+00 0.0000000000000000e+00  5.1789603972597197e+06 1.2166429103408521e+07 0.0000000000000000e+00 1.2166429103408523e+07 3.4320219255296521e+07 0.0000000000000000e+00 0.0000000000000000e+00 0.0000000000000000e+00 0.0000000000000000e+00  8.4698222526170108e+06 1.5136802164820170e+07 0.0000000000000000e+00 1.5136802164820166e+07 2.7792984134919431e+07 0.0000000000000000e+00 0.0000000000000000e+00 0.0000000000000000e+00 0.0000000000000000e+00  7.8959842631195178e+06 1.0852964053882645e+07 0.0000000000000000e+00 1.0852964053882645e+07 1.8000954835370529e+07 0.0000000000000000e+00 0.0000000000000000e+00 0.0000000000000000e+00 0.0000000000000000e+00  8.8531270051092990e+06 9.8139147969148196e+06 0.0000000000000000e+00 9.8139147969148178e+06 1.2073166580841150e+07 0.0000000000000000e+00 0.0000000000000000e+00 0.0000000000000000e+00 0.0000000000000000e+00  5.2259520775609547e+06 5.4644096236894252e+06 0.0000000000000000e+00 5.4644096236894252e+06 5.6549217955809766e+06 0.0000000000000000e+00 0.0000000000000000e+00 0.0000000000000000e+00 0.0000000000000000e+00  1.1827571012843086e+05 1.2475726493595403e+06 0.0000000000000000e+00 1.2475726493595403e+06 1.6288726329397550e+06 0.0000000000000000e+00 0.0000000000000000e+00 0.0000000000000000e+00 0.0000000000000000e+00  -1.0565204332253592e+07 -4.7622421494100979e+06 0.0000000000000000e+00 -4.7622421494100988e+06 6.9720024624981778e+05 0.0000000000000000e+00 0.0000000000000000e+00 0.0000000000000000e+00 0.0000000000000000e+00  -4.6178931716145076e+07 3.7604622393066543e+06 0.0000000000000000e+00 3.7604622393066543e+06 -4.4318188906426663e+06 0.0000000000000000e+00 0.0000000000000000e+00 0.0000000000000000e+00 0.0000000000000000e+00  -6.0865978606080525e+07 3.4168387842966251e+07 0.0000000000000000e+00 3.4168387842966251e+07 -2.6662672596301325e+07 0.0000000000000000e+00 0.0000000000000000e+00 0.0000000000000000e+00 0.0000000000000000e+00  -2.7532331232054755e+07 3.7143875818418168e+07 0.0000000000000000e+00 3.7143875818418168e+07 -5.4196157070381030e+07 0.0000000000000000e+00 0.0000000000000000e+00 0.0000000000000000e+00 0.0000000000000000e+00  -1.0765244245074924e+07 2.1955562220573515e+07 0.0000000000000000e+00 2.1955562220573515e+07 -5.1602987803653322e+07 0.0000000000000000e+00 0.0000000000000000e+00 0.0000000000000000e+00 0.0000000000000000e+00  -6.9261959796899594e+06 1.7209317496018495e+07 0.0000000000000000e+00 1.7209317496018495e+07 -3.9133582742262520e+07 0.0000000000000000e+00 0.0000000000000000e+00 0.0000000000000000e+00 0.0000000000000000e+00  -7.3356738690009769e+06 1.6589614294060791e+07 0.0000000000000000e+00 1.6589614294060791e+07 -3.7654130318648413e+07 0.0000000000000000e+00 0.0000000000000000e+00 0.0000000000000000e+00 0.0000000000000000e+00  -7.6921602310251482e+06 1.7643947020645794e+07 0.0000000000000000e+00 1.7643947020645794e+07 -3.2201712307471611e+07 0.0000000000000000e+00 0.0000000000000000e+00 0.0000000000000000e+00 0.0000000000000000e+00  -1.0619068300846433e+07 1.8103079390457124e+07 0.0000000000000000e+00 1.8103079390457124e+07 -2.8642021261906605e+07 0.0000000000000000e+00 0.0000000000000000e+00 0.0000000000000000e+00 0.0000000000000000e+00  -1.6154129012740357e+07 2.0447957007430285e+07 0.0000000000000000e+00 2.0447957007430285e+07 -2.2872263101910781e+07 0.0000000000000000e+00 0.0000000000000000e+00 0.0000000000000000e+00 0.0000000000000000e+00  -1.7971266220941734e+07 1.9875964638191085e+07 0.0000000000000000e+00 1.9875964638191085e+07 -1.9598585885038886e+07 0.0000000000000000e+00 0.0000000000000000e+00 0.0000000000000000e+00 0.0000000000000000e+00  -2.2589423497695345e+07 1.8653130829413705e+07 0.0000000000000000e+00 1.8653130829413705e+07 -1.4292093114887794e+07 0.0000000000000000e+00 0.0000000000000000e+00 0.0000000000000000e+00 0.0000000000000000e+00  -2.9614236326388191e+07 2.1582005597596176e+07 0.0000000000000000e+00 2.1582005597596176e+07 -1.3940009706851194e+07 0.0000000000000000e+00 0.0000000000000000e+00 0.0000000000000000e+00 0.0000000000000000e+00  -3.1570408422533132e+07 2.1763112838244088e+07 0.0000000000000000e+00 2.1763112838244088e+07 -1.5342151606438944e+07 0.0000000000000000e+00 0.0000000000000000e+00 0.0000000000000000e+00 0.0000000000000000e+00  -2.9827551491649285e+07 1.9702157163750760e+07 0.0000000000000000e+00 1.9702157163750760e+07 -1.0961904377403960e+07 0.0000000000000000e+00 0.0000000000000000e+00 0.0000000000000000e+00 0.0000000000000000e+00  -3.4482265215545759e+07 1.8006004847759534e+07 0.0000000000000000e+00 1.8006004847759534e+07 -9.2404131721644979e+06 0.0000000000000000e+00 0.0000000000000000e+00 0.0000000000000000e+00 0.0000000000000000e+00  -3.6380188350540996e+07 1.7816041047304139e+07 0.0000000000000000e+00 1.7816041047304139e+07 -8.1810512974486491e+06 0.0000000000000000e+00 0.0000000000000000e+00 0.0000000000000000e+00 0.0000000000000000e+00  -3.4434818567800939e+07 1.6422942267506491e+07 0.0000000000000000e+00 1.6422942267506491e+07 -7.0807585726774624e+06 0.0000000000000000e+00 0.0000000000000000e+00 0.0000000000000000e+00 0.0000000000000000e+00  -3.3968118441932075e+07 1.3867934925133917e+07 0.0000000000000000e+00 1.3867934925133917e+07 -5.9613214191071736e+06 0.0000000000000000e+00 0.0000000000000000e+00 0.0000000000000000e+00 0.0000000000000000e+00  -3.2273485655687906e+07 1.3527605400746582e+07 0.0000000000000000e+00 1.3527605400746582e+07 -4.0375822158053587e+06 0.0000000000000000e+00 0.0000000000000000e+00 0.0000000000000000e+00 0.0000000000000000e+00  -3.7450083858597130e+07 8.5844595149801522e+06 0.0000000000000000e+00 8.5844595149801522e+06 -2.1200782158727851e+06 0.0000000000000000e+00 0.0000000000000000e+00 0.0000000000000000e+00 0.0000000000000000e+00  -3.9673606704104394e+07 8.1705369632978532e+06 0.0000000000000000e+00 8.1705369632978579e+06 -4.7644552158041118e+05 0.0000000000000000e+00 0.0000000000000000e+00 0.0000000000000000e+00 0.0000000000000000e+00  -4.2827490165797926e+07 1.1283807293955054e+07 0.0000000000000000e+00 1.1283807293955060e+07 -4.5596091349996161e+06 0.0000000000000000e+00 0.0000000000000000e+00 0.0000000000000000e+00 0.0000000000000000e+00  -3.9918661635304734e+07 5.1816858655699911e+06 0.0000000000000000e+00 5.1816858655699901e+06 7.0914647241779799e+06 0.0000000000000000e+00 0.0000000000000000e+00 0.0000000000000000e+00 0.0000000000000000e+00  -3.4388421307603307e+07 -1.2552546367284392e+05 0.0000000000000000e+00 -1.2552546367284354e+05 1.3965184597902563e+06 0.0000000000000000e+00 0.0000000000000000e+00 0.0000000000000000e+00 0.0000000000000000e+00  -3.5400035634840980e+07 -5.3152426227628309e+06 0.0000000000000000e+00 -5.3152426227628281e+06 7.3929807729702322e+06 0.0000000000000000e+00 0.0000000000000000e+00 0.0000000000000000e+00 0.0000000000000000e+00  -3.6912944563987657e+07 -9.8112109689636119e+06 0.0000000000000000e+00 -9.8112109689636119e+06 -3.6103153003873671e+06 0.0000000000000000e+00 0.0000000000000000e+00 0.0000000000000000e+00 0.0000000000000000e+00  -3.4031520167765476e+07 -6.7248146482708119e+06 0.0000000000000000e+00 -6.7248146482708072e+06 -6.2369248117461801e+05 0.0000000000000000e+00 0.0000000000000000e+00 0.0000000000000000e+00 0.0000000000000000e+00  -2.8227313624333289e+07 -8.0487756684788596e+06 0.0000000000000000e+00 -8.0487756684788605e+06 -1.3467112241047251e+06 0.0000000000000000e+00 0.0000000000000000e+00 0.0000000000000000e+00 0.0000000000000000e+00  -2.4512306813531145e+07 -1.1132508590300888e+07 0.0000000000000000e+00 -1.1132508590300888e+07 -4.7972918556519905e+06 0.0000000000000000e+00 0.0000000000000000e+00 0.0000000000000000e+00 0.0000000000000000e+00  -2.7271313435220271e+07 -1.3556719333259132e+07 0.0000000000000000e+00 -1.3556719333259121e+07 -6.5175406224719919e+06 0.0000000000000000e+00 0.0000000000000000e+00 0.0000000000000000e+00 0.0000000000000000e+00  -2.6396554684385803e+07 -1.3395808165224606e+07 0.0000000000000000e+00 -1.3395808165224604e+07 -6.7576343582810750e+06 0.0000000000000000e+00 0.0000000000000000e+00 0.0000000000000000e+00 0.0000000000000000e+00  -2.4835080804559555e+07 -1.3121610353943367e+07 0.0000000000000000e+00 -1.3121610353943367e+07 -6.0827558217561925e+06 0.0000000000000000e+00 0.0000000000000000e+00 0.0000000000000000e+00 0.0000000000000000e+00  -2.2117127202453543e+07 -1.4502962147512754e+07 0.0000000000000000e+00 -1.4502962147512754e+07 -8.7449970954048224e+06 0.0000000000000000e+00 0.0000000000000000e+00 0.0000000000000000e+00 0.0000000000000000e+00  -2.0411097026812799e+07 -1.5188328919920184e+07 0.0000000000000000e+00 -1.5188328919920184e+07 -9.7599512404012997e+06 0.0000000000000000e+00 0.0000000000000000e+00 0.0000000000000000e+00 0.0000000000000000e+00  -1.8822473816009577e+07 -1.4364581433460826e+07 0.0000000000000000e+00 -1.4364581433460826e+07 -1.0145573778813360e+07 0.0000000000000000e+00 0.0000000000000000e+00 0.0000000000000000e+00 0.0000000000000000e+00  -1.2080541264391458e+07 -1.3681878062291404e+07 0.0000000000000000e+00 -1.3681878062291404e+07 -1.3462091849981565e+07 0.0000000000000000e+00 0.0000000000000000e+00 0.0000000000000000e+00 0.0000000000000000e+00  -1.0533424797230532e+07 -1.4142095454988180e+07 0.0000000000000000e+00 -1.4142095454988180e+07 -1.6477306382221190e+07 0.0000000000000000e+00 0.0000000000000000e+00 0.0000000000000000e+00 0.0000000000000000e+00  -7.6505458120319918e+06 -1.2811986540905772e+07 0.0000000000000000e+00 -1.2811986540905772e+07 -1.9929073000005554e+07 0.0000000000000000e+00 0.0000000000000000e+00 0.0000000000000000e+00 0.0000000000000000e+00  -5.6445863150377776e+06 -1.2234409684117289e+07 0.0000000000000000e+00 -1.2234409684117289e+07 -2.2522954538498141e+07 0.0000000000000000e+00 0.0000000000000000e+00 0.0000000000000000e+00 0.0000000000000000e+00  -6.0373209870534493e+06 -1.2885882677709579e+07 0.0000000000000000e+00 -1.2885882677709579e+07 -2.6486530981209807e+07 0.0000000000000000e+00 0.0000000000000000e+00 0.0000000000000000e+00 0.0000000000000000e+00  -4.4795321001801444e+06 -1.2098164212035744e+07 0.0000000000000000e+00 -1.2098164212035744e+07 -2.8255068796970785e+07 0.0000000000000000e+00 0.0000000000000000e+00 0.0000000000000000e+00 0.0000000000000000e+00  -7.4703590690567326e+06 -1.5185618556457479e+07 0.0000000000000000e+00 -1.5185618556457479e+07 -3.4736427041399196e+07 0.0000000000000000e+00 0.0000000000000000e+00 0.0000000000000000e+00 0.0000000000000000e+00  -1.4515745688553018e+07 -2.0606339863647800e+07 0.0000000000000000e+00 -2.0606339863647800e+07 -3.4065671865083389e+07 0.0000000000000000e+00 0.0000000000000000e+00 0.0000000000000000e+00 0.0000000000000000e+00  -1.0126019628461644e+07 -1.3474119057601176e+07 0.0000000000000000e+00 -1.3474119057601176e+07 -1.5114011844356870e+07 0.0000000000000000e+00 0.0000000000000000e+00 0.0000000000000000e+00 0.0000000000000000e+00  2.2075453485206272e+07 -1.3587290617611865e+07 0.0000000000000000e+00 -1.3587290617611865e+07 5.4626726402073698e+06 0.0000000000000000e+00 0.0000000000000000e+00 0.0000000000000000e+00 0.0000000000000000e+00  3.2115222922527496e+07 -2.1696766240881637e+07 0.0000000000000000e+00 -2.1696766240881637e+07 1.7695688160322864e+07 0.0000000000000000e+00 0.0000000000000000e+00 0.0000000000000000e+00 0.0000000000000000e+00  3.8365514128370538e+07 -3.4531450006013431e+07 0.0000000000000000e+00 -3.4531450006013431e+07 3.2078397745560184e+07 0.0000000000000000e+00 0.0000000000000000e+00 0.0000000000000000e+00 0.0000000000000000e+00  3.3908914152666971e+07 -3.7001655538632803e+07 0.0000000000000000e+00 -3.7001655538632803e+07 4.3519718368915536e+07 0.0000000000000000e+00 0.0000000000000000e+00 0.0000000000000000e+00 0.0000000000000000e+00  3.0977707300350718e+07 -4.0791675072265059e+07 0.0000000000000000e+00 -4.0791675072265059e+07 5.6945140797622286e+07 0.0000000000000000e+00 0.0000000000000000e+00 0.0000000000000000e+00 0.0000000000000000e+00  2.2961277134552084e+07 -4.0194137724850640e+07 0.0000000000000000e+00 -4.0194137724850640e+07 7.5369897833751723e+07 0.0000000000000000e+00 0.0000000000000000e+00 0.0000000000000000e+00 0.0000000000000000e+00  1.3549379767080648e+07 -2.9593725193447646e+07 0.0000000000000000e+00 -2.9593725193447646e+07 7.7559761794654474e+07 0.0000000000000000e+00 0.0000000000000000e+00 0.0000000000000000e+00 0.0000000000000000e+00  4.9771697836282114e+06 -2.3944035310765352e+07 0.0000000000000000e+00 -2.3944035310765352e+07 8.9325502532158852e+07 0.0000000000000000e+00 0.0000000000000000e+00 0.0000000000000000e+00 0.0000000000000000e+00  5.2673086082722088e+06 -2.0750932586544748e+07 0.0000000000000000e+00 -2.0750932586544748e+07 8.7766855705873713e+07 0.0000000000000000e+00 0.0000000000000000e+00 0.0000000000000000e+00 0.0000000000000000e+00  7.3934341185398994e+05 -1.1690002646041222e+07 0.0000000000000000e+00 -1.1690002646041222e+07 7.9979004794310093e+07 0.0000000000000000e+00 0.0000000000000000e+00 0.0000000000000000e+00 0.0000000000000000e+00  4.3472384337304682e+06 -5.0962304015929764e+06 0.0000000000000000e+00 -5.0962304015929764e+06 7.5261517611566126e+07 0.0000000000000000e+00 0.0000000000000000e+00 0.0000000000000000e+00 0.0000000000000000e+00  1.0356550327490389e+05 7.3586044161165860e+06 0.0000000000000000e+00 7.3586044161165860e+06 7.9692907252939463e+07 0.0000000000000000e+00 0.0000000000000000e+00 0.0000000000000000e+00 0.0000000000000000e+00  6.4895165982982109e+05 5.9804775895050820e+06 0.0000000000000000e+00 5.9804775895050820e+06 5.5642224328287609e+07 0.0000000000000000e+00 0.0000000000000000e+00 0.0000000000000000e+00 0.0000000000000000e+00  2.3358353448968283e+06 1.0192045804549711e+07 0.0000000000000000e+00 1.0192045804549711e+07 5.1571144651024051e+07 0.0000000000000000e+00 0.0000000000000000e+00 0.0000000000000000e+00 0.0000000000000000e+00  2.5174327324190186e+06 1.0736501620017996e+07 0.0000000000000000e+00 1.0736501620017996e+07 4.1454108102957480e+07 0.0000000000000000e+00 0.0000000000000000e+00 0.0000000000000000e+00 0.0000000000000000e+00  2.4619872295876532e+06 8.2982918928148029e+06 0.0000000000000000e+00 8.2982918928148029e+06 2.6903002495454922e+07 0.0000000000000000e+00 0.0000000000000000e+00 0.0000000000000000e+00 0.0000000000000000e+00  2.3860869298679527e+05 3.8749551967707025e+06 0.0000000000000000e+00 3.8749551967707025e+06 1.2268192048320262e+07 0.0000000000000000e+00 0.0000000000000000e+00 0.0000000000000000e+00 0.0000000000000000e+00  -4.8785485409437260e+06 -5.1119117285429500e+06 0.0000000000000000e+00 -5.1119117285429500e+06 -2.9540363320067758e+06 0.0000000000000000e+00 0.0000000000000000e+00 0.0000000000000000e+00 0.0000000000000000e+00  -1.4159727490952741e+07 -1.3540145168368982e+07 0.0000000000000000e+00 -1.3540145168368982e+07 -1.2845108918597884e+07 0.0000000000000000e+00 0.0000000000000000e+00 0.0000000000000000e+00 0.0000000000000000e+00  -3.1420086741709843e+07 -2.2645096707934324e+07 0.0000000000000000e+00 -2.2645096707934324e+07 -1.6561783368477544e+07 0.0000000000000000e+00 0.0000000000000000e+00 0.0000000000000000e+00 0.0000000000000000e+00  -5.5147655492229022e+07 -3.0372901714225478e+07 0.0000000000000000e+00 -3.0372901714225478e+07 -1.8993839857014775e+07 0.0000000000000000e+00 0.0000000000000000e+00 0.0000000000000000e+00 0.0000000000000000e+00  -9.3625317928780958e+07 -3.4034611653441653e+07 0.0000000000000000e+00 -3.4034611653441653e+07 -1.1887651912813237e+07 0.0000000000000000e+00 0.0000000000000000e+00 0.0000000000000000e+00 0.0000000000000000e+00  -1.6703986043731403e+08 -2.0057101897111409e+06 0.0000000000000000e+00 -2.0057101897111409e+06 -1.4200945119225524e+07 0.0000000000000000e+00 0.0000000000000000e+00 0.0000000000000000e+00 0.0000000000000000e+00  -1.5717757585156056e+08 6.3053459941968121e+07 0.0000000000000000e+00 6.3053459941968121e+07 -4.5314047245552212e+07 0.0000000000000000e+00 0.0000000000000000e+00 0.0000000000000000e+00 0.0000000000000000e+00  -5.6186193960378058e+07 5.3755598821103722e+07 0.0000000000000000e+00 5.3755598821103722e+07 -5.4025053236735836e+07 0.0000000000000000e+00 0.0000000000000000e+00 0.0000000000000000e+00 0.0000000000000000e+00  -1.6424195865559587e+07 2.1724527871850628e+07 0.0000000000000000e+00 2.1724527871850628e+07 -3.3228120620307401e+07 0.0000000000000000e+00 0.0000000000000000e+00 0.0000000000000000e+00 0.0000000000000000e+00  -3.2111690022824993e+06 9.0950111316117179e+06 0.0000000000000000e+00 9.0950111316117179e+06 -1.8223864137413174e+07 0.0000000000000000e+00 0.0000000000000000e+00 0.0000000000000000e+00 0.0000000000000000e+00  -2.2265222561970754e+06 4.6249270947393989e+06 0.0000000000000000e+00 4.6249270947393989e+06 -9.7323110273761228e+06 0.0000