<?xml version="1.0"?>
<VTKFile type="UnstructuredGrid"  version="0.1"  >
<UnstructuredGrid>
<Piece  NumberOfPoints="11925" NumberOfCells="22284">
<Points>
<DataArray  type="Float64"  NumberOfComponents="3"  format="ascii">0.009106770432969287 0.0084582340381214 0  0.009141919339108864 0.008441218550270694 0  0.009203598740601114 0.008393845335784609 0  0.009248431083532146 0.008349860421943302 0  0.009296575788899144 0.008291876136114247 0  0.00934265184641383 0.008225659869648794 0  0.009393578065451109 0.008122249398276498 0  0.009424875532860347 0.008002512562814071 0  0.009449530416649156 0.007942856790653622 0  0.009467776063564975 0.007776381909547738 0  0.009496347239411999 0.007611274617662952 0  0.009499145002853376 0.007525125628140703 0  0.009496347239411999 0.007464102266759158 0  0.009467776063564975 0.007298994974874372 0  0.009449530416649156 0.007132520093768488 0  0.009424875532860347 0.00707286432160804 0  0.009393578065451109 0.006953127486145613 0  0.00934265184641383 0.006849717014773317 0  0.009296575788899144 0.006783500748307864 0  0.009248431083532146 0.006725516462478808 0  0.009203598740601114 0.006681531548637502 0  0.009141919338909114 0.006634158334151417 0  0.009106770432902705 0.006617142873950686 0  0.009057788944723618 0.006598443490950575 0  0.009035429646949504 0.006603784476015589 0  0.009003273865471631 0.006637537337391888 0  0.008992706568800921 0.006658843167954558 0  0.008972489432160457 0.006721105527638192 0  0.008943689764150664 0.006775124298212487 0  0.008927575292032289 0.006821608040201005 0  0.008858421521121648 0.006940476521074617 0  0.008818283204798657 0.006994423939357116 0  0.008742251619928807 0.007081030046222233 0  0.008689386069399707 0.007127977288024682 0  0.00865169762718865 0.007155237400276061 0  0.008598593426450953 0.007187519986677493 0  0.008503029036046951 0.007258952469496642 0  0.008441469295249169 0.007286330637148408 0  0.008404275359722921 0.007310151607682054 0  0.008340789248380142 0.007336567990292792 0  0.008278894472361808 0.007370606062816746 0  0.008227853892241668 0.007385785667750049 0  0.008178391959798996 0.007406751625964 0  0.008013447788775593 0.00743563391875675 0  0.007952261306532662 0.007456731513377061 0  0.007902010050251256 0.007466988976395871 0  0.007550251256281408 0.00748107426496475 0  0.007173366834170854 0.007466988976395871 0  0.007123115577889447 0.007456731513377061 0  0.007061929095646517 0.00743563391875675 0  0.006896984924623115 0.007406751625964 0  0.006771663215364072 0.00735919225436318 0  0.006734587636041969 0.007336567990292792 0  0.006695979899497487 0.00732259899495977 0  0.006633907589172942 0.007286330637148408 0  0.00657234784837516 0.007258952469496642 0  0.006476783457971159 0.007187519986677493 0  0.006385990815022405 0.007127977288024682 0  0.006333125264493302 0.007081030046222233 0  0.006244530865553103 0.006978164963285671 0  0.006205048905315104 0.00692211055276382 0  0.006159330552520386 0.006845248264868939 0  0.006131687120271447 0.006775124298212487 0  0.006102887452261655 0.006721105527638192 0  0.006082670315621189 0.006658843167954558 0  0.006072103018950479 0.006637537337391888 0  0.006039947237472605 0.006603784476015589 0  0.006017587939698492 0.006598443490950575 0  0.005933457545512996 0.006634158334151417 0  0.005871778143820997 0.006681531548637502 0  0.005826945800889965 0.006725516462478808 0  0.005778801095522966 0.006783500748307864 0  0.005732725038008282 0.006849717014773317 0  0.005681798818971001 0.006953127486145613 0  0.005650501351561765 0.00707286432160804 0  0.005625846467772956 0.007132520093768488 0  0.005607600820857134 0.007298994974874372 0  0.005577737985543962 0.00747666508082951 0  0.005579029645010113 0.007611274617662952 0  0.005607600820857134 0.007776381909547738 0  0.005625846467772956 0.007942856790653622 0  0.005650501351561765 0.008002512562814071 0  0.005676707781126685 0.008109686584206147 0  0.005732725038008282 0.008225659869648794 0  0.005778801095522966 0.008291876136114247 0  0.00583916892901236 0.008362423236013654 0  0.005871778143820997 0.008393845335784609 0  0.005933457545313248 0.008441218550270694 0  0.005968606451452823 0.0084582340381214 0  0.006017587939698492 0.008476935349731016 0  0.006039947427631444 0.008471594355449344 0  0.006059540775356642 0.008452005488667369 0  0.006077635869842498 0.008429097268812035 0  0.006102887452261655 0.00835427135678392 0  0.006131687120271447 0.008300252586209624 0  0.006159330552520386 0.008230128619553171 0  0.006216955363300465 0.008134900363347493 0  0.006257093679623455 0.008080952945064994 0  0.006333125264493302 0.007994346838199877 0  0.006370813706704358 0.007959962410467781 0  0.00642367925723346 0.007920139484146049 0  0.006476783457971159 0.007887856897744617 0  0.00657234784837516 0.007816424414925468 0  0.006633907589172942 0.007789046247273704 0  0.006671101524699189 0.007765225276740057 0  0.006734587636041969 0.007738808894129319 0  0.006796482412060302 0.007704770821605365 0  0.00692211055276382 0.00766245157494053 0  0.007061929095646517 0.007639742965665362 0  0.007123115577889447 0.007618645371045051 0  0.007173366834170854 0.00760838790802624 0  0.007525125628140703 0.00759430261945736 0  0.007902010050251256 0.00760838790802624 0  0.007952261306532662 0.007618645371045051 0  0.008013447788775593 0.007639742965665362 0  0.00815326633165829 0.00766245157494053 0  0.008278894472361808 0.007704770821605365 0  0.008340789248380142 0.007738808894129319 0  0.008404275359722921 0.007765225276740057 0  0.008441469295249169 0.007789046247273704 0  0.008503029036046951 0.007816424414925468 0  0.008598593426450953 0.007887856897744617 0  0.00865169762718865 0.007920139484146049 0  0.008704563177717754 0.007959962410467781 0  0.008742251619928807 0.007994346838199877 0  0.008818283204798657 0.008080952945064994 0  0.008858421521121648 0.008134900363347493 0  0.008916046331901725 0.008230128619553171 0  0.008943689764150664 0.008300252586209624 0  0.008972489432160457 0.00835427135678392 0  0.008997741014579612 0.008429097268812035 0  0.009015836109065469 0.008452005488667369 0  0.009035429456790667 0.008471594355449344 0  0.009057788944723618 0.008476935349731016 0  0.000584560956065443 0.0006566731908302978 0  0.0004648241206030151 0.0006253757234210605 0  0.0006879714274377391 0.0007075994098675775 0  0.0004051683484425679 0.0006007208396322515 0  0.0007541876939031931 0.0007536754673822622 0  0.0002386934673366834 0.0005824751927164302 0  0.0008121719797322475 0.0008018201727492608 0  7.895734593675217e-05 0.0005538767054284305 0  0.000856156893573553 0.0008466525156802934 0  0 0.0005480494466900812 0  0.0009035301080596382 0.0009083319171725436 0  0 0 0  0.000939246867973806 0.0009924623115577891 0  0.01 0 0  0.0009339058736921331 0.001014821772831462 0  0.01 0.0005571664569146784 0  0.0008914087205285403 0.001052510215042517 0  0.009937185929648241 0.0005602048678154705 0  0.0008165829145728644 0.00107776182261448 0  0.009811557788944724 0.0005824755727250804 0  0.0007625641439985681 0.001106561492130742 0  0.00964508290783884 0.0006007208396322515 0  0.0006924401773421158 0.001134204924379682 0  0.009585427135678391 0.0006253757234210605 0  0.000597211921136439 0.001191829735159762 0  0.009478253114286317 0.0006515821529859823 0  0.0005055760606428836 0.00126320124586456 0  0.00937484264291402 0.0007001169347433132 0  0.0004537270030180498 0.001310933582424631 0  0.009296063562378215 0.0007536754673822622 0  0.0004097111541863734 0.001360865186881701 0  0.00923807927654916 0.0008018201727492608 0  0.0003501684555335619 0.001451657829830455 0  0.009194094362707853 0.0008466525156802934 0  0.0002787359727144142 0.001547222220234457 0  0.009146721148221768 0.0009083319171725436 0  0.0002513578050626486 0.001608781961032239 0  0.0091110043883076 0.0009924623115577891 0  0.0002275368345290006 0.001645975896558485 0  0.009116345382589274 0.001014821785907898 0  0.0002011204519182638 0.001709462007901265 0  0.009158842483081762 0.001052510228118953 0  0.0001670823793943093 0.001771356783919598 0  0.009233668341708544 0.001077761824120951 0  0.0001247631327294741 0.001896984924623115 0  0.009287687112282839 0.001106561492130742 0  0.0001020545234543062 0.002036803467505815 0  0.009357811078939291 0.001134204924379682 0  8.096507571907495e-05 0.002097989949748744 0  0.009453039335144969 0.001191829735159762 0  7.071342713566267e-05 0.002148241206030151 0  0.009544675195638523 0.00126320124586456 0  5.669507456120024e-05 0.0025 0  0.009596524253263357 0.001310933582424631 0  7.071342713566267e-05 0.002876884422110553 0  0.009640540102095033 0.001360865186881701 0  8.096507571907495e-05 0.00292713567839196 0  0.009700082800747845 0.001451657829830455 0  0.0001020545234543062 0.002988322160634889 0  0.009771515283566994 0.001547222220234457 0  0.0001247631327294741 0.003128140703517588 0  0.009798893451218758 0.001608781961032239 0  0.0001670823793943093 0.003253768844221106 0  0.009822714421752407 0.001645975896558485 0  0.0002011204519182638 0.003315663620239438 0  0.009849130804363143 0.001709462007901265 0  0.0002275368345290006 0.003379149731582219 0  0.009883168876887099 0.001771356783919598 0  0.0002513578050626486 0.003416343667108464 0  0.009925488123551932 0.001896984924623115 0  0.0002787359727144142 0.003477903407906247 0  0.009948196732827102 0.002036803467505815 0  0.0003501684555335619 0.003573467798310248 0  0.009969286180562333 0.002097989949748744 0  0.0004097111541863734 0.003664260441259002 0  0.009979537829145744 0.002148241206030151 0  0.0004537270030180498 0.003714192045716073 0  0.009993556181720207 0.0025 0  0.0005055760606428836 0.003761924382276144 0  0.009979537829145744 0.002876884422110553 0  0.000597211921136439 0.003833295892980942 0  0.009969286180562333 0.00292713567839196 0  0.0006924401773421158 0.003890920703761021 0  0.009948196732827102 0.002988322160634889 0  0.0007625641439985681 0.003918564136009961 0  0.009925488123551932 0.0031281407035175
[...]
<PointData  Tensors="$\sigma$"> 
<DataArray  type="Float64"  Name="$\sigma$"  NumberOfComponents="9" format="ascii">1.1313741749542158e+07 -6.1338853016452417e+06 0.0000000000000000e+00 -6.1338853016452417e+06 3.8235806938732979e+06 0.0000000000000000e+00 0.0000000000000000e+00 0.0000000000000000e+00 0.0000000000000000e+00  1.1987017067093344e+07 -8.6072773880360592e+06 0.0000000000000000e+00 -8.6072773880360592e+06 7.0696931772201620e+06 0.0000000000000000e+00 0.0000000000000000e+00 0.0000000000000000e+00 0.0000000000000000e+00  1.2659655680934226e+07 -1.1376234643744323e+07 0.0000000000000000e+00 -1.1376234643744323e+07 1.0732195682599857e+07 0.0000000000000000e+00 0.0000000000000000e+00 0.0000000000000000e+00 0.0000000000000000e+00  1.2310452817371482e+07 -1.3394307465973549e+07 0.0000000000000000e+00 -1.3394307465973549e+07 1.5520193331650848e+07 0.0000000000000000e+00 0.0000000000000000e+00 0.0000000000000000e+00 0.0000000000000000e+00  9.9545386637698952e+06 -1.2514224976198586e+07 0.0000000000000000e+00 -1.2514224976198586e+07 1.9319991921661545e+07 0.0000000000000000e+00 0.0000000000000000e+00 0.0000000000000000e+00 0.0000000000000000e+00  8.6166620458372161e+06 -1.4722719169364860e+07 0.0000000000000000e+00 -1.4722719169364860e+07 2.6367341974282194e+07 0.0000000000000000e+00 0.0000000000000000e+00 0.0000000000000000e+00 0.0000000000000000e+00  5.0254192637473755e+06 -1.0479671125456514e+07 0.0000000000000000e+00 -1.0479671125456514e+07 2.7735181153563447e+07 0.0000000000000000e+00 0.0000000000000000e+00 0.0000000000000000e+00 0.0000000000000000e+00  1.7957168316461470e+06 -8.7723077053044923e+06 0.0000000000000000e+00 -8.7723077053044923e+06 3.3614233314289540e+07 0.0000000000000000e+00 0.0000000000000000e+00 0.0000000000000000e+00 0.0000000000000000e+00  1.7432990354123046e+06 -7.7790556213182760e+06 0.0000000000000000e+00 -7.7790556213182760e+06 3.4109294688667871e+07 0.0000000000000000e+00 0.0000000000000000e+00 0.0000000000000000e+00 0.0000000000000000e+00  2.5621970296855544e+05 -4.2961622035246575e+06 0.0000000000000000e+00 -4.2961622035246575e+06 3.0289324987946108e+07 0.0000000000000000e+00 0.0000000000000000e+00 0.0000000000000000e+00 0.0000000000000000e+00  7.6056169714304723e+05 -3.1505048396266536e+06 0.0000000000000000e+00 -3.1505048396266536e+06 3.3665934144579358e+07 0.0000000000000000e+00 0.0000000000000000e+00 0.0000000000000000e+00 0.0000000000000000e+00  1.2501265872116573e+06 -1.7853823331134672e+03 0.0000000000000000e+00 -1.7853823331134672e+03 4.0817079532886021e+07 0.0000000000000000e+00 0.0000000000000000e+00 0.0000000000000000e+00 0.0000000000000000e+00  3.5843565240160224e+05 2.2424558057401078e+06 0.0000000000000000e+00 2.2424558057401078e+06 3.2407617789269175e+07 0.0000000000000000e+00 0.0000000000000000e+00 0.0000000000000000e+00 0.0000000000000000e+00  -1.1256029072059842e+05 3.2302637763318648e+06 0.0000000000000000e+00 3.2302637763318648e+06 2.6869120942445293e+07 0.0000000000000000e+00 0.0000000000000000e+00 0.0000000000000000e+00 0.0000000000000000e+00  1.3416576584732071e+06 5.0633754225564804e+06 0.0000000000000000e+00 5.0633754225564804e+06 2.7704710895986818e+07 0.0000000000000000e+00 0.0000000000000000e+00 0.0000000000000000e+00 0.0000000000000000e+00  1.6390923430103809e+06 6.9646604126843587e+06 0.0000000000000000e+00 6.9646604126843587e+06 2.5740741198131807e+07 0.0000000000000000e+00 0.0000000000000000e+00 0.0000000000000000e+00 0.0000000000000000e+00  3.1459242693392895e+06 7.3033378414416658e+06 0.0000000000000000e+00 7.3033378414416658e+06 2.0696175187697913e+07 0.0000000000000000e+00 0.0000000000000000e+00 0.0000000000000000e+00 0.0000000000000000e+00  4.9999902572260899e+06 9.0471291549315341e+06 0.0000000000000000e+00 9.0471291549315341e+06 1.6944032430734839e+07 0.0000000000000000e+00 0.0000000000000000e+00 0.0000000000000000e+00 0.0000000000000000e+00  4.6759492482706569e+06 6.4957042173951184e+06 0.0000000000000000e+00 6.4957042173951184e+06 1.1138428967925288e+07 0.0000000000000000e+00 0.0000000000000000e+00 0.0000000000000000e+00 0.0000000000000000e+00  5.2369586664197044e+06 5.9652717122772448e+06 0.0000000000000000e+00 5.9652717122772448e+06 7.5729729499857081e+06 0.0000000000000000e+00 0.0000000000000000e+00 0.0000000000000000e+00 0.0000000000000000e+00  3.0662431753356457e+06 3.4258768030869779e+06 0.0000000000000000e+00 3.4258768030869779e+06 3.6929065962132155e+06 0.0000000000000000e+00 0.0000000000000000e+00 0.0000000000000000e+00 0.0000000000000000e+00  1.2905880282363165e+04 8.9784122044017515e+05 0.0000000000000000e+00 8.9784122044017538e+05 1.2363985365888190e+06 0.0000000000000000e+00 0.0000000000000000e+00 0.0000000000000000e+00 0.0000000000000000e+00  -7.3920028642622242e+06 -2.4372382508951169e+06 0.0000000000000000e+00 -2.4372382508951169e+06 5.7277826771389716e+05 0.0000000000000000e+00 0.0000000000000000e+00 0.0000000000000000e+00 0.0000000000000000e+00  -2.7347195933457021e+07 3.0430786933689076e+06 0.0000000000000000e+00 3.0430786933689085e+06 -3.1521271545574563e+06 0.0000000000000000e+00 0.0000000000000000e+00 0.0000000000000000e+00 0.0000000000000000e+00  -3.6470460528251335e+07 2.0353229617290445e+07 0.0000000000000000e+00 2.0353229617290445e+07 -1.6709100308380369e+07 0.0000000000000000e+00 0.0000000000000000e+00 0.0000000000000000e+00 0.0000000000000000e+00  -1.7144467264393751e+07 2.2182638384690311e+07 0.0000000000000000e+00 2.2182638384690311e+07 -3.2362228626177792e+07 0.0000000000000000e+00 0.0000000000000000e+00 0.0000000000000000e+00 0.0000000000000000e+00  -6.8802638611626606e+06 1.3575104796666056e+07 0.0000000000000000e+00 1.3575104796666056e+07 -3.0558502660851229e+07 0.0000000000000000e+00 0.0000000000000000e+00 0.0000000000000000e+00 0.0000000000000000e+00  -4.2704962300827820e+06 1.0588595786411030e+07 0.0000000000000000e+00 1.0588595786411030e+07 -2.3837899455963120e+07 0.0000000000000000e+00 0.0000000000000000e+00 0.0000000000000000e+00 0.0000000000000000e+00  -4.3978116610053005e+06 9.9289607423422914e+06 0.0000000000000000e+00 9.9289607423422914e+06 -2.2672291201117001e+07 0.0000000000000000e+00 0.0000000000000000e+00 0.0000000000000000e+00 0.0000000000000000e+00  -4.5973204132670602e+06 1.0751955793827575e+07 0.0000000000000000e+00 1.0751955793827575e+07 -1.9164656266462453e+07 0.0000000000000000e+00 0.0000000000000000e+00 0.0000000000000000e+00 0.0000000000000000e+00  -6.2335996215708228e+06 1.0888368764163932e+07 0.0000000000000000e+00 1.0888368764163932e+07 -1.7335295908238400e+07 0.0000000000000000e+00 0.0000000000000000e+00 0.0000000000000000e+00 0.0000000000000000e+00  -9.7051819729194790e+06 1.2397884635027196e+07 0.0000000000000000e+00 1.2397884635027196e+07 -1.3623856894813890e+07 0.0000000000000000e+00 0.0000000000000000e+00 0.0000000000000000e+00 0.0000000000000000e+00  -1.0757824081134368e+07 1.2004265069482377e+07 0.0000000000000000e+00 1.2004265069482377e+07 -1.1717501912246158e+07 0.0000000000000000e+00 0.0000000000000000e+00 0.0000000000000000e+00 0.0000000000000000e+00  -1.3726729736601764e+07 1.1434178922156161e+07 0.0000000000000000e+00 1.1434178922156161e+07 -8.7645083278770521e+06 0.0000000000000000e+00 0.0000000000000000e+00 0.0000000000000000e+00 0.0000000000000000e+00  -1.7609091849024676e+07 1.3098310832421307e+07 0.0000000000000000e+00 1.3098310832421307e+07 -8.5586867079676185e+06 0.0000000000000000e+00 0.0000000000000000e+00 0.0000000000000000e+00 0.0000000000000000e+00  -1.8943628487334754e+07 1.3029211129842881e+07 0.0000000000000000e+00 1.3029211129842881e+07 -8.9021395515715722e+06 0.0000000000000000e+00 0.0000000000000000e+00 0.0000000000000000e+00 0.0000000000000000e+00  -1.7921741808479469e+07 1.1933149603176324e+07 0.0000000000000000e+00 1.1933149603176324e+07 -6.5251396522217207e+06 0.0000000000000000e+00 0.0000000000000000e+00 0.0000000000000000e+00 0.0000000000000000e+00  -2.0789005278690491e+07 1.0937857767204823e+07 0.0000000000000000e+00 1.0937857767204823e+07 -5.6197772636223715e+06 0.0000000000000000e+00 0.0000000000000000e+00 0.0000000000000000e+00 0.0000000000000000e+00  -2.1889844352430537e+07 1.0732382110867796e+07 0.0000000000000000e+00 1.0732382110867796e+07 -4.7900938032264886e+06 0.0000000000000000e+00 0.0000000000000000e+00 0.0000000000000000e+00 0.0000000000000000e+00  -2.0659143314510088e+07 9.8367397527135219e+06 0.0000000000000000e+00 9.8367397527135219e+06 -4.1011016953613581e+06 0.0000000000000000e+00 0.0000000000000000e+00 0.0000000000000000e+00 0.0000000000000000e+00  -2.0549026214740805e+07 8.4020752673079427e+06 0.0000000000000000e+00 8.4020752673079427e+06 -3.3795456943731848e+06 0.0000000000000000e+00 0.0000000000000000e+00 0.0000000000000000e+00 0.0000000000000000e+00  -1.9668800108666856e+07 8.1892882084848760e+06 0.0000000000000000e+00 8.1892882084848760e+06 -2.5044447427492794e+06 0.0000000000000000e+00 0.0000000000000000e+00 0.0000000000000000e+00 0.0000000000000000e+00  -2.2563302777552165e+07 5.1777607452100106e+06 0.0000000000000000e+00 5.1777607452100106e+06 -1.1286040110232928e+06 0.0000000000000000e+00 0.0000000000000000e+00 0.0000000000000000e+00 0.0000000000000000e+00  -2.3453791769192383e+07 5.2174260110096782e+06 0.0000000000000000e+00 5.2174260110096782e+06 -3.0857094613953388e+04 0.0000000000000000e+00 0.0000000000000000e+00 0.0000000000000000e+00 0.0000000000000000e+00  -2.7237570212978393e+07 6.5461241876059491e+06 0.0000000000000000e+00 6.5461241876059491e+06 -2.2723890916238441e+06 0.0000000000000000e+00 0.0000000000000000e+00 0.0000000000000000e+00 0.0000000000000000e+00  -2.3556005503471874e+07 3.0938048640295202e+06 0.0000000000000000e+00 3.0938048640295202e+06 4.4772966990356101e+06 0.0000000000000000e+00 0.0000000000000000e+00 0.0000000000000000e+00 0.0000000000000000e+00  -2.0014100169802438e+07 -8.8014754250994083e+04 0.0000000000000000e+00 -8.8014754250994156e+04 1.2056290518137587e+06 0.0000000000000000e+00 0.0000000000000000e+00 0.0000000000000000e+00 0.0000000000000000e+00  -2.0970761845145088e+07 -3.2026863831312708e+06 0.0000000000000000e+00 -3.2026863831312703e+06 4.6823741545718918e+06 0.0000000000000000e+00 0.0000000000000000e+00 0.0000000000000000e+00 0.0000000000000000e+00  -2.3563465613736667e+07 -5.8822813519084202e+06 0.0000000000000000e+00 -5.8822813519084202e+06 -1.8631186118314264e+06 0.0000000000000000e+00 0.0000000000000000e+00 0.0000000000000000e+00 0.0000000000000000e+00  -2.0315437863396067e+07 -4.3137410458297646e+06 0.0000000000000000e+00 -4.3137410458297646e+06 -1.9939211203860847e+05 0.0000000000000000e+00 0.0000000000000000e+00 0.0000000000000000e+00 0.0000000000000000e+00  -1.6920352481267266e+07 -4.9230525450852662e+06 0.0000000000000000e+00 -4.9230525450852644e+06 -7.3516570669199503e+05 0.0000000000000000e+00 0.0000000000000000e+00 0.0000000000000000e+00 0.0000000000000000e+00  -1.4906046896309363e+07 -6.6571018365035672e+06 0.0000000000000000e+00 -6.6571018365035672e+06 -2.7351649577405336e+06 0.0000000000000000e+00 0.0000000000000000e+00 0.0000000000000000e+00 0.0000000000000000e+00  -1.6374641963751372e+07 -8.1440062362992037e+06 0.0000000000000000e+00 -8.1440062362992037e+06 -3.9773245151711260e+06 0.0000000000000000e+00 0.0000000000000000e+00 0.0000000000000000e+00 0.0000000000000000e+00  -1.5903394897811806e+07 -8.1873216624863520e+06 0.0000000000000000e+00 -8.1873216624863520e+06 -4.0295941613888238e+06 0.0000000000000000e+00 0.0000000000000000e+00 0.0000000000000000e+00 0.0000000000000000e+00  -1.5002828103024228e+07 -7.8907810439505232e+06 0.0000000000000000e+00 -7.8907810439505232e+06 -3.6683242309503509e+06 0.0000000000000000e+00 0.0000000000000000e+00 0.0000000000000000e+00 0.0000000000000000e+00  -1.3305815837313090e+07 -8.8346865064482726e+06 0.0000000000000000e+00 -8.8346865064482726e+06 -5.2124550937377205e+06 0.0000000000000000e+00 0.0000000000000000e+00 0.0000000000000000e+00 0.0000000000000000e+00  -1.2192419842244215e+07 -9.1580003203492034e+06 0.0000000000000000e+00 -9.1580003203492034e+06 -5.7684540098912679e+06 0.0000000000000000e+00 0.0000000000000000e+00 0.0000000000000000e+00 0.0000000000000000e+00  -1.1270869668591820e+07 -8.7724597310492992e+06 0.0000000000000000e+00 -8.7724597310492992e+06 -6.2024987002990898e+06 0.0000000000000000e+00 0.0000000000000000e+00 0.0000000000000000e+00 0.0000000000000000e+00  -7.2686225784762874e+06 -8.3282699544639708e+06 0.0000000000000000e+00 -8.3282699544639708e+06 -8.1698118425108949e+06 0.0000000000000000e+00 0.0000000000000000e+00 0.0000000000000000e+00 0.0000000000000000e+00  -6.2922602716969475e+06 -8.5443610409967620e+06 0.0000000000000000e+00 -8.5443610409967620e+06 -9.8175506301243193e+06 0.0000000000000000e+00 0.0000000000000000e+00 0.0000000000000000e+00 0.0000000000000000e+00  -4.5893508051867848e+06 -7.8052743752036812e+06 0.0000000000000000e+00 -7.8052743752036812e+06 -1.2073681622138534e+07 0.0000000000000000e+00 0.0000000000000000e+00 0.0000000000000000e+00 0.0000000000000000e+00  -3.4214130377660133e+06 -7.4321869115079921e+06 0.0000000000000000e+00 -7.4321869115079921e+06 -1.3514846365650423e+07 0.0000000000000000e+00 0.0000000000000000e+00 0.0000000000000000e+00 0.0000000000000000e+00  -3.6002118364122715e+06 -7.7749669361002212e+06 0.0000000000000000e+00 -7.7749669361002212e+06 -1.5853847094612021e+07 0.0000000000000000e+00 0.0000000000000000e+00 0.0000000000000000e+00 0.0000000000000000e+00  -2.7225331111247847e+06 -7.3851540461960593e+06 0.0000000000000000e+00 -7.3851540461960593e+06 -1.7137401818574663e+07 0.0000000000000000e+00 0.0000000000000000e+00 0.0000000000000000e+00 0.0000000000000000e+00  -4.7804764395178594e+06 -9.4608920479189735e+06 0.0000000000000000e+00 -9.4608920479189735e+06 -2.0685032413994767e+07 0.0000000000000000e+00 0.0000000000000000e+00 0.0000000000000000e+00 0.0000000000000000e+00  -8.4213243738810532e+06 -1.2084529385606335e+07 0.0000000000000000e+00 -1.2084529385606335e+07 -2.0604625048723243e+07 0.0000000000000000e+00 0.0000000000000000e+00 0.0000000000000000e+00 0.0000000000000000e+00  -5.2441301200026507e+06 -8.5298775900965594e+06 0.0000000000000000e+00 -8.5298775900965594e+06 -9.3162726828244943e+06 0.0000000000000000e+00 0.0000000000000000e+00 0.0000000000000000e+00 0.0000000000000000e+00  1.3460474106470235e+07 -8.8801196346677542e+06 0.0000000000000000e+00 -8.8801196346677542e+06 3.7477921786513994e+06 0.0000000000000000e+00 0.0000000000000000e+00 0.0000000000000000e+00 0.0000000000000000e+00  1.8817929960214909e+07 -1.3092864828499608e+07 0.0000000000000000e+00 -1.3092864828499608e+07 1.1049120917804532e+07 0.0000000000000000e+00 0.0000000000000000e+00 0.0000000000000000e+00 0.0000000000000000e+00  2.2906244416347276e+07 -2.0681107061498493e+07 0.0000000000000000e+00 -2.0681107061498493e+07 1.9477184504667394e+07 0.0000000000000000e+00 0.0000000000000000e+00 0.0000000000000000e+00 0.0000000000000000e+00  2.0580787027471785e+07 -2.2385312619403094e+07 0.0000000000000000e+00 -2.2385312619403094e+07 2.6505246668020997e+07 0.0000000000000000e+00 0.0000000000000000e+00 0.0000000000000000e+00 0.0000000000000000e+00  1.8573565793444064e+07 -2.4627428483896296e+07 0.0000000000000000e+00 -2.4627428483896296e+07 3.5150299498145923e+07 0.0000000000000000e+00 0.0000000000000000e+00 0.0000000000000000e+00 0.0000000000000000e+00  1.3517573681458700e+07 -2.3858273227499694e+07 0.0000000000000000e+00 -2.3858273227499694e+07 4.5493194347846530e+07 0.0000000000000000e+00 0.0000000000000000e+00 0.0000000000000000e+00 0.0000000000000000e+00  8.1793322395830695e+06 -1.7851246517046843e+07 0.0000000000000000e+00 -1.7851246517046843e+07 4.6573556178137571e+07 0.0000000000000000e+00 0.0000000000000000e+00 0.0000000000000000e+00 0.0000000000000000e+00  2.7553185679702349e+06 -1.4180957642809700e+07 0.0000000000000000e+00 -1.4180957642809700e+07 5.4304371983352810e+07 0.0000000000000000e+00 0.0000000000000000e+00 0.0000000000000000e+00 0.0000000000000000e+00  3.2286215485165832e+06 -1.2872907622204514e+07 0.0000000000000000e+00 -1.2872907622204514e+07 5.2765699756439261e+07 0.0000000000000000e+00 0.0000000000000000e+00 0.0000000000000000e+00 0.0000000000000000e+00  3.0468304785120056e+05 -6.7043680705000479e+06 0.0000000000000000e+00 -6.7043680705000479e+06 4.7890426287239872e+07 0.0000000000000000e+00 0.0000000000000000e+00 0.0000000000000000e+00 0.0000000000000000e+00  2.7573624951842497e+06 -2.9937958894226062e+06 0.0000000000000000e+00 -2.9937958894226062e+06 4.4228821198589265e+07 0.0000000000000000e+00 0.0000000000000000e+00 0.0000000000000000e+00 0.0000000000000000e+00  -2.4310882302684383e+05 3.8935746360598253e+06 0.0000000000000000e+00 3.8935746360598253e+06 4.7157031915087819e+07 0.0000000000000000e+00 0.0000000000000000e+00 0.0000000000000000e+00 0.0000000000000000e+00  2.5201436141200113e+05 3.3378375459871208e+06 0.0000000000000000e+00 3.3378375459871208e+06 3.3560774473551810e+07 0.0000000000000000e+00 0.0000000000000000e+00 0.0000000000000000e+00 0.0000000000000000e+00  1.4458212147958986e+06 6.1926476669052504e+06 0.0000000000000000e+00 6.1926476669052504e+06 3.1411878896961734e+07 0.0000000000000000e+00 0.0000000000000000e+00 0.0000000000000000e+00 0.0000000000000000e+00  1.3659835365171058e+06 6.1872888279488310e+06 0.0000000000000000e+00 6.1872888279488310e+06 2.5199048539625000e+07 0.0000000000000000e+00 0.0000000000000000e+00 0.0000000000000000e+00 0.0000000000000000e+00  1.3035865562639523e+06 4.9326189263615850e+06 0.0000000000000000e+00 4.9326189263615850e+06 1.6583425128936719e+07 0.0000000000000000e+00 0.0000000000000000e+00 0.0000000000000000e+00 0.0000000000000000e+00  -1.5304641275297599e+04 2.2284996200746577e+06 0.0000000000000000e+00 2.2284996200746577e+06 7.7874218818556946e+06 0.0000000000000000e+00 0.0000000000000000e+00 0.0000000000000000e+00 0.0000000000000000e+00  -3.1276482878769841e+06 -3.0556512849978646e+06 0.0000000000000000e+00 -3.0556512849978646e+06 -1.3567324802492582e+06 0.0000000000000000e+00 0.0000000000000000e+00 0.0000000000000000e+00 0.0000000000000000e+00  -8.8844391941938866e+06 -8.0255860604641242e+06 0.0000000000000000e+00 -8.0255860604641242e+06 -7.1107345599062024e+06 0.0000000000000000e+00 0.0000000000000000e+00 0.0000000000000000e+00 0.0000000000000000e+00  -1.9605457364979282e+07 -1.3577065303319514e+07 0.0000000000000000e+00 -1.3577065303319514e+07 -9.7844736847215779e+06 0.0000000000000000e+00 0.0000000000000000e+00 0.0000000000000000e+00 0.0000000000000000e+00  -3.3583151768986493e+07 -1.7852450299083374e+07 0.0000000000000000e+00 -1.7852450299083374e+07 -1.0834269503910411e+07 0.0000000000000000e+00 0.0000000000000000e+00 0.0000000000000000e+00 0.0000000000000000e+00  -5.7252592204657562e+07 -1.9507544237054262e+07 0.0000000000000000e+00 -1.9507544237054262e+07 -7.4584617139296401e+06 0.0000000000000000e+00 0.0000000000000000e+00 0.0000000000000000e+00 0.0000000000000000e+00  -9.9922886943748161e+07 9.6618718798072863e+04 0.0000000000000000e+00 9.6618718798072863e+04 -9.2698957190948632e+06 0.0000000000000000e+00 0.0000000000000000e+00 0.0000000000000000e+00 0.0000000000000000e+00  -9.4275302018378794e+07 3.5891603688724801e+07 0.0000000000000000e+00 3.5891603688724801e+07 -2.8210381801708039e+07 0.0000000000000000e+00 0.0000000000000000e+00 0.0000000000000000e+00 0.0000000000000000e+00  -3.6404727877866618e+07 3.1819950123788871e+07 0.0000000000000000e+00 3.1819950123788871e+07 -3.1239919539649166e+07 0.0000000000000000e+00 0.0000000000000000e+00 0.0000000000000000e+00 0.0000000000000000e+00  -1.0755595930580189e+07 1.3294953370384431e+07 0.0000000000000000e+00 1.3294953370384431e+07 -1.9353403432539143e+07 0.0000000000000000e+00 0.0000000000000000e+00 0.0000000000000000e+00 0.0000000000000000e+00  -2.4498612422182225e+06 5.8944860280182296e+06 0.0000000000000000e+00 5.8944860280182296e+06 -1.1085078793921730e+07 0.0000000000000000e+00 0.0000000000000000e+00 0.0000000000000000e+00 0.0000000000000000e+00  -1.3457502197391181e+06 2.7992367641621367e+06 0.0000000000000000e+00 2.7992367641621367e+06 -5.8564909895214057e+06 0.0000