<?xml version="1.0"?>
<VTKFile type="UnstructuredGrid"  version="0.1"  >
<UnstructuredGrid>
<Piece  NumberOfPoints="11925" NumberOfCells="22284">
<Points>
<DataArray  type="Float64"  NumberOfComponents="3"  format="ascii">0.009106770432969287 0.0084582340381214 0  0.009141919339108864 0.008441218550270694 0  0.009203598740601114 0.008393845335784609 0  0.009248431083532146 0.008349860421943302 0  0.009296575788899144 0.008291876136114247 0  0.00934265184641383 0.008225659869648794 0  0.009393578065451109 0.008122249398276498 0  0.009424875532860347 0.008002512562814071 0  0.009449530416649156 0.007942856790653622 0  0.009467776063564975 0.007776381909547738 0  0.009496347239411999 0.007611274617662952 0  0.009499145002853376 0.007525125628140703 0  0.009496347239411999 0.007464102266759158 0  0.009467776063564975 0.007298994974874372 0  0.009449530416649156 0.007132520093768488 0  0.009424875532860347 0.00707286432160804 0  0.009393578065451109 0.006953127486145613 0  0.00934265184641383 0.006849717014773317 0  0.009296575788899144 0.006783500748307864 0  0.009248431083532146 0.006725516462478808 0  0.009203598740601114 0.006681531548637502 0  0.009141919338909114 0.006634158334151417 0  0.009106770432902705 0.006617142873950686 0  0.009057788944723618 0.006598443490950575 0  0.009035429646949504 0.006603784476015589 0  0.009003273865471631 0.006637537337391888 0  0.008992706568800921 0.006658843167954558 0  0.008972489432160457 0.006721105527638192 0  0.008943689764150664 0.006775124298212487 0  0.008927575292032289 0.006821608040201005 0  0.008858421521121648 0.006940476521074617 0  0.008818283204798657 0.006994423939357116 0  0.008742251619928807 0.007081030046222233 0  0.008689386069399707 0.007127977288024682 0  0.00865169762718865 0.007155237400276061 0  0.008598593426450953 0.007187519986677493 0  0.008503029036046951 0.007258952469496642 0  0.008441469295249169 0.007286330637148408 0  0.008404275359722921 0.007310151607682054 0  0.008340789248380142 0.007336567990292792 0  0.008278894472361808 0.007370606062816746 0  0.008227853892241668 0.007385785667750049 0  0.008178391959798996 0.007406751625964 0  0.008013447788775593 0.00743563391875675 0  0.007952261306532662 0.007456731513377061 0  0.007902010050251256 0.007466988976395871 0  0.007550251256281408 0.00748107426496475 0  0.007173366834170854 0.007466988976395871 0  0.007123115577889447 0.007456731513377061 0  0.007061929095646517 0.00743563391875675 0  0.006896984924623115 0.007406751625964 0  0.006771663215364072 0.00735919225436318 0  0.006734587636041969 0.007336567990292792 0  0.006695979899497487 0.00732259899495977 0  0.006633907589172942 0.007286330637148408 0  0.00657234784837516 0.007258952469496642 0  0.006476783457971159 0.007187519986677493 0  0.006385990815022405 0.007127977288024682 0  0.006333125264493302 0.007081030046222233 0  0.006244530865553103 0.006978164963285671 0  0.006205048905315104 0.00692211055276382 0  0.006159330552520386 0.006845248264868939 0  0.006131687120271447 0.006775124298212487 0  0.006102887452261655 0.006721105527638192 0  0.006082670315621189 0.006658843167954558 0  0.006072103018950479 0.006637537337391888 0  0.006039947237472605 0.006603784476015589 0  0.006017587939698492 0.006598443490950575 0  0.005933457545512996 0.006634158334151417 0  0.005871778143820997 0.006681531548637502 0  0.005826945800889965 0.006725516462478808 0  0.005778801095522966 0.006783500748307864 0  0.005732725038008282 0.006849717014773317 0  0.005681798818971001 0.006953127486145613 0  0.005650501351561765 0.00707286432160804 0  0.005625846467772956 0.007132520093768488 0  0.005607600820857134 0.007298994974874372 0  0.005577737985543962 0.00747666508082951 0  0.005579029645010113 0.007611274617662952 0  0.005607600820857134 0.007776381909547738 0  0.005625846467772956 0.007942856790653622 0  0.005650501351561765 0.008002512562814071 0  0.005676707781126685 0.008109686584206147 0  0.005732725038008282 0.008225659869648794 0  0.005778801095522966 0.008291876136114247 0  0.00583916892901236 0.008362423236013654 0  0.005871778143820997 0.008393845335784609 0  0.005933457545313248 0.008441218550270694 0  0.005968606451452823 0.0084582340381214 0  0.006017587939698492 0.008476935349731016 0  0.006039947427631444 0.008471594355449344 0  0.006059540775356642 0.008452005488667369 0  0.006077635869842498 0.008429097268812035 0  0.006102887452261655 0.00835427135678392 0  0.006131687120271447 0.008300252586209624 0  0.006159330552520386 0.008230128619553171 0  0.006216955363300465 0.008134900363347493 0  0.006257093679623455 0.008080952945064994 0  0.006333125264493302 0.007994346838199877 0  0.006370813706704358 0.007959962410467781 0  0.00642367925723346 0.007920139484146049 0  0.006476783457971159 0.007887856897744617 0  0.00657234784837516 0.007816424414925468 0  0.006633907589172942 0.007789046247273704 0  0.006671101524699189 0.007765225276740057 0  0.006734587636041969 0.007738808894129319 0  0.006796482412060302 0.007704770821605365 0  0.00692211055276382 0.00766245157494053 0  0.007061929095646517 0.007639742965665362 0  0.007123115577889447 0.007618645371045051 0  0.007173366834170854 0.00760838790802624 0  0.007525125628140703 0.00759430261945736 0  0.007902010050251256 0.00760838790802624 0  0.007952261306532662 0.007618645371045051 0  0.008013447788775593 0.007639742965665362 0  0.00815326633165829 0.00766245157494053 0  0.008278894472361808 0.007704770821605365 0  0.008340789248380142 0.007738808894129319 0  0.008404275359722921 0.007765225276740057 0  0.008441469295249169 0.007789046247273704 0  0.008503029036046951 0.007816424414925468 0  0.008598593426450953 0.007887856897744617 0  0.00865169762718865 0.007920139484146049 0  0.008704563177717754 0.007959962410467781 0  0.008742251619928807 0.007994346838199877 0  0.008818283204798657 0.008080952945064994 0  0.008858421521121648 0.008134900363347493 0  0.008916046331901725 0.008230128619553171 0  0.008943689764150664 0.008300252586209624 0  0.008972489432160457 0.00835427135678392 0  0.008997741014579612 0.008429097268812035 0  0.009015836109065469 0.008452005488667369 0  0.009035429456790667 0.008471594355449344 0  0.009057788944723618 0.008476935349731016 0  0.000584560956065443 0.0006566731908302978 0  0.0004648241206030151 0.0006253757234210605 0  0.0006879714274377391 0.0007075994098675775 0  0.0004051683484425679 0.0006007208396322515 0  0.0007541876939031931 0.0007536754673822622 0  0.0002386934673366834 0.0005824751927164302 0  0.0008121719797322475 0.0008018201727492608 0  7.895734593675217e-05 0.0005538767054284305 0  0.000856156893573553 0.0008466525156802934 0  0 0.0005480494466900812 0  0.0009035301080596382 0.0009083319171725436 0  0 0 0  0.000939246867973806 0.0009924623115577891 0  0.01 0 0  0.0009339058736921331 0.001014821772831462 0  0.01 0.0005571664569146784 0  0.0008914087205285403 0.001052510215042517 0  0.009937185929648241 0.0005602048678154705 0  0.0008165829145728644 0.00107776182261448 0  0.009811557788944724 0.0005824755727250804 0  0.0007625641439985681 0.001106561492130742 0  0.00964508290783884 0.0006007208396322515 0  0.0006924401773421158 0.001134204924379682 0  0.009585427135678391 0.0006253757234210605 0  0.000597211921136439 0.001191829735159762 0  0.009478253114286317 0.0006515821529859823 0  0.0005055760606428836 0.00126320124586456 0  0.00937484264291402 0.0007001169347433132 0  0.0004537270030180498 0.001310933582424631 0  0.009296063562378215 0.0007536754673822622 0  0.0004097111541863734 0.001360865186881701 0  0.00923807927654916 0.0008018201727492608 0  0.0003501684555335619 0.001451657829830455 0  0.009194094362707853 0.0008466525156802934 0  0.0002787359727144142 0.001547222220234457 0  0.009146721148221768 0.0009083319171725436 0  0.0002513578050626486 0.001608781961032239 0  0.0091110043883076 0.0009924623115577891 0  0.0002275368345290006 0.001645975896558485 0  0.009116345382589274 0.001014821785907898 0  0.0002011204519182638 0.001709462007901265 0  0.009158842483081762 0.001052510228118953 0  0.0001670823793943093 0.001771356783919598 0  0.009233668341708544 0.001077761824120951 0  0.0001247631327294741 0.001896984924623115 0  0.009287687112282839 0.001106561492130742 0  0.0001020545234543062 0.002036803467505815 0  0.009357811078939291 0.001134204924379682 0  8.096507571907495e-05 0.002097989949748744 0  0.009453039335144969 0.001191829735159762 0  7.071342713566267e-05 0.002148241206030151 0  0.009544675195638523 0.00126320124586456 0  5.669507456120024e-05 0.0025 0  0.009596524253263357 0.001310933582424631 0  7.071342713566267e-05 0.002876884422110553 0  0.009640540102095033 0.001360865186881701 0  8.096507571907495e-05 0.00292713567839196 0  0.009700082800747845 0.001451657829830455 0  0.0001020545234543062 0.002988322160634889 0  0.009771515283566994 0.001547222220234457 0  0.0001247631327294741 0.003128140703517588 0  0.009798893451218758 0.001608781961032239 0  0.0001670823793943093 0.003253768844221106 0  0.009822714421752407 0.001645975896558485 0  0.0002011204519182638 0.003315663620239438 0  0.009849130804363143 0.001709462007901265 0  0.0002275368345290006 0.003379149731582219 0  0.009883168876887099 0.001771356783919598 0  0.0002513578050626486 0.003416343667108464 0  0.009925488123551932 0.001896984924623115 0  0.0002787359727144142 0.003477903407906247 0  0.009948196732827102 0.002036803467505815 0  0.0003501684555335619 0.003573467798310248 0  0.009969286180562333 0.002097989949748744 0  0.0004097111541863734 0.003664260441259002 0  0.009979537829145744 0.002148241206030151 0  0.0004537270030180498 0.003714192045716073 0  0.009993556181720207 0.0025 0  0.0005055760606428836 0.003761924382276144 0  0.009979537829145744 0.002876884422110553 0  0.000597211921136439 0.003833295892980942 0  0.009969286180562333 0.00292713567839196 0  0.0006924401773421158 0.003890920703761021 0  0.009948196732827102 0.002988322160634889 0  0.0007625641439985681 0.003918564136009961 0  0.009925488123551932 0.0031281407035175
[...]
<PointData  Tensors="$\sigma$"> 
<DataArray  type="Float64"  Name="$\sigma$"  NumberOfComponents="9" format="ascii">3.1332902175329961e+07 -1.5285682567676293e+07 0.0000000000000000e+00 -1.5285682567676282e+07 8.5112437445195932e+06 0.0000000000000000e+00 0.0000000000000000e+00 0.0000000000000000e+00 0.0000000000000000e+00  3.1986167693693027e+07 -2.2543559654942475e+07 0.0000000000000000e+00 -2.2543559654942460e+07 1.7593477440255206e+07 0.0000000000000000e+00 0.0000000000000000e+00 0.0000000000000000e+00 0.0000000000000000e+00  3.4102827628992274e+07 -2.9909485592596468e+07 0.0000000000000000e+00 -2.9909485592596471e+07 2.7242577249827445e+07 0.0000000000000000e+00 0.0000000000000000e+00 0.0000000000000000e+00 0.0000000000000000e+00  3.2874973124973848e+07 -3.5419329288664386e+07 0.0000000000000000e+00 -3.5419329288664393e+07 3.9706200112837397e+07 0.0000000000000000e+00 0.0000000000000000e+00 0.0000000000000000e+00 0.0000000000000000e+00  2.7174358538539115e+07 -3.4037365246418722e+07 0.0000000000000000e+00 -3.4037365246418722e+07 5.0172204203631572e+07 0.0000000000000000e+00 0.0000000000000000e+00 0.0000000000000000e+00 0.0000000000000000e+00  2.2890053361568563e+07 -3.9502378891459964e+07 0.0000000000000000e+00 -3.9502378891459957e+07 6.9823736729861513e+07 0.0000000000000000e+00 0.0000000000000000e+00 0.0000000000000000e+00 0.0000000000000000e+00  1.2907894933305955e+07 -2.7987090352043744e+07 0.0000000000000000e+00 -2.7987090352043744e+07 7.4583537054562032e+07 0.0000000000000000e+00 0.0000000000000000e+00 0.0000000000000000e+00 0.0000000000000000e+00  5.4709153202995062e+06 -2.4436667694367364e+07 0.0000000000000000e+00 -2.4436667694367364e+07 8.7561746789688393e+07 0.0000000000000000e+00 0.0000000000000000e+00 0.0000000000000000e+00 0.0000000000000000e+00  4.9108565364867533e+06 -2.0087331298908692e+07 0.0000000000000000e+00 -2.0087331298908692e+07 9.1260325567680702e+07 0.0000000000000000e+00 0.0000000000000000e+00 0.0000000000000000e+00 0.0000000000000000e+00  1.1464802203526767e+06 -1.1715319528856127e+07 0.0000000000000000e+00 -1.1715319528856127e+07 8.2165286723873451e+07 0.0000000000000000e+00 0.0000000000000000e+00 0.0000000000000000e+00 0.0000000000000000e+00  4.4920701006861655e+06 -1.0667228944100179e+07 0.0000000000000000e+00 -1.0667228944100175e+07 9.0595551873316690e+07 0.0000000000000000e+00 0.0000000000000000e+00 0.0000000000000000e+00 0.0000000000000000e+00  3.0753798335437840e+06 -2.0853079073580625e+05 0.0000000000000000e+00 -2.0853079073580660e+05 1.1366648732272324e+08 0.0000000000000000e+00 0.0000000000000000e+00 0.0000000000000000e+00 0.0000000000000000e+00  1.1190683104976155e+06 7.7870525407268414e+06 0.0000000000000000e+00 7.7870525407268470e+06 8.6937174967702881e+07 0.0000000000000000e+00 0.0000000000000000e+00 0.0000000000000000e+00 0.0000000000000000e+00  -2.8361357944604981e+05 8.9752993473555353e+06 0.0000000000000000e+00 8.9752993473555259e+06 7.1535763087741643e+07 0.0000000000000000e+00 0.0000000000000000e+00 0.0000000000000000e+00 0.0000000000000000e+00  3.8070190738718039e+06 1.3845752124597063e+07 0.0000000000000000e+00 1.3845752124597076e+07 7.3635735274780244e+07 0.0000000000000000e+00 0.0000000000000000e+00 0.0000000000000000e+00 0.0000000000000000e+00  4.9242099468380734e+06 1.8874101667408567e+07 0.0000000000000000e+00 1.8874101667408548e+07 6.6355977161164418e+07 0.0000000000000000e+00 0.0000000000000000e+00 0.0000000000000000e+00 0.0000000000000000e+00  8.1265054243277423e+06 1.9454948990067594e+07 0.0000000000000000e+00 1.9454948990067594e+07 5.4840511743819907e+07 0.0000000000000000e+00 0.0000000000000000e+00 0.0000000000000000e+00 0.0000000000000000e+00  1.3745090227276279e+07 2.4315057370677117e+07 0.0000000000000000e+00 2.4315057370677099e+07 4.3913744030270830e+07 0.0000000000000000e+00 0.0000000000000000e+00 0.0000000000000000e+00 0.0000000000000000e+00  1.2789624876029724e+07 1.7437035329598997e+07 0.0000000000000000e+00 1.7437035329599001e+07 2.8127177443303574e+07 0.0000000000000000e+00 0.0000000000000000e+00 0.0000000000000000e+00 0.0000000000000000e+00  1.4323300815805651e+07 1.5633678898649924e+07 0.0000000000000000e+00 1.5633678898649920e+07 1.8739221405073967e+07 0.0000000000000000e+00 0.0000000000000000e+00 0.0000000000000000e+00 0.0000000000000000e+00  8.5308570418237709e+06 8.4668261388660986e+06 0.0000000000000000e+00 8.4668261388660949e+06 8.5012614818849880e+06 0.0000000000000000e+00 0.0000000000000000e+00 0.0000000000000000e+00 0.0000000000000000e+00  1.7503458567504320e+05 1.7732369344281519e+06 0.0000000000000000e+00 1.7732369344281536e+06 2.1368457427213630e+06 0.0000000000000000e+00 0.0000000000000000e+00 0.0000000000000000e+00 0.0000000000000000e+00  -1.4574870878575096e+07 -8.2599934767120387e+06 0.0000000000000000e+00 -8.2599934767120387e+06 6.4373843800001196e+05 0.0000000000000000e+00 0.0000000000000000e+00 0.0000000000000000e+00 0.0000000000000000e+00  -7.4317711515974522e+07 4.1155587240224006e+06 0.0000000000000000e+00 4.1155587240224052e+06 -5.8237969057144364e+06 0.0000000000000000e+00 0.0000000000000000e+00 0.0000000000000000e+00 0.0000000000000000e+00  -9.6812767258053616e+07 5.4982783123208292e+07 0.0000000000000000e+00 5.4982783123208292e+07 -4.1086301868949071e+07 0.0000000000000000e+00 0.0000000000000000e+00 0.0000000000000000e+00 0.0000000000000000e+00  -4.2849209226271838e+07 5.9634236266841590e+07 0.0000000000000000e+00 5.9634236266841590e+07 -8.6926865692093194e+07 0.0000000000000000e+00 0.0000000000000000e+00 0.0000000000000000e+00 0.0000000000000000e+00  -1.6304584334225563e+07 3.4282113662846394e+07 0.0000000000000000e+00 3.4282113662846394e+07 -8.3700507424554408e+07 0.0000000000000000e+00 0.0000000000000000e+00 0.0000000000000000e+00 0.0000000000000000e+00  -1.0942344235297648e+07 2.7026881682792865e+07 0.0000000000000000e+00 2.7026881682792865e+07 -6.1844227198607340e+07 0.0000000000000000e+00 0.0000000000000000e+00 0.0000000000000000e+00 0.0000000000000000e+00  -1.1819760969789242e+07 2.6642546060622845e+07 0.0000000000000000e+00 2.6642546060622845e+07 -6.0073958840298258e+07 0.0000000000000000e+00 0.0000000000000000e+00 0.0000000000000000e+00 0.0000000000000000e+00  -1.2320433501723211e+07 2.7840515756118570e+07 0.0000000000000000e+00 2.7840515756118570e+07 -5.1943516086025544e+07 0.0000000000000000e+00 0.0000000000000000e+00 0.0000000000000000e+00 0.0000000000000000e+00  -1.7298086838392440e+07 2.8978882688348517e+07 0.0000000000000000e+00 2.8978882688348517e+07 -4.5435225657423027e+07 0.0000000000000000e+00 0.0000000000000000e+00 0.0000000000000000e+00 0.0000000000000000e+00  -2.5775379743983388e+07 3.2417430508990575e+07 0.0000000000000000e+00 3.2417430508990575e+07 -3.6861574740609095e+07 0.0000000000000000e+00 0.0000000000000000e+00 0.0000000000000000e+00 0.0000000000000000e+00  -2.8862829999595646e+07 3.1691482622605044e+07 0.0000000000000000e+00 3.1691482622605044e+07 -3.1471717861557662e+07 0.0000000000000000e+00 0.0000000000000000e+00 0.0000000000000000e+00 0.0000000000000000e+00  -3.5730829913958170e+07 2.9431879060952637e+07 0.0000000000000000e+00 2.9431879060952637e+07 -2.2582135045576736e+07 0.0000000000000000e+00 0.0000000000000000e+00 0.0000000000000000e+00 0.0000000000000000e+00  -4.7872702500319123e+07 3.4082907243667819e+07 0.0000000000000000e+00 3.4082907243667819e+07 -2.1743645205539282e+07 0.0000000000000000e+00 0.0000000000000000e+00 0.0000000000000000e+00 0.0000000000000000e+00  -5.0464539754808798e+07 3.4996838151482217e+07 0.0000000000000000e+00 3.4996838151482217e+07 -2.5194624207648098e+07 0.0000000000000000e+00 0.0000000000000000e+00 0.0000000000000000e+00 0.0000000000000000e+00  -4.7707216057992272e+07 3.1258675231698133e+07 0.0000000000000000e+00 3.1258675231698133e+07 -1.7711906582054604e+07 0.0000000000000000e+00 0.0000000000000000e+00 0.0000000000000000e+00 0.0000000000000000e+00  -5.5053377538591094e+07 2.8509636318156973e+07 0.0000000000000000e+00 2.8509636318156973e+07 -1.4582634023386264e+07 0.0000000000000000e+00 0.0000000000000000e+00 0.0000000000000000e+00 0.0000000000000000e+00  -5.8092727303059287e+07 2.8471197324996769e+07 0.0000000000000000e+00 2.8471197324996773e+07 -1.3377698373773245e+07 0.0000000000000000e+00 0.0000000000000000e+00 0.0000000000000000e+00 0.0000000000000000e+00  -5.5188187543951973e+07 2.6320227600615691e+07 0.0000000000000000e+00 2.6320227600615703e+07 -1.1679297137400927e+07 0.0000000000000000e+00 0.0000000000000000e+00 0.0000000000000000e+00 0.0000000000000000e+00  -5.4062506158362016e+07 2.2110748915958077e+07 0.0000000000000000e+00 2.2110748915958084e+07 -1.0053158687355502e+07 0.0000000000000000e+00 0.0000000000000000e+00 0.0000000000000000e+00 0.0000000000000000e+00  -5.0976803281198978e+07 2.1367287125422362e+07 0.0000000000000000e+00 2.1367287125422344e+07 -6.1699093425097195e+06 0.0000000000000000e+00 0.0000000000000000e+00 0.0000000000000000e+00 0.0000000000000000e+00  -5.9666203878334798e+07 1.3741863570229510e+07 0.0000000000000000e+00 1.3741863570229515e+07 -3.6576952795179035e+06 0.0000000000000000e+00 0.0000000000000000e+00 0.0000000000000000e+00 0.0000000000000000e+00  -6.4740398037357040e+07 1.2191882816888113e+07 0.0000000000000000e+00 1.2191882816888122e+07 -1.5665930468632795e+06 0.0000000000000000e+00 0.0000000000000000e+00 0.0000000000000000e+00 0.0000000000000000e+00  -6.4561945825601548e+07 1.8944977960126679e+07 0.0000000000000000e+00 1.8944977960126679e+07 -7.7208609686163869e+06 0.0000000000000000e+00 0.0000000000000000e+00 0.0000000000000000e+00 0.0000000000000000e+00  -6.4365346707036041e+07 8.2006293336202353e+06 0.0000000000000000e+00 8.2006293336202353e+06 1.0645329585753601e+07 0.0000000000000000e+00 0.0000000000000000e+00 0.0000000000000000e+00 0.0000000000000000e+00  -5.6247470076130800e+07 -1.5283617574243870e+05 0.0000000000000000e+00 -1.5283617574243961e+05 1.5996622277660510e+06 0.0000000000000000e+00 0.0000000000000000e+00 0.0000000000000000e+00 0.0000000000000000e+00  -5.7012396874450788e+07 -8.3398343386632167e+06 0.0000000000000000e+00 -8.3398343386632074e+06 1.1000752363841474e+07 0.0000000000000000e+00 0.0000000000000000e+00 0.0000000000000000e+00 0.0000000000000000e+00  -5.5565718054830752e+07 -1.6103624616027812e+07 0.0000000000000000e+00 -1.6103624616027828e+07 -6.0766180386512913e+06 0.0000000000000000e+00 0.0000000000000000e+00 0.0000000000000000e+00 0.0000000000000000e+00  -5.5049359656734221e+07 -1.0119157982949194e+07 0.0000000000000000e+00 -1.0119157982949182e+07 -1.5402593239280379e+06 0.0000000000000000e+00 0.0000000000000000e+00 0.0000000000000000e+00 0.0000000000000000e+00  -4.5235743556342259e+07 -1.2686730883017166e+07 0.0000000000000000e+00 -1.2686730883017175e+07 -2.3621388636178635e+06 0.0000000000000000e+00 0.0000000000000000e+00 0.0000000000000000e+00 0.0000000000000000e+00  -3.8930640611482970e+07 -1.7900282156670436e+07 0.0000000000000000e+00 -1.7900282156670433e+07 -7.9464555327185793e+06 0.0000000000000000e+00 0.0000000000000000e+00 0.0000000000000000e+00 0.0000000000000000e+00  -4.3593258586466327e+07 -2.1614663318078320e+07 0.0000000000000000e+00 -2.1614663318078313e+07 -1.0298309895210879e+07 0.0000000000000000e+00 0.0000000000000000e+00 0.0000000000000000e+00 0.0000000000000000e+00  -4.2185195308011912e+07 -2.1169597101929419e+07 0.0000000000000000e+00 -2.1169597101929419e+07 -1.0836019381908569e+07 0.0000000000000000e+00 0.0000000000000000e+00 0.0000000000000000e+00 0.0000000000000000e+00  -3.9561358017432071e+07 -2.0969374056696318e+07 0.0000000000000000e+00 -2.0969374056696307e+07 -9.7377348820299767e+06 0.0000000000000000e+00 0.0000000000000000e+00 0.0000000000000000e+00 0.0000000000000000e+00  -3.5270165054114968e+07 -2.2935316362470608e+07 0.0000000000000000e+00 -2.2935316362470623e+07 -1.4044338022048539e+07 0.0000000000000000e+00 0.0000000000000000e+00 0.0000000000000000e+00 0.0000000000000000e+00  -3.2801274867565624e+07 -2.4247767194679525e+07 0.0000000000000000e+00 -2.4247767194679521e+07 -1.5816430733959179e+07 0.0000000000000000e+00 0.0000000000000000e+00 0.0000000000000000e+00 0.0000000000000000e+00  -3.0183595692428485e+07 -2.2648427392884847e+07 0.0000000000000000e+00 -2.2648427392884847e+07 -1.5912857692082668e+07 0.0000000000000000e+00 0.0000000000000000e+00 0.0000000000000000e+00 0.0000000000000000e+00  -1.9296613711043555e+07 -2.1655360966887090e+07 0.0000000000000000e+00 -2.1655360966887090e+07 -2.1382615576629728e+07 0.0000000000000000e+00 0.0000000000000000e+00 0.0000000000000000e+00 0.0000000000000000e+00  -1.6978142953105468e+07 -2.2548559641370665e+07 0.0000000000000000e+00 -2.2548559641370665e+07 -2.6594577210518841e+07 0.0000000000000000e+00 0.0000000000000000e+00 0.0000000000000000e+00 0.0000000000000000e+00  -1.2238734823752984e+07 -2.0269909060066901e+07 0.0000000000000000e+00 -2.0269909060066901e+07 -3.1621878011304423e+07 0.0000000000000000e+00 0.0000000000000000e+00 0.0000000000000000e+00 0.0000000000000000e+00  -8.9557515586738568e+06 -1.9371719640543375e+07 0.0000000000000000e+00 -1.9371719640543375e+07 -3.6091910394933686e+07 0.0000000000000000e+00 0.0000000000000000e+00 0.0000000000000000e+00 0.0000000000000000e+00  -9.6990661824658401e+06 -2.0581740987399247e+07 0.0000000000000000e+00 -2.0581740987399247e+07 -4.2554410327810735e+07 0.0000000000000000e+00 0.0000000000000000e+00 0.0000000000000000e+00 0.0000000000000000e+00  -7.1255763212096235e+06 -1.9096098182888027e+07 0.0000000000000000e+00 -1.9096098182888027e+07 -4.4819534522904083e+07 0.0000000000000000e+00 0.0000000000000000e+00 0.0000000000000000e+00 0.0000000000000000e+00  -1.1164518819184253e+07 -2.3458963400400825e+07 0.0000000000000000e+00 -2.3458963400400825e+07 -5.6115336065295905e+07 0.0000000000000000e+00 0.0000000000000000e+00 0.0000000000000000e+00 0.0000000000000000e+00  -2.3741066320529852e+07 -3.3460632569223527e+07 0.0000000000000000e+00 -3.3460632569223527e+07 -5.3787544456818178e+07 0.0000000000000000e+00 0.0000000000000000e+00 0.0000000000000000e+00 0.0000000000000000e+00  -1.7807799833349999e+07 -2.0739514543630578e+07 0.0000000000000000e+00 -2.0739514543630578e+07 -2.3475219824198663e+07 0.0000000000000000e+00 0.0000000000000000e+00 0.0000000000000000e+00 0.0000000000000000e+00  3.4821561224841028e+07 -2.0141051116164103e+07 0.0000000000000000e+00 -2.0141051116164103e+07 7.6738522483164622e+06 0.0000000000000000e+00 0.0000000000000000e+00 0.0000000000000000e+00 0.0000000000000000e+00  5.2424181176424302e+07 -3.4693618137056954e+07 0.0000000000000000e+00 -3.4693618137056954e+07 2.7446149548147231e+07 0.0000000000000000e+00 0.0000000000000000e+00 0.0000000000000000e+00 0.0000000000000000e+00  6.1527571214532830e+07 -5.5274525289625615e+07 0.0000000000000000e+00 -5.5274525289625630e+07 5.0975435438776545e+07 0.0000000000000000e+00 0.0000000000000000e+00 0.0000000000000000e+00 0.0000000000000000e+00  5.3605741295656301e+07 -5.8857449081399143e+07 0.0000000000000000e+00 -5.8857449081399150e+07 6.9120572047574595e+07 0.0000000000000000e+00 0.0000000000000000e+00 0.0000000000000000e+00 0.0000000000000000e+00  4.9719548293039918e+07 -6.5002814648972027e+07 0.0000000000000000e+00 -6.5002814648972042e+07 8.9033381056115597e+07 0.0000000000000000e+00 0.0000000000000000e+00 0.0000000000000000e+00 0.0000000000000000e+00  3.7350399431527793e+07 -6.4949816020399973e+07 0.0000000000000000e+00 -6.4949816020399936e+07 1.1986744662576571e+08 0.0000000000000000e+00 0.0000000000000000e+00 0.0000000000000000e+00 0.0000000000000000e+00  2.1559943438437298e+07 -4.7067483169696458e+07 0.0000000000000000e+00 -4.7067483169696458e+07 1.2415653084455977e+08 0.0000000000000000e+00 0.0000000000000000e+00 0.0000000000000000e+00 0.0000000000000000e+00  8.6386982368979454e+06 -3.8966164341189951e+07 0.0000000000000000e+00 -3.8966164341189951e+07 1.4157888274892136e+08 0.0000000000000000e+00 0.0000000000000000e+00 0.0000000000000000e+00 0.0000000000000000e+00  8.2013882437335625e+06 -3.2129670773869593e+07 0.0000000000000000e+00 -3.2129670773869593e+07 1.4043329648110867e+08 0.0000000000000000e+00 0.0000000000000000e+00 0.0000000000000000e+00 0.0000000000000000e+00  1.5854592441105223e+06 -1.9450531234890748e+07 0.0000000000000000e+00 -1.9450531234890748e+07 1.2794181888407032e+08 0.0000000000000000e+00 0.0000000000000000e+00 0.0000000000000000e+00 0.0000000000000000e+00  6.5466193237304147e+06 -8.4034107303226236e+06 0.0000000000000000e+00 -8.4034107303226236e+06 1.2223389639916959e+08 0.0000000000000000e+00 0.0000000000000000e+00 0.0000000000000000e+00 0.0000000000000000e+00  9.5959408426350355e+05 1.2954633153280614e+07 0.0000000000000000e+00 1.2954633153280614e+07 1.2850224562520006e+08 0.0000000000000000e+00 0.0000000000000000e+00 0.0000000000000000e+00 0.0000000000000000e+00  1.4307700144781661e+06 1.0094013482855121e+07 0.0000000000000000e+00 1.0094013482855121e+07 8.8555299420751914e+07 0.0000000000000000e+00 0.0000000000000000e+00 0.0000000000000000e+00 0.0000000000000000e+00  3.4169998615478524e+06 1.6061909822214181e+07 0.0000000000000000e+00 1.6061909822214181e+07 8.1718902010810390e+07 0.0000000000000000e+00 0.0000000000000000e+00 0.0000000000000000e+00 0.0000000000000000e+00  4.4631526743601402e+06 1.7747878876927823e+07 0.0000000000000000e+00 1.7747878876927823e+07 6.5792325067424491e+07 0.0000000000000000e+00 0.0000000000000000e+00 0.0000000000000000e+00 0.0000000000000000e+00  4.1921281474110773e+06 1.3303046097337173e+07 0.0000000000000000e+00 1.3303046097337173e+07 4.2264487184078597e+07 0.0000000000000000e+00 0.0000000000000000e+00 0.0000000000000000e+00 0.0000000000000000e+00  7.5495846381618921e+05 6.4591087020387314e+06 0.0000000000000000e+00 6.4591087020387314e+06 1.8796223887935273e+07 0.0000000000000000e+00 0.0000000000000000e+00 0.0000000000000000e+00 0.0000000000000000e+00  -7.5157220727683362e+06 -8.1647845110589629e+06 0.0000000000000000e+00 -8.1647845110589629e+06 -5.4687040224155979e+06 0.0000000000000000e+00 0.0000000000000000e+00 0.0000000000000000e+00 0.0000000000000000e+00  -2.1809747207154714e+07 -2.1862254208688315e+07 0.0000000000000000e+00 -2.1862254208688315e+07 -2.1750742456448633e+07 0.0000000000000000e+00 0.0000000000000000e+00 0.0000000000000000e+00 0.0000000000000000e+00  -4.8610277809785739e+07 -3.6145548914053999e+07 0.0000000000000000e+00 -3.6145548914053999e+07 -2.6721206152149949e+07 0.0000000000000000e+00 0.0000000000000000e+00 0.0000000000000000e+00 0.0000000000000000e+00  -8.7669710439890891e+07 -4.9409833904917181e+07 0.0000000000000000e+00 -4.9409833904917181e+07 -3.1571254192856796e+07 0.0000000000000000e+00 0.0000000000000000e+00 0.0000000000000000e+00 0.0000000000000000e+00  -1.4771030256648952e+08 -5.6489742827107064e+07 0.0000000000000000e+00 -5.6489742827107064e+07 -1.8314591951148488e+07 0.0000000000000000e+00 0.0000000000000000e+00 0.0000000000000000e+00 0.0000000000000000e+00  -2.6742587015396303e+08 -7.3307575765392398e+06 0.0000000000000000e+00 -7.3307575765392436e+06 -2.1579768111398295e+07 0.0000000000000000e+00 0.0000000000000000e+00 0.0000000000000000e+00 0.0000000000000000e+00  -2.4896597689319617e+08 1.0507721013083695e+08 0.0000000000000000e+00 1.0507721013083690e+08 -6.9035426770635039e+07 0.0000000000000000e+00 0.0000000000000000e+00 0.0000000000000000e+00 0.0000000000000000e+00  -8.3986715781706706e+07 8.6118222208790272e+07 0.0000000000000000e+00 8.6118222208790243e+07 -8.9446525863200516e+07 0.0000000000000000e+00 0.0000000000000000e+00 0.0000000000000000e+00 0.0000000000000000e+00  -2.4645496398808029e+07 3.4105963677530661e+07 0.0000000000000000e+00 3.4105963677530661e+07 -5.4140025171321064e+07 0.0000000000000000e+00 0.0000000000000000e+00 0.0000000000000000e+00 0.0000000000000000e+00  -4.1447634007329871e+06 1.3697612168120958e+07 0.0000000000000000e+00 1.3697612168120958e+07 -2.8985672488633554e+07 0.0000000000000000e+00 0.0000000000000000e+00 0.0000000000000000e+00 0.0000000000000000e+00  -3.6933260902613481e+06 7.4637274978220481e+06 0.0000000000000000e+00 7.4637274978220481e+06 -1.5533685031384801e+07 0.0000