<?xml version="1.0"?>
<VTKFile type="UnstructuredGrid"  version="0.1"  >
<UnstructuredGrid>
<Piece  NumberOfPoints="11925" NumberOfCells="22284">
<Points>
<DataArray  type="Float64"  NumberOfComponents="3"  format="ascii">0.009106770432969287 0.0084582340381214 0  0.009141919339108864 0.008441218550270694 0  0.009203598740601114 0.008393845335784609 0  0.009248431083532146 0.008349860421943302 0  0.009296575788899144 0.008291876136114247 0  0.00934265184641383 0.008225659869648794 0  0.009393578065451109 0.008122249398276498 0  0.009424875532860347 0.008002512562814071 0  0.009449530416649156 0.007942856790653622 0  0.009467776063564975 0.007776381909547738 0  0.009496347239411999 0.007611274617662952 0  0.009499145002853376 0.007525125628140703 0  0.009496347239411999 0.007464102266759158 0  0.009467776063564975 0.007298994974874372 0  0.009449530416649156 0.007132520093768488 0  0.009424875532860347 0.00707286432160804 0  0.009393578065451109 0.006953127486145613 0  0.00934265184641383 0.006849717014773317 0  0.009296575788899144 0.006783500748307864 0  0.009248431083532146 0.006725516462478808 0  0.009203598740601114 0.006681531548637502 0  0.009141919338909114 0.006634158334151417 0  0.009106770432902705 0.006617142873950686 0  0.009057788944723618 0.006598443490950575 0  0.009035429646949504 0.006603784476015589 0  0.009003273865471631 0.006637537337391888 0  0.008992706568800921 0.006658843167954558 0  0.008972489432160457 0.006721105527638192 0  0.008943689764150664 0.006775124298212487 0  0.008927575292032289 0.006821608040201005 0  0.008858421521121648 0.006940476521074617 0  0.008818283204798657 0.006994423939357116 0  0.008742251619928807 0.007081030046222233 0  0.008689386069399707 0.007127977288024682 0  0.00865169762718865 0.007155237400276061 0  0.008598593426450953 0.007187519986677493 0  0.008503029036046951 0.007258952469496642 0  0.008441469295249169 0.007286330637148408 0  0.008404275359722921 0.007310151607682054 0  0.008340789248380142 0.007336567990292792 0  0.008278894472361808 0.007370606062816746 0  0.008227853892241668 0.007385785667750049 0  0.008178391959798996 0.007406751625964 0  0.008013447788775593 0.00743563391875675 0  0.007952261306532662 0.007456731513377061 0  0.007902010050251256 0.007466988976395871 0  0.007550251256281408 0.00748107426496475 0  0.007173366834170854 0.007466988976395871 0  0.007123115577889447 0.007456731513377061 0  0.007061929095646517 0.00743563391875675 0  0.006896984924623115 0.007406751625964 0  0.006771663215364072 0.00735919225436318 0  0.006734587636041969 0.007336567990292792 0  0.006695979899497487 0.00732259899495977 0  0.006633907589172942 0.007286330637148408 0  0.00657234784837516 0.007258952469496642 0  0.006476783457971159 0.007187519986677493 0  0.006385990815022405 0.007127977288024682 0  0.006333125264493302 0.007081030046222233 0  0.006244530865553103 0.006978164963285671 0  0.006205048905315104 0.00692211055276382 0  0.006159330552520386 0.006845248264868939 0  0.006131687120271447 0.006775124298212487 0  0.006102887452261655 0.006721105527638192 0  0.006082670315621189 0.006658843167954558 0  0.006072103018950479 0.006637537337391888 0  0.006039947237472605 0.006603784476015589 0  0.006017587939698492 0.006598443490950575 0  0.005933457545512996 0.006634158334151417 0  0.005871778143820997 0.006681531548637502 0  0.005826945800889965 0.006725516462478808 0  0.005778801095522966 0.006783500748307864 0  0.005732725038008282 0.006849717014773317 0  0.005681798818971001 0.006953127486145613 0  0.005650501351561765 0.00707286432160804 0  0.005625846467772956 0.007132520093768488 0  0.005607600820857134 0.007298994974874372 0  0.005577737985543962 0.00747666508082951 0  0.005579029645010113 0.007611274617662952 0  0.005607600820857134 0.007776381909547738 0  0.005625846467772956 0.007942856790653622 0  0.005650501351561765 0.008002512562814071 0  0.005676707781126685 0.008109686584206147 0  0.005732725038008282 0.008225659869648794 0  0.005778801095522966 0.008291876136114247 0  0.00583916892901236 0.008362423236013654 0  0.005871778143820997 0.008393845335784609 0  0.005933457545313248 0.008441218550270694 0  0.005968606451452823 0.0084582340381214 0  0.006017587939698492 0.008476935349731016 0  0.006039947427631444 0.008471594355449344 0  0.006059540775356642 0.008452005488667369 0  0.006077635869842498 0.008429097268812035 0  0.006102887452261655 0.00835427135678392 0  0.006131687120271447 0.008300252586209624 0  0.006159330552520386 0.008230128619553171 0  0.006216955363300465 0.008134900363347493 0  0.006257093679623455 0.008080952945064994 0  0.006333125264493302 0.007994346838199877 0  0.006370813706704358 0.007959962410467781 0  0.00642367925723346 0.007920139484146049 0  0.006476783457971159 0.007887856897744617 0  0.00657234784837516 0.007816424414925468 0  0.006633907589172942 0.007789046247273704 0  0.006671101524699189 0.007765225276740057 0  0.006734587636041969 0.007738808894129319 0  0.006796482412060302 0.007704770821605365 0  0.00692211055276382 0.00766245157494053 0  0.007061929095646517 0.007639742965665362 0  0.007123115577889447 0.007618645371045051 0  0.007173366834170854 0.00760838790802624 0  0.007525125628140703 0.00759430261945736 0  0.007902010050251256 0.00760838790802624 0  0.007952261306532662 0.007618645371045051 0  0.008013447788775593 0.007639742965665362 0  0.00815326633165829 0.00766245157494053 0  0.008278894472361808 0.007704770821605365 0  0.008340789248380142 0.007738808894129319 0  0.008404275359722921 0.007765225276740057 0  0.008441469295249169 0.007789046247273704 0  0.008503029036046951 0.007816424414925468 0  0.008598593426450953 0.007887856897744617 0  0.00865169762718865 0.007920139484146049 0  0.008704563177717754 0.007959962410467781 0  0.008742251619928807 0.007994346838199877 0  0.008818283204798657 0.008080952945064994 0  0.008858421521121648 0.008134900363347493 0  0.008916046331901725 0.008230128619553171 0  0.008943689764150664 0.008300252586209624 0  0.008972489432160457 0.00835427135678392 0  0.008997741014579612 0.008429097268812035 0  0.009015836109065469 0.008452005488667369 0  0.009035429456790667 0.008471594355449344 0  0.009057788944723618 0.008476935349731016 0  0.000584560956065443 0.0006566731908302978 0  0.0004648241206030151 0.0006253757234210605 0  0.0006879714274377391 0.0007075994098675775 0  0.0004051683484425679 0.0006007208396322515 0  0.0007541876939031931 0.0007536754673822622 0  0.0002386934673366834 0.0005824751927164302 0  0.0008121719797322475 0.0008018201727492608 0  7.895734593675217e-05 0.0005538767054284305 0  0.000856156893573553 0.0008466525156802934 0  0 0.0005480494466900812 0  0.0009035301080596382 0.0009083319171725436 0  0 0 0  0.000939246867973806 0.0009924623115577891 0  0.01 0 0  0.0009339058736921331 0.001014821772831462 0  0.01 0.0005571664569146784 0  0.0008914087205285403 0.001052510215042517 0  0.009937185929648241 0.0005602048678154705 0  0.0008165829145728644 0.00107776182261448 0  0.009811557788944724 0.0005824755727250804 0  0.0007625641439985681 0.001106561492130742 0  0.00964508290783884 0.0006007208396322515 0  0.0006924401773421158 0.001134204924379682 0  0.009585427135678391 0.0006253757234210605 0  0.000597211921136439 0.001191829735159762 0  0.009478253114286317 0.0006515821529859823 0  0.0005055760606428836 0.00126320124586456 0  0.00937484264291402 0.0007001169347433132 0  0.0004537270030180498 0.001310933582424631 0  0.009296063562378215 0.0007536754673822622 0  0.0004097111541863734 0.001360865186881701 0  0.00923807927654916 0.0008018201727492608 0  0.0003501684555335619 0.001451657829830455 0  0.009194094362707853 0.0008466525156802934 0  0.0002787359727144142 0.001547222220234457 0  0.009146721148221768 0.0009083319171725436 0  0.0002513578050626486 0.001608781961032239 0  0.0091110043883076 0.0009924623115577891 0  0.0002275368345290006 0.001645975896558485 0  0.009116345382589274 0.001014821785907898 0  0.0002011204519182638 0.001709462007901265 0  0.009158842483081762 0.001052510228118953 0  0.0001670823793943093 0.001771356783919598 0  0.009233668341708544 0.001077761824120951 0  0.0001247631327294741 0.001896984924623115 0  0.009287687112282839 0.001106561492130742 0  0.0001020545234543062 0.002036803467505815 0  0.009357811078939291 0.001134204924379682 0  8.096507571907495e-05 0.002097989949748744 0  0.009453039335144969 0.001191829735159762 0  7.071342713566267e-05 0.002148241206030151 0  0.009544675195638523 0.00126320124586456 0  5.669507456120024e-05 0.0025 0  0.009596524253263357 0.001310933582424631 0  7.071342713566267e-05 0.002876884422110553 0  0.009640540102095033 0.001360865186881701 0  8.096507571907495e-05 0.00292713567839196 0  0.009700082800747845 0.001451657829830455 0  0.0001020545234543062 0.002988322160634889 0  0.009771515283566994 0.001547222220234457 0  0.0001247631327294741 0.003128140703517588 0  0.009798893451218758 0.001608781961032239 0  0.0001670823793943093 0.003253768844221106 0  0.009822714421752407 0.001645975896558485 0  0.0002011204519182638 0.003315663620239438 0  0.009849130804363143 0.001709462007901265 0  0.0002275368345290006 0.003379149731582219 0  0.009883168876887099 0.001771356783919598 0  0.0002513578050626486 0.003416343667108464 0  0.009925488123551932 0.001896984924623115 0  0.0002787359727144142 0.003477903407906247 0  0.009948196732827102 0.002036803467505815 0  0.0003501684555335619 0.003573467798310248 0  0.009969286180562333 0.002097989949748744 0  0.0004097111541863734 0.003664260441259002 0  0.009979537829145744 0.002148241206030151 0  0.0004537270030180498 0.003714192045716073 0  0.009993556181720207 0.0025 0  0.0005055760606428836 0.003761924382276144 0  0.009979537829145744 0.002876884422110553 0  0.000597211921136439 0.003833295892980942 0  0.009969286180562333 0.00292713567839196 0  0.0006924401773421158 0.003890920703761021 0  0.009948196732827102 0.002988322160634889 0  0.0007625641439985681 0.003918564136009961 0  0.009925488123551932 0.0031281407035175
[...]
<PointData  Scalars="$\epsilon_{VM}$"> 
<DataArray  type="Float64"  Name="$\epsilon_{VM}$"  format="ascii">2.0955817765860380e-04  2.6174733104353173e-04  3.3051961594340504e-04  3.9420316539155606e-04  4.0359563858060205e-04  5.0370376127795505e-04  4.6759477619426478e-04  5.2279226755759262e-04  5.2632827299212766e-04  4.5973254895332564e-04  4.9718145103884340e-04  6.1782944220026032e-04  4.8244018921572414e-04  4.0041965135379691e-04  4.2162145109430238e-04  3.9558971128688167e-04  3.4055860456375797e-04  3.0988414699976784e-04  2.1095577520881869e-04  1.7266955145808124e-04  8.5807499928749724e-05  2.1046104379007470e-05  8.1259120572016824e-05  3.6912854359592802e-04  7.1361726503846572e-04  6.9367808006719374e-04  5.3126811950344002e-04  4.0924924742148368e-04  3.9663083930075208e-04  3.7336879864837661e-04  3.5353096630436699e-04  3.5860586555244662e-04  3.4850455802954317e-04  3.2947257865125309e-04  3.9727294888158626e-04  4.1447607360123952e-04  3.7932604284218871e-04  3.8511884555843869e-04  3.9917889183178055e-04  3.7531556905409663e-04  3.4854861488865633e-04  3.3233377215454444e-04  3.4977394422613456e-04  3.7536914757137555e-04  3.8930842896497118e-04  3.8511584163230161e-04  3.3605092789174706e-04  3.4582693233360895e-04  3.3904727797771792e-04  3.1745526492168985e-04  2.7367350818618166e-04  2.6026591065532256e-04  3.0022001878350179e-04  2.9293767989870082e-04  2.8082620428546774e-04  2.7863285888714458e-04  2.8191689527912780e-04  2.5907721675547677e-04  2.3682907013855491e-04  2.5200552736226624e-04  2.4647560649295846e-04  2.5826175184407438e-04  2.9025513018670528e-04  2.9427206647320828e-04  3.6175682742854617e-04  4.1689691798613788e-04  2.1780680221052142e-04  2.6085523457366485e-04  4.0491361021933938e-04  6.0402139905077219e-04  6.5945741434587782e-04  7.5344018879722750e-04  8.5003075085299089e-04  7.8156376106645734e-04  8.4206703368688049e-04  8.1446467395150028e-04  7.2035635141547540e-04  6.7127952489526017e-04  6.9593052524124838e-04  4.9215905625726874e-04  4.6675539696835257e-04  3.8589998152531750e-04  2.5424840297605730e-04  1.0416404486776078e-04  5.8946475432077131e-05  2.3374038397833773e-04  4.0248389753864310e-04  6.1921388792032491e-04  9.1699380072554528e-04  1.4630698643434974e-03  1.5507040260602403e-03  8.7358913516841436e-04  3.8699133327645520e-04  1.9069903678724828e-04  1.0023820693555731e-04  7.7768730868006637e-05  5.1403568826881345e-05  4.8645527292981555e-05  4.3864922628984048e-05  3.8084998976989784e-05  4.4895482534140740e-05  4.5729459626348939e-05  4.0393580453825871e-05  3.8385634196517397e-05  4.0626371923021196e-05  3.8952031389518577e-05  3.2441672649045394e-05  3.4427360126933809e-05  3.7817363539028735e-05  3.1995994090354245e-05  3.6467558914735608e-05  3.3153737939866066e-05  2.9729091219563546e-05  2.4205298003768051e-05  2.9446340245837231e-05  2.4520188815281002e-05  2.2275447143381691e-05  2.5377098506639651e-05  2.6004788405203068e-05  2.4552549358860599e-05  2.4693326342416637e-05  2.7054677206906443e-05  2.5940986012307459e-05  2.2149165655354557e-05  2.4473273626049926e-05  2.7642204202064797e-05  3.0130137202614685e-05  3.7750793474560629e-05  5.0440620660655139e-05  6.7208813731631161e-05  1.0136593348361779e-04  1.3783730190260239e-04  7.8798828678735238e-05  1.0490504731117932e-04  6.8572656822417265e-06  8.5523097119636444e-06  1.4239828112469921e-05  3.4048048873943718e-06  9.4804262214773344e-06  2.6501764238348299e-06  9.7214522252771541e-06  5.0319814244821515e-07  1.0896786003718194e-05  9.2296502079946077e-07  2.7002236204486969e-05  2.4500823110558601e-06  1.0209979610001840e-04  1.7074828462286673e-06  1.5666805834955679e-04  1.6684973458901018e-06  4.2062849586422987e-05  8.2199333355118571e-07  1.7017826496152177e-05  1.6524096278850591e-06  5.1146719492404052e-05  3.1456285310221781e-06  7.6022798823697591e-05  7.9351816933927898e-06  1.0487337691775951e-04  5.8630394955247558e-06  1.2991780933619979e-04  1.2627813685938431e-05  1.4019058373267496e-04  8.7987155883959806e-06  1.7634141317386025e-04  6.8638470649773217e-06  2.1532072903016197e-04  -5.6558074042310777e-06  2.3280243574098485e-04  3.1766688963950120e-05  2.6197507487443663e-04  9.4761830233903839e-05  2.6858132777503969e-04  1.5654488353413038e-04  2.8582282050416887e-04  4.3127439314346188e-05  2.5991350919003081e-04  1.6542887396883937e-05  2.8172470436938743e-04  4.9600400834505249e-05  3.2571610503302008e-04  7.8314968892409482e-05  3.4959228627787448e-04  1.0343313983620423e-04  3.2056879694266114e-04  1.2632637753941288e-04  2.8051999264083375e-04  1.4256123336957763e-04  3.0996382067895368e-04  1.7586912422775511e-04  2.8754748059556587e-04  2.1378443196771912e-04  2.5249338885872220e-04  2.3764026885977928e-04  1.9934383639290897e-04  2.5859938037210706e-04  1.6880777207073125e-04  2.7521608377521756e-04  1.7545916741412275e-04  2.8289206740329061e-04  1.5459707247659268e-04  2.5985754182136311e-04  1.4229849973349334e-04  2.8556230390686409e-04  1.0606285974033618e-04  3.2986534488180474e-04  7.3538187241051087e-05  3.4921584491470699e-04  3.5948119294145609e-05  3.3664079370736066e-04  4.4407735016360017e-06  2.9763978508903256e-04  1.4628764374645638e-05  3.0009383644111632e-04  4.1584810425042233e-05  3.0017402757999526e-04  8.3043365878211880e-05  2.5443388020121143e-04  1.1236004685912910e-04  2.0571027706199876e-04  1.4514419967900531e-04  1.7359311451082066e-04  1.7300009788760251e-04  1.6358166493375985e-04  1.6761051753523009e-04  1.5607410771540709e-04  3.5505056605254595e-05  1.3764075361159079e-04  1.4758534582870502e-05  1.0547167121558312e-04  1.0485322227023025e-05  7.2799734849908251e-05  3.8281792997953508e-06  3.4999118908772201e-05  1.1262275953172424e-06  1.7358594067726523e-06  3.4384339439117878e-07  1.6152115542290657e-05  2.6699864258244318e-09  4.3800760233309953e-05  6.7423627520167663e-08  7.9999821349505422e-05  2.2888448233467433e-08  1.1575920814045030e-04  5.7308832295205327e-09  1.4297678427514210e-04  8.7679707602138640e-10  1.7442357565114808e-04  6.9159045998264954e-10  1.6956689241794074e-04  5.5920507617726212e-10  3.3891940776218217e-05  1.5695010621547573e-09  1.5430661391454421e-05  4.4890509595680894e-09  1.0403255388260199e-05  8.9349234715215850e-09  3.7231506108233677e-06  1.9528290170196201e-08  1.5956809629308047e-06  3.5400686080297909e-08  1.8227814662470971e-07  3.9652354055629839e-08  7.6808775889256601e-08  2.6423312620619090e-08  4.8538744504387871e-08  3.1320290534052002e-08  2.3970288655406124e-08  2.0615827679217283e-08  5.1541857522464495e-09  2.8662957661421029e-07  1.2780533056237158e-09  8.8994679814953041e-07  1.7307588266517126e-09  1.7637022233405778e-06  1.1595491268652378e-09  2.6186669176543882e-06  4.8455800624326133e-09  4.1566272946511280e-06  1.1380114559371279e-08  6.5407712910176685e-06  1.9597665625046702e-08  1.0444547935875467e-05  3.2390886682918288e-08  1.2508532867754426e-05  3.8349194206812812e-08  1.1742969844428759e-05  2.4328316317349529e-08  2.0601841140170314e-05  1.9674448989292801e-08  9.9390903524467750e-05  7.8078667427157117e-08  2.5443987607702166e-04  2.8074869560598775e-07  3.3848432233486188e-04  8.7449869877392500e-07  4.6782636705243805e-04  1.7633069501556674e-06  5.1308166089591262e-04  2.6586570367228457e-06  5.9043414024920248e-04  4.1362890046764414e-06  6.9244293787686486e-04  6.5239954631888382e-06  6.6545391562660653e-04  1.0619551622960424e-05  7.2708266081134237e-04  1.2168463636019646e-05  7.4465101667686847e-04  1.3988054740837545e-05  6.7197537129089126e-04  1.3306965132791055e-05  7.4791962985157367e-04  1.0057820863183000e-04  9.2025385593711166e-04  2.4304456060998594e-04  7.4198459480359364e-04  3.4284968032638030e-04  6.5628612655183689e-04  4.6065585997647987e-04  7.3586858243661455e-04  5.2954726363269380e-04  7.2971775374380756e-04  5.8835939948863629e-04  6.6196042723646535e-04  6.8140322559815400e-04  6.8874596396649934e-04  6.7380080227491589e-04  5.9744462372083641e-04  7.3112649437150523e-04  5.0855263556673868e-04  7.5746940662060956e-04  4.7680819233802437e-04  6.5102462092193685e-04  3.3623481376453859e-04  7.5205626629949252e-04  2.4681271766734228e-04  9.0586808561432129e-04  9.0692778534755129e-05  7.5307684563039403e-04  2.0578827163557231e-05  6.6649214200829225e-04  1.3176946300413958e-05  7.4387948028009133e-04  1.1434227477374286e-05  7.3117075095694415e-04  1.0916418159514453e-05  6.6292331692551149e-04  6.4140398550099706e-06  6.9069325220196117e-04  4.2692573545886456e-06  5.8401592644020191e-04  2.5767016441884905e-06  5.2387144733644303e-04  1.7259628357334984e-06  4.6699691197617542e-04  8.6910607152637885e-07  3.3707232904611593e-04  2.4115363616605273e-07  2.4262704986140576e-04  4.9724040667518749e-08  9.3863024294573263e-05  3.2226405554923246e-08  2.8786354406004308e-05  2.5857933349225699e-08  9.2504406614612759e-06  3.3836098746799314e-08  1.3775207316452665e-05  3.3452082236613228e-08  1.0167648031310141e-05  1.7543937196867855e-08  6.6913435138813865e-06  1.1449060314936488e-08  4.3637183946359996e-06  4.5891529328667831e-09  2.7596080310426047e-06  1.3855603327414359e-09  1.7045091136451804e-06  1.0223724802281633e-10  9.0316431618569253e-07  8.1819552202884070e-10  2.9731350396557463e-07  7.5221042008985657e-10  2.7308764482767753e-08  5.0476723820535876e-09  3.6003302421797558e-08  2.5464722061776129e-08  3.7208913197362152e-08  5.2407013834499217e-08  3.2694511417636241e-08  5.1525183892793950e-08  3.0741442530686086e-08  2.4122892152901776e-07  2.0574125594742394e-08  1.3837853931092133e-06  1.0729710471150570e-08  3.4657159135597644e-06  4.9804924618317528e-09  9.8371131282631227e-06  1.1192182127990420e-09  1.5039795281745145e-05  1.6858293739383116e-09  3.2779318815690732e-05  1.2368236892253925e-09  1.5727663290525078e-04  5.0998465862975481e-09  1.7721392168676045e-04  2.3549323757739149e-08  1.4439681042924688e-04  6.2214018713770739e-08  1.0936583392386337e-04  1.4977766203450245e-08  7.9562488647901976e-05  2.5218444930931279e-07  4.5358483943219749e-05  1.5691669136997349e-06  1.7661220580023660e-05  3.4209123699965499e-06  4.2919019822180544e-06  9.5627854098882606e-06  3.3697022993667347e-05  1.6495554011136812e-05  7.2547325383008008e-05  3.4397750845340868e-05  1.0691997901697107e-04  1.7014185534577428e-04  1.3903255074292070e-04  1.6951616455182839e-04  1.4985032803868309e-04  1.4602762749144210e-04  1.7197347665277851e-04  1.1407341962322323e-04  1.7233568358936534e-04  8.2754082892540529e-05  2.0560961524520980e-04  4.2016742898521121e-05  2.4348581113857332e-04  1.3026485408796617e-05  2.9975071109180468e-04  5.4309880901894058e-06  2.9932391974723692e-04  3.3278023337783233e-05  3.1632498054013925e-04  7.0292566784712422e-05  3.5897312166061356e-04  1.1018145837431446e-04  3.3523758147313191e-04  1.3686766001526154e-04  3.2844911513941431e-04  1.5563911313615697e-04  2.8231020654901831e-04  1.7168169172817048e-04  2.5846772478417627e-04  1.7111484042169753e-04  2.7634689029721861e-04  2.0180602795252475e-04  2.7741804887051905e-04  2.5547705749200854e-04  2.6095349809065408e-04  2.8662902905095738e-04  2.3249446628813910e-04  3.0185386498205211e-04  2.0735768377460150e-04  3.2052551725020236e-04  1.7500246807002916e-04  3.4998423663960452e-04  1.3832488853079942e-04  3.4928804311282468e-04  1.2910609794494321e-04  3.3332600662513523e-04  1.0343261362377489e-04  2.8357212427949425e-04  7.7466047635737389e-05  2.5906212566328203e-04  5.1070340855017365e-05  2.8266013779032918e-04  1.5431652215643633e-05  2.7094684086522190e-04  4.2303429733768581e-05  2.5744377724595444e-04  1.5615277438546496e-04  2.3404952708071017e-04  9.6694433556551750e-05  2.0973218098375545e-04  3.2011707673131821e-05  1.7321694776027867e-04  -6.7857396602616004e-07  1.4221457576039283e-04  2.5048681947459222e-06  1.2749291601477937e-04  8.3811549759245781e-06  1.0168764013235259e-04  9.2657495821334515e-06  7.6536656490946525e-05  7.3172769649266321e-06  4.9048559124725064e-05  5.4771403507701102e-06  1.9348855562284354e-05  3.1239021912191696e-06  4.5625792261339003e-05  2.1698325415412703e-06  1.5833462547696413e-04  5.6273431538146520e-07  1.0102801135983805e-04  4.0755437244419514e-07  2.9793441993035400e-05  1.8717711007450610e-06  7.1756811755499291e-06  1.8339427202610743e-06  8.5976545654931003e-06  8.6403861472488360e-07  8.3025615979325539e-06  2.1012125443775126e-07  1.1362638200950253e-05  1.2357780866720084e-06  6.0329853258730721e-06  2.7311723950421349e-06  9.8704955320696016e-06  2.1071127803369260e-04  3.5625282927238594e-04  2.2067952834350937e-04  4.7579805363018670e-04  3.9182899882466186e-04  5.7544756566928440e-04  3.4422419168891053e-04  6.5029195763051959e-04  3.0688421746607395e-04  7.6416615481021992e-04  2.8399171938105189e-04  8.2838183876836444e-04  2.6342704196867576e-04  7.7979881097171714e-04  2.4417711481943395e-04  8.5227291618999296e-04  2.5070823678313123e-04  8.0701322000931153e-04  2.3763678448917861e-04  6.5972809203774705e-04  2.3209222208560881e-04  7.3635280009921508e-04  2.7640649946979201e-04  8.5379887368586629e-04  2.9279814870852296e-04  6.2301996398282384e-04  2.7378295212297923e-04  4.9820670216183546e-04  2.8466742320231293e-04  4.6861968560313181e-04  2.9411850139107320e-04  3.7128490998360051e-04  2.9579393514048900e-04  2.3147393015576044e-04  2.5510091490403043e-04  1.0397786779048515e-04  2.8598063998071032e-04  5.0266613832664930e-05  3.0792942876848266e-04  2.0785267557796463e-04  3.4166333244196526e-04  3.8330209291225344e-04  3.3895750305074085e-04  6.0372099604956149e-04  3.1412404755058542e-04  9.3578813362308504e-04  3.6297461975400963e-04  1.4258007426868609e-03  3.7684093745468997e-04  1.4081200595123891e-03  3.8601745599834672e-04  7.1391562310829854e-04  3.4733670125533457e-04  3.2723952313494075e-04  3.3915297150530389e-04  1.6363693358471181e-04  3.9463369834500284e-04  1.0797546151476643e-04  3.9967219944751217e-04  8.1329869047837890e-05  3.8783888326966969e-04  5.7911836573093698e-05  3.8141871251775168e-04  4.9626184858134804e-05  4.0377267753683718e-04  4.3648757193401641e-05  3.8938313304028125e-04  3.7501048323198422e-05  3.3613768228718798e-04  4.4624505444499709e-05  3.4366623154906509e-04  4.6134158115187029e-05  3.5871008141620916e-04  4.0182944900522703e-05  3.4893651709586612e-04  3.8600069920190402e-05  3.6783695483330863e-04  4.0422917416146469e-05  3.9977754810213256e-04  3.8515908980430598e-05  4.3223164427901457e-04  3.3733231417761795e-05  5.3880689797596016e-04  3.0779052549904862e-05  7.6195955433230097e-04  3.4773543048144525e-05  7.9137588253768440e-04  3.7585104189479113e-05  3.5486694289794891e-04  3.0570464741399885e-05  9.4582232373074284e-05  3.4692673040563114e-05  2.1927816705069359e-05  3.3608289934762106e-05  8.5611585474752830e-05  2.9122653805106422e-05  1.6202698971651717e-04  2.3960369144687631e-05  2.1724305672662515e-04  2.9377980673737695e-05  3.1197666674663240e-04  2.4300637645352126e-05  3.4668534017165544e-04  2.2108684107858309e-05  4.0680398075865741e-04  2.6067408743597376e-05  4.3021209685399701e-04  2.5959309438824153e-05  4.2688379078944865e-04  2.4799068742412222e-05  4.9306938308702137e-04  2.4843403264330195e-05  4.9120742587146582e-04  2.6677917231979167e-05  4.5690804313387181e-04  2.4736320278940188e-05  5.1606224439429123e-04  2.4088797087604864e-05  5.1746573371106439e-04  2.8369245211460036e-05  4.7804635922724873e-04  3.0885862568167188e-05  4.9992252401714009e-04  3.7911605441256066e-05  4.3472309345389830e-04  5.1309661714489558e-05  3.7297395268636255e-04  6.3833162484817752e-05  3.4598858621572416e-04  9.6197486532737534e-05  2.3282938888998506e-04  1.2573000155806138e-04  1.4766859035076745e-04  9.6823040724285846e-05  1.6714894466793962e-04  1.8623409990804664e-04  1.6368892825563731e-04  1.7332475867467035e-04  2.0461664409526076e-04  1.6856179137006658e-04  2.5073195620610770e-04  1.9344202643715549e-04  2.0611621243411349e-04  2.2876630530935260e-04  2.3294645106043904e-04  2.2345209369167024e-04  3.0205201341292564e-04  3.0079774304243460e-04  3.3109181581303962e-04  3.2331853143101075e-04  3.6669795713019121e-04  3.6388155700437414e-04  4.2639480309740176e-04  4.4457141230729762e-04  5.1306678917886729e-04  4.9375850402850379e-04  6.7924077572818309e-04  7.1617380437814511e-04  6.5803607895964316e-04  6.5605971715016723e-04  1.3509436823114896e-04  1.4191701607428514e-04  2.3893106784307630e-05  2.9820909513387210e-05  7.0230514284012630e-05  6.7607505755846659e-05  1.1213490629043233e-04  1.0273020081035644e-04  1.5162278010676409e-04  1.5539392614274475e-04  1.9720789983929880e-04  2.0126755118479215e-04  2.2258285450671393e-04  2.0909255993429486e-04  2.6778073271793208e-04  2.7574695402777036e-04  3.2555611790351081e-04  3.2550639565079526e-04  3.5790843391248487e-04  3.5580259280074318e-04  3.9829734509247010e-04  4.0078255361431533e-04  4.0968102725109218e-04  4.1879936122863948e-04  4.2037598599077022e-04  4.4707027973989524e-04  3.8303095365169231e-04  3.8162326780942800e-04  4.0936306283541893e-04  4.1141075143185328e-04  4.4875559873689926e-04  4.6177576396677140e-04  5.2681276139493981e-04  5.1228398588880689e-04  4.6448094705411734e-04  4.6456891270482209e-04  3.7963016949774347e-04  3.6237844147139542e-04  2.8579350977220514e-04  2.8555697414372192e-04  2.2869200755125225e-04  2.3418919682485019e-04  1.8282910034614000e-04  1.8240244591630688e-04  9.8230184583787111e-05  9.6485569094052070e-05  3.3512428960017328e-05  3.0330832235917973e-05  1.7102828270839586e-05  2.1981353021695645e-05  3.9323481556740159e-05  3.9193701525188555e-05  6.9473184500138885e-05  7.4353450682805905e-05  1.2929410942862153e-04  1.2649279060275250e-04  2.0595120107144555e-04  2.0556321404001623e-04  2.5051678510645912e-04  2.5672408281577123e-04  2.7144564468045836e-04  2.6648659133522593e-04  3.3105311644944209e-04  3.3043754267100595e-04  3.8195256567422439e-04  3.8439733678542098e-04  4.4790306108233769e-04  4.4983570077837006e-04  5.4545066048984506e-04  5.5255756571805786e-04  6.4705252375932341e-04  6.6189946940859476e-04  9.1942266648288085e-04  8.7201053345926612e-04  1.3826577586960129e-03  1.4116731264004134e-03  6.6394303355119476e-04  6.6330077447953988e-04  2.4611528656406998e-04  2.3473670957457920e-04  8.3413532206151974e-05  9.4313018851480452e-05  7.9567169565066218e-05  7.8852096201710440e-05  5.0022084294089114e-05  5.6406598198840982e-05  3.5947764068382715e-05  3.3456301243846890e-05  2.3538304529166513e-05  2.5437628297508015e-05  1.8073904780278346e-05  1.8955541751367407e-05  2.2904096740129534e-05  2.2388177810753964e-05  2.4202403733383950e-05  2.1306972325112412e-05  2.7423474862906909e-05  2.9655122352566839e-05  3.4046927832730818e-05  3.6727347728127905e-04  8.5060789754365165e-05  7.1543071150773486e-04  1.7798609531479029e-05  7.6052837295686245e-04  9.0215531575644101e-05  5.3678920427795889e-04  1.5344717428273828e-04  4.3598318729099503e-04  2.2502905578894984e-04  3.9318770233851794e-04  3.1183198573181772e-04  3.7117520739087635e-04  3.3640565495180624e-04  3.5150696056858259e-04  4.0557565109569773e-04  3.5716889733432956e-04  4.3266454868388606e-04  3.4561570867856821e-04  4.0375879325444286e-04  3.3406285530022370e-04  4.7473241570249338e-04  3.9233133190047070e-04  6.0129145807205837e-04  4.1315035205350672e-04  5.0465778417419166e-04  3.7839212397741565e-04  4.5955745525228626e-04  3.8767503241760135e-04  5.2506715328382405e-04  3.9469663445120023e-04  5.2290594316339401e-04  3.9086168298155510e-04  4.7192626845847844e-04  3.3002679653226400e-04  4.9776534904787085e-04  3.5657269463159973e-04  4.3208723084970095e-04  3.6647327968337219e-04  3.8610967859717182e-04  4.0380889333763322e-04  3.2272701124845966e-04  3.7666671899069017e-04  2.7905945916303443e-04  3.1449251038732088e-04  1.9441962636797678e-04  3.2619691976874961e-04  1.0762885583222966e-04  3.1891342461781654e-04  8.6015046533371647e-05  3.2358290752546953e-04  1.3597970905925426e