<?xml version="1.0"?>
<VTKFile type="UnstructuredGrid"  version="0.1"  >
<UnstructuredGrid>
<Piece  NumberOfPoints="15879" NumberOfCells="30073">
<Points>
<DataArray  type="Float64"  NumberOfComponents="3"  format="ascii">0.008744250939142511 0.009249496870530866 0  0.008765425866682114 0.009208542713567839 0  0.008796939545733374 0.009167715614803399 0  0.008867550903791295 0.009032663316582916 0  0.008893683321450881 0.008991556725246978 0  0.008907033844496051 0.008956147049119177 0  0.00894462340312561 0.00889404564615175 0  0.008959139697389215 0.008856641681045557 0  0.008995388256879674 0.008796713122112644 0  0.009025678922763408 0.008734484662190036 0  0.009092301485933114 0.008630914221489767 0  0.009119907388895792 0.008581101157721186 0  0.009199533981022941 0.008464270359387325 0  0.009245217685848531 0.008387527744084276 0  0.009271117507113111 0.008329295096097774 0  0.009296537408958208 0.00828981813798871 0  0.009257503290482054 0.008298159496405871 0  0.009235151729424353 0.008310722310476222 0  0.009144104570873375 0.008389272524856908 0  0.009106416128662321 0.008414239078358646 0  0.009082914572864321 0.008424875861462521 0  0.008999915132905349 0.008442993870510455 0  0.008957286432160804 0.008462232748163467 0  0.008907035175879398 0.00847385168469667 0  0.00885678391959799 0.008473908551255457 0  0.008831658291457286 0.008469782169440056 0  0.008706030150753769 0.008425802305216444 0  0.008645371443355525 0.008388584305129549 0  0.008591459498526004 0.008345934492496734 0  0.008534392859938048 0.008294255994770735 0  0.008466023090787212 0.008203148159384584 0  0.008388360924737203 0.008055139197012335 0  0.008272326197445296 0.007848742202745139 0  0.008242233902030981 0.007781438025674236 0  0.008221213331094964 0.007748754048759083 0  0.008191793146491112 0.007682271349354338 0  0.008157288857206898 0.007625628140703518 0  0.008140783446436164 0.007587432399533501 0  0.008019627940570392 0.007396426175882292 0  0.007988885033594753 0.007340611592261619 0  0.007919240228907913 0.00724531963257594 0  0.007889464282571928 0.007185827011651177 0  0.007767237022159377 0.006995408803889084 0  0.007755920119981723 0.006972361809045226 0  0.007739939379229383 0.006920076091750172 0  0.007717435491156985 0.006871859296482413 0  0.00769937445890625 0.006796482412060302 0  0.007695442570328542 0.006721105527638192 0  0.007696572345248947 0.00664572864321608 0  0.00770210887800058 0.006595477386934674 0  0.007720132716220556 0.006545226130653267 0  0.007747052348914315 0.00649010986658525 0  0.007775508563566094 0.006444723618090452 0  0.007837056283855755 0.006375847927468056 0  0.007929710181617403 0.006309754545690339 0  0.007952261306532662 0.006297919108887253 0  0.007997985820892218 0.006282134412443146 0  0.00803031688167094 0.006253869291898307 0  0.008052763819095478 0.006242248509319779 0  0.008111361302279064 0.006230624460893473 0  0.007927135678391961 0.006224081160713446 0  0.007550251256281408 0.006223602510129926 0  0.007148241206030151 0.006224081160713446 0  0.006964015582143046 0.006230624460893473 0  0.007022613065326633 0.006242248509319779 0  0.007045060002751171 0.006253869291898307 0  0.007077391063529893 0.006282134412443146 0  0.007123115577889447 0.006297919108887253 0  0.007145666702804707 0.006309754545690339 0  0.007238320600566356 0.006375847927468056 0  0.007299868320856018 0.006444723618090452 0  0.007328324535507795 0.00649010986658525 0  0.007355244168201555 0.006545226130653267 0  0.007373268006421531 0.006595477386934674 0  0.007378804539173165 0.00664572864321608 0  0.007379934314093569 0.006721105527638192 0  0.007376002425515861 0.006796482412060302 0  0.007357941393265126 0.006871859296482413 0  0.007335437505192728 0.006920076091750172 0  0.007319456764440388 0.006972361809045226 0  0.007308139862262735 0.006995408803889084 0  0.007185912601850183 0.007185827011651177 0  0.007156136655514197 0.00724531963257594 0  0.007086491850827359 0.007340611592261619 0  0.007055748943851719 0.007396426175882292 0  0.006934593437985945 0.007587432399533501 0  0.006918088027215212 0.007625628140703518 0  0.006883583737931 0.007682271349354338 0  0.006854163553327149 0.007748754048759083 0  0.00683314298239113 0.007781438025674236 0  0.006803050686976814 0.007848742202745139 0  0.006687015959684908 0.008055139197012335 0  0.006609353793634899 0.008203148159384584 0  0.006540984024484062 0.008294255994770735 0  0.006483917385896107 0.008345934492496734 0  0.006430005441066587 0.008388584305129549 0  0.006369346733668342 0.008425802305216444 0  0.006243718592964824 0.008469782169440056 0  0.00621859296482412 0.008473908551255457 0  0.006168341708542714 0.00847385168469667 0  0.006118090452261307 0.008462232748163467 0  0.006075461751516762 0.008442993870510455 0  0.00599246231155779 0.008424875861462521 0  0.005968960755759791 0.008414239078358646 0  0.005931272313548736 0.008389272524856908 0  0.005840225154997758 0.008310722310476222 0  0.005817873593940058 0.008298159496405871 0  0.005778839475463902 0.00828981813798871 0  0.005804259377308998 0.008329295096097774 0  0.00583015919857358 0.008387527744084276 0  0.00587584290339917 0.008464270359387325 0  0.005955469495526319 0.008581101157721186 0  0.005983075398488996 0.008630914221489767 0  0.006049697961658705 0.008734484662190036 0  0.006079988627542438 0.008796713122112644 0  0.006116237187032894 0.008856641681045557 0  0.006130753481296502 0.00889404564615175 0  0.006168343039926059 0.008956147049119177 0  0.00618169356297123 0.008991556725246978 0  0.006207825980630817 0.009032663316582916 0  0.006278437338688737 0.009167715614803399 0  0.006309951017739999 0.009208542713567839 0  0.006331125945279601 0.009249496870530866 0  0.006336727021620341 0.009247319727362886 0  0.006344498957327637 0.009183417085427135 0  0.006339263212404633 0.009032663316582916 0  0.00634560310999189 0.0089321608040201 0  0.006361298949485923 0.00888366055963555 0  0.006418647532781672 0.008789054819563944 0  0.006476746740726617 0.008727180502883762 0  0.006529819081069465 0.008686150274493917 0  0.006591505315052318 0.008651007504032495 0  0.006695979899497487 0.008608676464254792 0  0.006746231155778895 0.008601577245877061 0  0.006871859296482413 0.008597614285904831 0  0.007449748743718593 0.008609272924776539 0  0.007675879396984925 0.00860901990272806 0  0.008103015075376885 0.008598030438357208 0  0.008278894472361808 0.008598960730750661 0  0.008379396984924624 0.008608676464254792 0  0.008404522613065327 0.008616389102453569 0  0.008505025125628141 0.008661131297373014 0  0.008545557803352645 0.008686150274493917 0  0.008598630143695494 0.008727180502883762 0  0.008656729351640439 0.008789054819563944 0  0.008714077934936188 0.00888366055963555 0  0.008729773774430219 0.0089321608040201 0  0.00873598556582976 0.009007537688442211 0  0.008731891938447698 0.009208542713567839 0  0.008738649862801769 0.009247319727362886 0  0.000314070351758794 0.001873497280331286 0  0.0002638190954773869 0.001880036804404105 0  0.0003756538158616186 0.001858338350166356 0  0.0001381909547738694 0.001888869036087018 0  0.000414572864321608 0.001854910359425602 0  0 0.00189076839148592 0  0.0004899497487437186 0.001854110352952316 0  0 0 0  0.0005690411698640241 0.001858815491368148 0  0.01 0 0  0.0005690411698640241 0.001862644860739296 0  0.01 0.001890735526253002 0  0.0005581896026849929 0.001869341617393767 0  0.009912060301507538 0.001888869036087018 0  0.0005186620969221553 0.00191075121689978 0  0.009761306532663317 0.001877703280023369 0  0.0004648241206030151 0.001924062446380331 0  0.009687160254490141 0.001860567253765581 0  0.0004396984924623116 0.001934937743001835 0  0.0096356783919598 0.001854910359425602 0  0.0004001826336360176 0.00195931495573234 0  0.009560301507537689 0.001854110352952316 0  0.0003423751966045807 0.001987545593382539 0  0.009481210086417382 0.001858815491368148 0  0.0002911969690724577 0.002029402482178082 0  0.009481210086417382 0.001862644860739296 0  0.0002580130177701367 0.002063386007603551 0  0.009492061653596414 0.001869341617393767 0  0.0002284914817732551 0.002101074449814606 0  0.009531589159359252 0.00191075121689978 0  0.0001761836811272999 0.002198492462311558 0  0.009585427135678391 0.001924062446380331 0  0.0001618993187882631 0.002248743718592965 0  0.009610552763819096 0.001934937743001835 0  0.0001560157019642974 0.002374371859296483 0  0.00965006862264539 0.00195931495573234 0  0.0001649910713430189 0.002474874371859297 0  0.009707876059676827 0.001987545593382539 0  0.0001710978683138655 0.0025 0  0.009759054287208951 0.002029402482178082 0  0.0002012105121426813 0.00256072054261073 0  0.00979223823851127 0.002063386007603551 0  0.0002130530033909991 0.002600502512562814 0  0.009821759774508151 0.002101074449814606 0  0.0002502821825141891 0.002667305122320429 0  0.009874067575154109 0.002198492462311558 0  0.0002654653582493761 0.002702334538260914 0  0.009888351937493144 0.002248743718592965 0  0.000375528915598425 0.002876338552795076 0  0.009894235554317109 0.002374371859296483 0  0.0005027084139049119 0.00306420547829078 0  0.009885260184938387 0.002474874371859297 0  0.0005226374797737294 0.003103015075376884 0  0.009879153387967542 0.0025 0  0.0006002286231163957 0.003227177267637223 0  0.009849040744138724 0.00256072054261073 0  0.0006525108932056666 0.003319865493984621 0  0.009837198252890408 0.002600502512562814 0  0.0006781798550600643 0.003379396984924623 0  0.009799969073767218 0.002667305122320429 0  0.0007033258376945973 0.003417910151891038 0  0.009784785898032033 0.002702334538260914 0  0.0007169228370724278 0.003455048777598521 0  0.009674722340682984 0.002876338552795076 0  0.0007536178063629589 0.003518222300836898 0  0.009547542842376496 0.00306420547829078 0  0.000780578638466359 0.003579765812741019 0  0.009527613776507678 0.003103015075376884 0  0.0008042649221289211 0.003616181860333608 0  0.009450022633165012 0.003227177267637223 0  0.0008172167405456765 0.00365
[...]
<PointData  Scalars="$\epsilon_{VM}$"> 
<DataArray  type="Float64"  Name="$\epsilon_{VM}$"  format="ascii">1.2541714003784407e-04  1.6694017777659181e-04  1.3516850692508171e-04  1.4974630025143493e-04  1.5813099733401836e-04  1.5431556905048203e-04  1.6313836882236589e-04  1.6506499676375533e-04  1.6945321779646532e-04  1.8608888615333333e-04  1.9882298858201554e-04  2.5491539028524291e-04  2.7999175755209982e-04  4.1194159924216823e-04  8.3762132613558228e-04  1.2593590170907692e-03  4.6537437721304217e-04  4.2770156587316449e-05  3.5836268590693103e-05  2.1437754524467379e-05  4.5353996066337537e-06  6.2903521483555713e-06  4.8083879852273849e-07  3.2939281019167828e-06  -1.1353476536681800e-06  4.3892042755487035e-06  5.9524327772810360e-06  6.6371428703243351e-06  7.3147625610771527e-06  5.1157625449113048e-06  7.0309755570369462e-06  5.9587614065414955e-05  1.2891445152696083e-04  2.0549046150348719e-04  2.4115135579125713e-04  2.4032709826492189e-04  3.3706637315889811e-04  3.2974344250387926e-04  4.1125123494699671e-04  4.8653919185426812e-04  5.1667617629277322e-04  4.6750152238565047e-04  4.2723594705434314e-04  3.4541689922406964e-04  3.3413761816386724e-04  2.6593160500189788e-04  2.3341210378650994e-04  2.2757647981796049e-04  1.9059889627979322e-04  1.6009686302320185e-04  1.6477463976823122e-04  1.7390225364775105e-04  1.7392990175932766e-04  1.9448881704029207e-04  2.0335418448282506e-04  2.9471893000490194e-04  2.7662075846645511e-04  2.9132151832474639e-04  3.8853795675353349e-04  5.0874028155228207e-04  4.0265758191440789e-04  2.8301401032840095e-04  4.1993421019841565e-04  7.6859246723229389e-04  4.3977121439789401e-04  4.6657076320172271e-04  3.6039148234266868e-04  3.0915320242802221e-04  2.5009460433531261e-04  2.2612781039638413e-04  2.0454218182035236e-04  2.0415486948625742e-04  1.9389085983470756e-04  1.8563605849284672e-04  2.2207749990949471e-04  2.6133520836657819e-04  2.6682477234439501e-04  3.1126651942212449e-04  3.7278538076267095e-04  4.0557415783396060e-04  4.7573120777806837e-04  5.3015054948423932e-04  5.3203494437860973e-04  4.6731228660550983e-04  3.5088363111237852e-04  2.3040729647611250e-04  1.5501458776216772e-04  8.2061230858234302e-05  3.4268977924483225e-05  1.4650647191642773e-05  1.0942057576308943e-04  1.9524539138083839e-04  2.0767989737330354e-04  1.5595293283352326e-04  1.3989057593450329e-04  1.2856364876085547e-04  1.1035313602079668e-04  9.2999623744047903e-05  6.4698964592335514e-05  6.7916844407819226e-05  1.0376977128018490e-04  1.3843924548523554e-04  1.2356579313054826e-04  5.7840002456508591e-05  1.9098256925910784e-04  3.2680894077678963e-04  1.0371278517477861e-03  1.0000480938317095e-03  2.3033714256052055e-04  4.6062972263234575e-06  3.3778810666413766e-05  1.8029718984897419e-05  1.6144134276463324e-05  1.8492160628368942e-05  1.7788055522628771e-05  1.9230500248614035e-05  1.9337264842753127e-05  2.0390218964542122e-05  1.9181503103302577e-05  2.2116540671956760e-05  1.2279397871329096e-05  1.7717494275866388e-05  3.8367849399499847e-05  5.5213873191168671e-05  1.3913412999115503e-05  5.5699305711493808e-08  1.5908269024122896e-07  6.5498226576759980e-07  6.7317644243456777e-07  8.0593355713698889e-07  1.0650015061616871e-06  7.9447263456830216e-07  1.0814317726011731e-06  9.7340169368494173e-07  4.4209027009446844e-06  7.7381473487048939e-06  1.0483504650828629e-05  8.9991887560624564e-06  6.3897347620733722e-06  3.7767417710498400e-06  4.1137887251831539e-06  3.9858525789838635e-06  3.8822896354326126e-06  3.5950954500235390e-06  4.2499763675164270e-06  4.2177503982800151e-06  1.1522463667898163e-06  1.1453997641603742e-05  4.4130428188803742e-05  7.9997468437959172e-05  2.3040704783358034e-05  1.8576446324128555e-05  1.2893781955663029e-05  1.7475442075854332e-05  -1.6174772222369300e-05  8.0726677066972667e-06  9.5689238523341674e-05  7.6625513615292826e-05  3.1421305464617949e-04  8.8585172172018958e-05  7.4750310074255715e-04  -6.3512750580077372e-07  8.4102263199344293e-05  3.5140114554289153e-06  7.4528634670343273e-05  1.2429151735402103e-05  1.1595690786194553e-04  2.7116008729054720e-05  9.4367503958826167e-05  1.4823175429353864e-05  9.7193184297150392e-05  4.6428463908644230e-05  8.0995454257532244e-05  2.8812461501509723e-04  7.1527546185244596e-05  6.7805953878446773e-04  7.0775288890470762e-05  1.2453563839401468e-04  7.1786937410927440e-05  8.2711141091782586e-05  6.7501429293056686e-05  1.1183563117652117e-04  7.6663441932835007e-05  8.8708353552024495e-05  9.7332753858714096e-05  9.5226706482384935e-05  1.0092629598415657e-04  8.0495062944500057e-05  1.1198533732523269e-04  7.2412318549486387e-05  1.4768352100714776e-04  7.0497365033811608e-05  1.8965259638842219e-04  7.1602121620937113e-05  1.7581514017738352e-04  6.6231807744735488e-05  2.6634240154887686e-04  7.6158539269686088e-05  2.6314638605046174e-04  9.5865037667025482e-05  3.0915345703587675e-04  1.0536907665548601e-04  2.5293841851954684e-04  1.1063966172902418e-04  1.9601499212680779e-04  1.4919538281190430e-04  1.8353919139548668e-04  1.6964683557589482e-04  1.5006494447955434e-04  2.0836122603558419e-04  1.3467681037193652e-04  2.5506347283969641e-04  1.1289386216570189e-04  2.8296737938224775e-04  8.7979184360555812e-05  3.1051966716415035e-04  7.0081637955608718e-05  2.4585905212943328e-04  4.7501560409885420e-05  2.0228433684729865e-04  3.0593624640912145e-05  1.8481382858577197e-04  1.6624710886546717e-05  1.4684497230768172e-04  4.5350361684318848e-06  1.3056671261167809e-04  8.8061236472736147e-06  1.1821085524324300e-04  1.1575727703927475e-05  8.6326999844355977e-05  1.0968449801996318e-05  7.0348520929542312e-05  8.6401718367991711e-06  4.6758393398103354e-05  6.2567782683160088e-06  3.1031405045736489e-05  1.2254094851191550e-06  1.5553339845236315e-05  3.5548033438406779e-06  5.3985524932501947e-06  -5.0670040969844799e-08  8.0995789816501717e-06  5.1355974126112714e-06  1.1492289921524797e-05  9.9274697241768877e-06  1.0343891297698399e-05  5.5984477559150019e-05  8.7952685273486652e-06  1.4924035606477806e-04  4.9546806689704253e-06  9.8416693140854152e-04  3.1212313012105015e-06  1.6442894611126239e-03  3.0846783883143782e-06  7.4064680957421373e-04  -4.6131250583199103e-08  6.6229286988740493e-04  7.7800455628053851e-06  5.8148195942234443e-04  8.8001337573136226e-06  5.8201024192030540e-04  5.0146063743117315e-05  5.1042822123611227e-04  1.4554405835033653e-04  4.6925216701727102e-04  1.0117565775625882e-03  4.8198732650197505e-04  1.6057071262131760e-03  4.6805505018699745e-04  7.4729683776993843e-04  4.5775026007775820e-04  6.5329665722056447e-04  4.2529952702898178e-04  5.9264606651136353e-04  4.1906169273139225e-04  5.7893798061333865e-04  4.0206755948968471e-04  5.0143563371898706e-04  4.3162633157123244e-04  4.6332098924768646e-04  5.0784140902805435e-04  4.7851209238162134e-04  1.0083209140823370e-03  4.6606550484398849e-04  7.7992999466884128e-04  4.4935086177473621e-04  2.3136792943000281e-04  4.1830595728073548e-04  6.6568965531219935e-05  4.0553039136934462e-04  4.8257337238557835e-06  3.9916600061120527e-04  1.2487560075530998e-05  4.2287775153989412e-04  5.3429879741537146e-06  5.4406162282992639e-04  6.2949385067110894e-06  9.1707338863320539e-04  4.8370425479746544e-06  8.0418701252993785e-04  8.6781897108750667e-06  2.3476657966762783e-04  9.8324301989984762e-06  6.4352914579152046e-05  1.0663592495388404e-05  6.2301944105185298e-06  1.3080235399567696e-05  -3.3749852798809591e-06  1.5417282880038280e-05  5.4885632760586109e-06  1.2848075085402935e-05  4.6997777747196048e-06  1.4526680688171281e-05  6.8108496185047845e-06  1.6859291474956590e-05  8.7702477692155405e-06  1.2661155811129410e-05  9.6076564623066600e-06  5.0464093330982384e-06  1.0359415037004663e-05  1.1624677745534853e-06  1.2263927042880902e-05  4.7190407431966139e-07  1.4774160657171661e-05  3.9557188891026253e-07  1.3568182574392482e-05  1.1476321823510948e-06  1.5261031742516810e-05  7.8585160472691766e-06  1.3748660301914638e-05  3.5246672404868975e-05  7.4148433586280780e-06  2.8370717373900166e-04  2.4161247346363168e-06  6.2377551199177506e-04  6.3135716798666448e-07  4.5487954551927075e-04  6.4122913165249098e-07  3.4187086583363312e-04  1.3847334054045840e-06  2.6270970158017814e-04  2.0838994868699018e-05  2.4138927806230520e-04  1.9983948787817178e-04  2.1303592743315567e-04  6.2501161583909811e-04  2.1850313079523740e-04  4.7169328342931276e-04  2.1419281064578714e-04  3.3223952789118412e-04  2.0399862447830719e-04  2.5957060959775469e-04  2.5394251583496247e-04  2.4176065584023289e-04  3.0049979949886422e-04  2.1392840959916072e-04  2.9774548207146822e-04  2.1435793499817831e-04  3.4566065100961668e-04  2.1336587052790028e-04  4.3837716439722077e-04  2.0319271944862995e-04  4.6742011486517577e-04  2.4903385717946002e-04  5.0564755604432638e-04  3.0223606781692867e-04  5.8713204942226161e-04  2.9422932327214122e-04  6.3431821569206103e-04  3.4776296753921020e-04  6.6752344535970284e-04  4.2633666848349017e-04  5.7940450079081523e-04  4.6143875566688437e-04  5.1888658253087183e-04  5.0536200702719456e-04  4.4809245350171945e-04  5.7271364359577810e-04  3.8688504602160786e-04  6.5163019927454732e-04  3.1152288942375606e-04  6.4929459701316625e-04  2.7220508818223303e-04  5.6571757905840450e-04  2.4550459138176860e-04  5.1425702067300189e-04  2.0074585680238225e-04  4.4599535663162774e-04  1.5063534963242467e-04  4.0261837201567845e-04  1.0288200474277782e-04  3.0052662883987700e-04  6.5546732201807986e-05  2.7511460953608889e-04  3.2242600144594374e-05  2.4526450825224094e-04  2.5872690105018702e-05  2.0132556555251796e-04  4.8609825106183534e-05  1.5264885446679758e-04  5.4815591130161940e-05  1.0590175855305942e-04  4.3215801102348106e-05  6.8532124847589515e-05  3.9152202768953680e-05  2.9120885820946555e-05  2.8957086203736241e-05  2.5241614867792004e-05  2.3846883992447996e-05  4.5767533980602557e-05  2.1643064312849536e-05  5.1748564516058322e-05  2.2045761287854062e-05  4.2555953975444418e-05  3.6943648960001644e-05  3.6736990382290543e-05  1.1607427219491946e-05  2.9672240211614275e-05  3.4619529792050171e-05  2.0393152115603841e-05  1.0917102384259512e-04  2.0197901702072872e-05  6.0239368617908990e-04  2.2480126276023348e-05  3.9212322760335469e-03  3.6378949877011312e-05  1.2824948864272249e-03  8.7529648257032522e-06  8.7571254362516762e-04  4.4169388471520106e-05  6.4507782272950212e-04  9.9670338217085441e-05  5.6131003827733495e-04  5.5251903634500525e-04  5.1076716213281441e-04  2.8497763177736967e-03  4.7609627970318202e-04  2.6964006891754076e-03  4.3884761352422298e-04  1.1332513082111910e-03  4.1288494392372464e-04  9.2612319129877711e-04  3.9599916178597265e-04  6.4335287737474374e-04  3.8472037210155466e-04  5.7434164588229374e-04  3.6467512278920834e-04  5.2408368482186963e-04  3.6050676657858253e-04  4.8280707700011069e-04  3.5510576850729197e-04  4.4075923118999335e-04  3.5558448578420685e-04  4.2857205811076723e-04  3.4969501815553417e-04  4.0301429867152332e-04  2.8550599669186692e-04  4.0017213707699441e-04  4.9959838608152837e-04  3.8286066423156868e-04  1.0062462743532202e-03  3.7215755543079686e-04  3.1165045557860036e-04  3.7010129142912331e-04  1.2810737246374780e-04  3.6969882582217498e-04  4.7807428071382295e-05  3.5931408841399678e-04  2.7387142225907332e-05  3.3276717403957949e-04  2.9753201389153754e-05  4.2737694659689075e-04  2.7473119844505030e-05  8.1906309333430630e-04  2.1654144212469480e-05  3.0290624852656015e-04  2.4691958214518943e-05  1.1370305951856388e-04  2.6196687925537113e-05  3.9438391226984502e-05  2.8482053700533521e-05  2.7570451538383969e-05  3.3887014961994692e-05  2.8812473338535395e-05  2.8693656946695588e-05  2.5032971244769093e-05  2.8322424228136338e-05  1.8710964870846949e-05  3.7844927642890785e-05  2.1337411092790508e-05  3.7190223089435063e-05  2.4596826050639755e-05  2.2616144652384982e-05  2.3241892624272596e-05  4.9260175664453872e-06  3.0211592281531511e-05  1.8962386302671047e-05  2.3997940181446396e-05  3.4980918173459065e-06  2.1426145912158049e-05  -8.7110400160364000e-06  3.8688585174610157e-05  1.7296635001499755e-05  3.3236587613005026e-05  1.3736098079858295e-03  6.5592635031633663e-04  1.1677198348832036e-03  5.2963782878960445e-04  3.3985115218120179e-04  4.6282465739240183e-04  1.6182997893531974e-04  4.5901532835842884e-04  2.4727477660704622e-05  4.2321018546935736e-04  8.2644794208959154e-05  4.1764900296735962e-04  6.8294335824218566e-05  3.8824530849148844e-04  7.7111971312758510e-05  4.0795068952951982e-04  7.6046870863759791e-05  4.5236817070431931e-04  8.9745506289935054e-05  4.9588833175648827e-04  9.4464514871365929e-05  4.7307731263317903e-04  1.3161670676845613e-04  4.7463557537065834e-04  1.6617207431283884e-04  5.3397667369422836e-04  1.5406746902398019e-04  7.6033003094191866e-04  1.7471374650426377e-04  8.0818573422664389e-04  2.1780837456147610e-04  1.2298234208492130e-03  2.8510449301676169e-04  1.2235688261121990e-03  3.3640048090894205e-04  9.1592978980922465e-04  4.7667598659464726e-04  2.5233486255603197e-04  4.2417031346470208e-04  1.1354136420557130e-04  3.2939971410249184e-04  5.9528341604980092e-05  4.2306679957382787e-04  4.0441557883611291e-05  4.8096080956189685e-04  4.9826868780608476e-05  3.5179488315775672e-04  4.2210657100684267e-05  2.8460928358858660e-04  3.0465271669874829e-05  2.4131698948116109e-04  2.3571607270482430e-05  1.8863924220954774e-04  2.8532103779803518e-05  1.7857932301413448e-04  3.4426721481005289e-05  1.7841833356270601e-04  4.0305599974225163e-05  1.3544172455403781e-04  4.5224744172703860e-05  9.9658952437104540e-05  4.7482549697077188e-05  9.4101947817726850e-05  5.3930889167416129e-05  8.4014404709918436e-05  6.3369172236331747e-05  8.1536514737599902e-05  6.0856740816013414e-05  8.1122517127376687e-05  6.4100778998020562e-05  7.3554204036773717e-05  7.2786538867877028e-05  6.0928822932204643e-05  7.0926446305915773e-05  1.6221603300700118e-04  7.1015476053434395e-05  3.3458252101199184e-04  6.9994265800574226e-05  1.1197545140519017e-03  6.3301812477839221e-05  6.1366066927970113e-04  4.6564320065868547e-05  4.2001434376690927e-04  3.4683616649132107e-05  3.9238237631968509e-04  2.4690985090790324e-05  3.6603032766695991e-04  1.8073592499544088e-05  3.6568093551552400e-04  1.4567909357554247e-05  3.4829978077520848e-04  1.0656539727493449e-05  3.3178850644691263e-04  6.5890912445360763e-06  3.5180483800901553e-04  4.2008089528551568e-06  3.9580153504119385e-04  2.6178784710832620e-06  4.3734527654467427e-04  2.6265306261289871e-06  4.2598287753999389e-04  1.0774540608127841e-06  4.2552807077705511e-04  8.3276244637747275e-07  4.8484307796938826e-04  9.4133371662768403e-07  6.6529296852315897e-04  1.0772885134707481e-06  7.8254575404831657e-04  7.6576658428447650e-07  1.0104894053928222e-03  1.3607907247904835e-06  1.5576803156401437e-03  4.6170293584753295e-06  9.8887198822221575e-04  1.6431540024656908e-05  1.7414324494183540e-04  5.2220669759880922e-05  8.2118832749046439e-05  2.5210348821600554e-04  4.8980158627679143e-05  1.1728518633077977e-04  3.1334186379812613e-05  5.6733964027757023e-05  3.9268601847392138e-05  5.0523072813329514e-05  2.8783709760866689e-05  2.5303600092782477e-05  2.3520172123808653e-05  2.7592376791067713e-05  1.4139858936641041e-05  4.0233406065949866e-05  1.9934233504922645e-05  8.1189132906882180e-05  2.3312637183233971e-05  1.3608352006044049e-04  2.6138030962624770e-05  2.6396573510512289e-04  2.8310904342508849e-05  5.9189169788991906e-05  2.8903761645767832e-05  1.9151407040166435e-05  3.1182988304154159e-05  9.0620134948646943e-06  3.6530515088247463e-05  1.9152407560016605e-06  3.4199504011656469e-05  1.5714931649260964e-06  3.5817477481537157e-05  7.1619122155513432e-07  3.9058893912957949e-05  4.4466704298056302e-07  3.9480395468086367e-05  4.5745277619909559e-07  3.7236907254475974e-05  -3.2280333557335687e-08  4.0586725767508545e-05  8.1433726685526913e-07  3.4265191816417206e-05  8.0902494713851622e-07  2.5964295211480672e-05  1.7117635271895571e-06  2.0464737230806553e-05  3.5476924434412611e-06  1.5071701600518271e-05  6.1205230146862508e-06  1.0625528498933497e-05  8.3527692857178191e-06  2.3503811102891063e-03  7.1380906647526706e-04  5.4910083268020285e-04  2.4070257749137766e-04  2.6822108287223568e-04  3.4220103583985407e-04  1.1714915907648117e-04  3.4895188134326618e-04  1.1623138890360041e-04  3.5314840492328204e-04  1.3514159560674258e-04  3.8045824499386100e-04  1.3453088495692079e-04  4.1736594664865579e-04  1.2974113826231458e-04  4.5753023121055574e-04  1.5085648153134742e-04  5.0210879257475422e-04  2.0766570242350055e-04  5.8985705503824691e-04  1.9360044165148911e-04  6.9880807913515967e-04  3.4357371939156798e-04  7.3824354016918171e-04  3.7845253241960503e-04  9.4678626595972595e-04  4.7061238629449918e-04  1.0147058114335209e-03  3.4343451658234910e-04  1.5431691528270612e-03  2.9333477639774543e-04  4.0091670950584326e-03  2.1767431962428630e-04  3.7817559847012285e-03  1.5112279105605126e-04  8.6620109369287912e-04  1.3047943858988093e-04  1.4570006941351502e-04  1.0691032756061960e-04  8.8696261083184375e-05  7.3027798118637115e-05  7.0556233542946816e-05  8.9461159284003687e-05  5.4291451196211401e-05  8.6472580608635410e-05  4.4600947245003132e-05  7.4400932042774400e-05  5.2830652945025380e-05  7.3817752444149483e-05  5.3239663058987147e-05  1.8487296854551244e-04  4.8474520508750878e-05  3.7999698358992317e-04  6.3736065330890018e-05  1.4932986339177830e-03  7.3240706862474502e-05  2.1379555015045106e-03  7.9940101149614709e-05  4.3213826068161349e-04  9.7069746109873633e-05  2.5051296370568507e-04  1.2668968492058916e-04  3.4587008159953352e-04  1.1065679485791212e-04  3.5657570169347522e-04  6.0879986483313085e-05  3.5936917515238100e-04  1.7202955813227250e-05  3.8564432206738544e-04  2.7581855029627289e-05  4.2827631024630570e-04  8.1963693701745801e-05  4.5714966793456113e-04  1.2632327768937027e-04  4.8709263200378411e-04  1.6509113795061488e-04  5.9633629417763607e-04  2.2391474334545081e-04  6.7270031863986952e-04  2.8937632809208317e-04  7.2485576967582616e-04  3.5849909408434163e-04  8.9397707947624439e-04  4.5965883440945673e-04  9.8595576689426917e-04  6.6339328459119227e-04  1.5040966591737112e-03  6.9491445439510903e-04  3.5556898625249498e-03  6.1087333371443397e-04  4.4770858087959733e-03  5.7385898001684763e-04  6.6025613820750416e-04  4.6235616221129087e-04  1.3711816443711961e-04  4.4891841407829094e-04  2.4427560838265692e-05  4.3736236106128201e-04  2.7243059854321172e-05  3.2942872256903959e-04  1.1633137344162168e-05  2.9451824226990223e-04  8.9418300429151090e-06  2.9640994542171485e-04  6.9954650470249580e-06  2.3133074230409257e-04  6.5044341505445672e-06  1.9604217531858810e-04  5.8983181340870469e-06  2.2119136050153664e-04  5.0001842198227989e-06  2.3971098231902996e-04  3.7177277037718120e-06  2.5471300606537216e-04  3.4312577936085866e-06  2.8035248577752074e-04  1.1830067152453584e-06  3.8797612854112891e-04  2.1295678478330205e-05  4.8391301762495449e-04  5.8981359754092744e-05  6.0924110418128269e-04  1.2696538312456825e-04  5.4354385242103096e-04  1.6201283673942613e-04  4.4471201454415065e-04  2.0047028337481337e-04  4.4130604796597834e-04  2.3566646343175124e-04  3.9081613831849684e-04  2.5684079703371408e-04  3.8055876233603953e-04  2.8372386719690635e-04  3.8882281276357133e-04  2.9953796748600700e-04  4.5762345449809665e-04  3.9352066753393027e-04  4.4853390141295235e-04  4.4814463017688966e-04  5.5209619168499900e-04  4.3023196006553412e-04  6.5627468697147687e-04  5.6771641369519248e-04  3.9369198218257225e-04  5.9542177522151551e-04  3.1281544916024050e-04  5.2719227289008597e-04  2.4017687060297061e-04  4.9491670051344584e-04  2.1478221137981630e-04  3.8665785563957449e-04  1.9878004991943370e-04  3.7764033105077598e-04  1.8464929113199834e-04  3.7170145935792046e-04  1.6495412128971718e-04  2.72456927406