<?xml version="1.0"?>
<VTKFile type="UnstructuredGrid"  version="0.1"  >
<UnstructuredGrid>
<Piece  NumberOfPoints="1799" NumberOfCells="3156">
<Points>
<DataArray  type="Float64"  NumberOfComponents="3"  format="ascii">1.694065894508601e-21 0.008447317744001559 0  0 0.006243487017789186 0  0 0.01 0  0.01 0.01 0  0.01 0.004739447698251261 0  0.01 0.003038811340045742 0  0.01 0 0  0 0 0  0.00972274937591714 0.00446136709 0  0.009653726258356362 0.004545183154286949 0  0.009783606631901408 0.0043734488461064 0  0.009577812281436313 0.004624366443043088 0  0.009835143529851395 0.004282096254618384 0  0.009496374895431106 0.004698536913086191 0  0.009876351429728553 0.004188097333533943 0  0.009410843899527923 0.004767474310794485 0  0.009906389591104073 0.004092339945416686 0  0.009322680015752169 0.00483112308721043 0  0.009924603388293412 0.003995788691361544 0  0.009233342881914028 0.004889592860194898 0  0.009930538269388231 0.00389945963832429 0  0.009144259222736564 0.004943154406398476 0  0.009923949134101986 0.003804393533973133 0  0.009056791952980949 0.004992231280310688 0  0.009904804916195522 0.003711628202889073 0  0.00897221094262878 0.005037387269757166 0  0.009873288272257268 0.003622170840092915 0  0.008891666132610079 0.005079310004121139 0  0.009829790396922524 0.003536970921943865 0  0.008816163631214721 0.005118791130579932 0  0.009774901102315603 0.003456894440322572 0  0.008746545347644217 0.005156703562277342 0  0.009709394413691105 0.003382700134020289 0  0.008683472631978471 0.005193976378365099 0  0.009634210041128223 0.00331501834219343 0  0.008627414292309099 0.005231568017322153 0  0.009550431186043644 0.003254333039822774 0  0.008578639252366998 0.005270438450342868 0  0.009459259228807002 0.003200967535951617 0  0.008537213999305775 0.005311521049719365 0  0.00936198591772306 0.003155074224035663 0  0.008503004854204898 0.00535569487730484 0  0.009259963738278846 0.00311662867229655 0  0.008475684980220988 0.005403758110057852 0  0.009154575183414377 0.003085428233059718 0  0.008454745928046752 0.005456403293512485 0  0.009047201669650919 0.00306109523639258 0  0.008439513408278112 0.005514195070427174 0  0.008939192849631329 0.003043084717779311 0  0.008429166878152986 0.005577550971903466 0  0.008831837058876933 0.003030696514962359 0  0.008422762438422462 0.005646725783411865 0  0.008726333603687408 0.003023091458314896 0  0.008419258457098896 0.005721799910265017 0  0.008623767548895558 0.003019311274956418 0  0.008417543272430451 0.005802672068315741 0  0.008525087599857118 0.003018301731897273 0  0.008416464279248125 0.00588905651847861 0  0.008431087594226352 0.003018938460180701 0  0.008414857671986093 0.005980484950740676 0  0.008342392027717107 0.003020054832380215 0  0.008411578104923951 0.00607631300744762 0  0.008259445936461489 0.003020471211663848 0  0.008405527535824455 0.006175731319709577 0  0.008182509349292211 0.003019024853329008 0  0.008395682542970321 0.006277780817654691 0  0.008111656409014527 0.003014599720199745 0  0.008381119447013561 0.006381371967788657 0  0.008046779145346881 0.003006155472077048 0  0.008361036626979524 0.006485307491577932 0  0.007987595766591686 0.002992754906602592 0  0.008334773492744059 0.006588308031041598 0  0.007933663225123278 0.002973589164041123 0  0.008301825662481763 0.006689040151823762 0  0.007884393706229835 0.002948000060762873 0  0.008261855990795578 0.006786146013815808 0  0.007839074593337327 0.002915498984345503 0  0.00821470119903896 0.006878273995427361 0  0.00779689137756701 0.002875781865550529 0  0.008160373971076945 0.006964109531182152 0  0.007756952908035942 0.002828739836943341 0  0.008099060492600814 0.007042405414120494 0  0.007718318323066783 0.002774465292296384 0  0.008031113527237115 0.007112010824752832 0  0.007680024962909086 0.00271325317257295 0  0.00795704123519566 0.007171898376800313 0  0.007641116542652925 0.002645597420482335 0  0.007877492047271241 0.007221188515997342 0  0.007600670860259881 0.002572182663460059 0  0.007793236005976425 0.007259170670701667 0  0.007557826329114609 0.002493871301548735 0  0.007705143073969071 0.007285320630435001 0  0.007511806656826274 0.002411686289155665 0  0.007614158985545023 0.007299313718867113 0  0.007461943041351158 0.002326790005260706 0  0.007521279277912055 0.0073010334289404 0  0.007407693320609463 0.002240459702730237 0  0.007427522183731196 0.007290575297323677 0  0.007348657590981677 0.002154060111582997 0  0.007333901093897399 0.007268245910489354 0  0.007284589901391725 0.00206901384126507 0  0.007241397309057064 0.007234557052593699 0  0.007215405730813352 0.001986770281484875 0  0.007150933789699272 0.00719021512310135 0  0.007141185065425865 0.001908773738582196 0  0.007063350588039396 0.007136106066830752 0  0.007062171004568673 0.001836431563827099 0  0.006979382601016691 0.007073276167978721 0  0.006978763939261549 0.001771083030979474 0  0.006899640223662019 0.007002909160025809 0  0.006891511460488134 0.001713969702858609 0  0.006824593407373458 0.006926300192755933 0  0.006801094263833782 0.001666207991002947 0  0.006754559540147956 0.006844827273742502 0  0.006708308419676155 0.00162876455961884 0  0.006689695467758148 0.006759920862683462 0  0.006614044471369561 0.001602435156224392 0  0.006629993868701035 0.006673032341407502 0  0.006519263905397843 0.001587827368384263 0  0.006575284084148806 0.006585602109130518 0  0.006424973605244305 0.00158534771074889 0  0.006525237389907268 0.006499028060960921 0  0.006332198953034525 0.001595193341602671 0  0.006479376583406328 0.006414635197532647 0  0.006241956278528544 0.001617348595877673 0  0.006437089647876208 0.006333647085242707 0  0.006155225372873471 0.001651586404869184 0  0.006397647150892512 0.00625715984059454 0  0.00607292278421836 0.001697474554571888 0  0.006360222938045857 0.006186119249742206 0  0.005995876593836629 0.001754386617555196 0  0.006323917597038065 0.006121301557042314 0  0.005924803335248409 0.001821517280492992 0  0.006287784095183865 0.006063298366166584 0  0.005860287665879005 0.001897901683632007 0  0.0062508549359344 0.00601250599634399 0  0.00580276533234513 0.001982438292224905 0  0.006212170139093256 0.005969119527087292 0  0.005752509888229881 0.002073914735631396 0  0.006170805325914 0.005933131650016665 0  0.005709623529238961 0.002171035979469365 0  0.00612589918486164 0.005904336328960144 0  0.005674032307267846 0.002272454141595308 0  0.006076679606648487 0.005882337152288339 0  0.005645485874731519 0.002376799225137041 0  0.006022487807921907 0.005866560147323738 0  0.005623561796267508 0.002482710022195841 0  0.005962799810943057 0.005856270718467968 0  0.005607674349474454 0.002588864440638754 0  0.005897244710577686 0.005850594271079678 0  0.005597087622580383 0.002694008523617222 0  0.005825619238346946 0.005848539994562327 0  0.005590932607696336 0.002796983466621648 0  0.005747898224220681 0.005849027202760175 0  0.005588227886339777 0.002896749989114506 0  0.005664240658026499 0.005850913569457749 0  0.005587903411768036 0.002992409485755934 0  0.005574991161285845 0.005853024553003058 0  0.00558882681266186 0.003083221464236011 0  0.005480676794268173 0.0058541832778865 0  0.005589831576859201 0.003168616870700337 0  0.005381999239242995 0.005853240133126504 0  0.005589746423825433 0.003248207007348517 0  0.005279822516415462 0.005849101357707455 0  0.005587425141631403 0.00332178785741102 0  0.005175156500976945 0.005840755911796739 0  0.005581776149243588 0.003389339747608045 0  0.00506913661529584 0.005827299978297529 0  0.005571791048314209 0.003451022394501277 0  0.004963000166879053 0.005807958501303589 0  0.005556571450340227 0.003507165495970296 0  0.004858059887934908 0.005782103244641807 0  0.005535353404530312 0.003558255139524018 0  0.004755675304028876 0.005749266942985061 0  0.005507528808027482 0.003604916402549837 0  0.004657222615643685 0.005709153217746636 0  0.005472663251911699 0.003647892613343369 0  0.004564063816013228 0.005661642037623928 0  0.005430509841895833 0.003688021823527707 0  0.004477515790388595 0.00560679061654508 0  0.005381018629732107 0.003726211110241175 0  0.004398820145347423 0.005544829757060492 0  0.005324341397676651 0.003763409378575775 0  0.004329114501762111 0.00547615576202805 0  0.00526083165129817 0.003800579369906148 0  0.004269405951942947 0.005401318148896703 0  0.005191039792677943 0.00383866959910631 0  0.004220547331062618 0.005321003506214064 0  0.005115703563750334 0.003878586942798619 0  0.004183216886472467 0.005236015928541855 0  0.005035733965268281 0.003921170581761714 0  0.004157901847560569 0.005147254551350707 0  0.004952196967785547 0.00396716796394016 0  0.004144886305359802 0.005055688779556268 0  0.004866291434383562 0.004017213401087919 0  0.004144243707482425 0.004962331860358698 0  0.004779323768077839 0.004071809843297703 0  0.004155834162682716 0.004868213491542542 0  0.004692679877608203 0.004131314293258991 0  0.004179306633167043 0.004774352179382177 0  0.004607795121646793 0.004195927228129257 0  0.004214105974540842 0.0046817280652164 0  0.004526122941701917 0.004265686293763611 0  0.004259484665915422 0.004591256926493267 0  0.004449102926905492 0.004340464426324128 0  0.004314518959085191 0.004503766026986902 0  0.004378129068627031 0.004419972442741865 0  0.00593001182314166 0.006372403387971871 0  0.005939572443554628 0.006436360317137665 0  0.005925376372385204 0.006368751471385894 0  0.005946732308607814 0.006530898816930391 0  0.005866840669782601 0.00633199119654035 0  0.00594701266737181 0.006625814903473438 0  0.005804249765180952 0.006301600770407027 0  0.005940440295727538 0.006720641436504761 0  0.00573695820405656 0.00627701458488837 0  0.005927101959384199 0.006814914480349616 0  0.00566445506679863 0.006257506825568757 0  0.005907143630376305 0.006908179927508449 0  0.005586382222683439 0.006242212086839124 0  0.005880768731714959 0.007 0  0.005502548881191342 0.006230149145824911 0  0.00584823543546249 0.007089959498878739 0  0.0054129
[...]
<PointData  Scalars="$\sigma_{VM}$"> 
<DataArray  type="Float64"  Name="$\sigma_{VM}$"  format="ascii">3.3277742703013229e+08  2.0295843733298847e+08  1.6845256451133677e+08  5.9684976379368171e+07  1.7579233345338666e+08  2.6115255168542793e+08  1.0397268490436183e+08  5.8006893307477206e+07  3.2894974278931069e+08  1.8124655884844944e+08  4.7810053089632535e+08  1.1017443918471527e+08  5.8596820947884941e+08  6.2394818355133511e+07  6.3873382986156344e+08  6.1737228754249521e+07  6.1761651260485709e+08  3.4603673501716003e+07  9.9714371641756320e+08  1.6850126798744075e+07  1.6484918567493241e+09  2.2523058925295155e+07  1.1994792169101949e+09  2.4390101624643918e+07  6.2683785101779807e+08  3.8525296506974265e+07  6.3221307018189502e+08  2.6960730492717624e+07  5.7057426485229838e+08  2.6528561781719495e+07  4.5029412954812062e+08  2.4998961398128092e+07  3.7467421938252825e+08  1.8112214088436894e+07  1.9689587584579512e+08  1.6501649689870037e+07  3.9419173433963001e+08  1.3610544574411264e+07  3.2986247877463472e+08  1.1692694106255993e+07  2.6349467522719312e+08  1.1538236289167913e+07  1.5603712581504282e+08  1.1086979268547943e+07  2.5762224311716253e+08  1.2525763113370750e+07  1.6460418055634704e+08  1.4122780956613705e+07  1.3284489938373145e+08  1.6196110743186699e+07  1.2132987573884986e+08  1.9392587315344185e+07  1.0155268435712430e+08  2.1864787092215378e+07  8.2897934064235568e+07  2.2723177911460154e+07  6.9750417600698948e+07  2.6858375340252642e+07  5.5057184626539253e+07  2.9586733604668077e+07  4.3562136616860501e+07  3.0290043220459446e+07  3.3193870447830692e+07  3.0633296772334747e+07  2.6268753790172745e+07  4.2065250709111929e+07  1.8859956337744836e+07  3.3116289197209094e+07  1.6314267793589087e+07  4.3195793324221194e+07  1.2441889717483705e+07  2.7769041144585013e+07  1.1281281139762675e+07  3.7312958288552389e+07  1.1129095112102389e+07  2.6906449629132658e+07  1.1652505524060482e+07  3.7687688497610554e+07  1.3056521625601945e+07  2.6469332736727260e+07  1.5225868305718251e+07  3.5814910401633330e+07  2.1152865893321369e+07  3.5617019356198676e+07  2.5625466919802051e+07  3.8325711132330589e+07  3.1723430448261831e+07  3.8648244724408038e+07  3.9773019742210940e+07  3.6289328849137336e+07  4.6960511483507924e+07  2.9165772094001815e+07  5.5264824177803993e+07  2.4196996864419144e+07  6.1582607141221814e+07  1.5384123726562211e+07  6.8486858465204999e+07  5.9398080370089719e+06  7.2217594188238367e+07  1.8867515814803985e+06  7.5403502972565725e+07  9.7939142956585735e+06  7.5837792197700232e+07  1.6579531914332055e+07  7.6882088995404229e+07  2.1196725037979342e+07  7.3377516455309883e+07  2.3921029239131764e+07  6.8026661273935422e+07  2.3396551503190879e+07  6.2753582459495299e+07  1.8872068220846973e+07  5.4623939335708007e+07  1.3070877698274316e+07  4.7227680768780038e+07  2.3832176538197109e+06  3.9497558032140769e+07  1.6399174491281744e+07  3.1726903972010463e+07  4.3353382676120974e+07  2.7019316502594732e+07  7.0274364245286942e+07  2.4298683730515938e+07  1.0690473440752207e+08  2.3084674609656096e+07  1.3828340344483864e+08  2.4204698811020918e+07  1.5838638916115811e+08  2.6729992740360297e+07  1.6852571963739869e+08  2.9107694776676286e+07  1.6267735378445640e+08  3.2237439849526886e+07  1.5148432218255147e+08  3.3275222204764236e+07  1.2944439210334852e+08  3.4982942362745658e+07  1.1992942317357312e+08  3.5063316782219432e+07  1.0759093206220746e+08  3.4154535850895226e+07  1.0726975401066631e+08  3.2446698281295851e+07  1.1409622680170441e+08  3.0272538079459954e+07  1.2626549761669131e+08  2.7581106640462156e+07  1.4902456967401692e+08  2.4611547321896948e+07  1.6513522791987950e+08  2.1376520696849059e+07  1.8587010378844026e+08  1.8244528743310560e+07  1.9639351329876900e+08  1.5173614898342697e+07  1.8685391880241174e+08  1.2382041218965422e+07  1.7287158554676923e+08  9.7398214729771912e+06  1.3680389322963181e+08  7.5322012748989258e+06  8.8878766053660199e+07  5.6918398475613445e+06  2.2767256248865455e+07  4.3083907877258221e+06  2.8009252094743557e+07  3.1985721538982387e+06  9.2557522205526754e+07  2.4369108288330175e+06  1.4880565656828579e+08  2.0738238512941943e+06  1.9927381020747837e+08  1.8075871061900421e+06  2.3789731555024567e+08  1.8361851154455517e+06  2.7003230975842690e+08  2.0782758635958706e+06  2.8336248454273427e+08  2.5374047140179942e+06  2.9714753420462197e+08  3.2883212290972923e+06  2.9008415120942938e+08  4.2618102007568898e+06  2.8296122032258123e+08  6.2646954794069529e+06  2.6472727824307692e+08  7.6546252318007750e+06  2.3934331033585784e+08  1.0255540163900919e+07  2.0017080906654364e+08  1.2897460099297652e+07  1.6710541838166270e+08  1.5799125435038580e+07  1.1783219505356067e+08  1.8907244323023636e+07  7.5022355425495967e+07  2.1771721331790984e+07  4.4633283169864662e+07  2.4203162013948802e+07  1.8902275584960282e+07  2.6533613860040691e+07  2.5701451025151461e+06  2.6971626478403077e+07  9.7081738378393855e+06  2.6325124810761396e+07  1.8489433651092634e+07  2.4135967008021191e+07  5.4907309310638261e+08  2.8212511357319266e+08  5.6177829390275979e+08  1.7677854719688129e+08  3.7260765659539682e+08  1.3035824360865492e+08  3.2491452521882600e+08  9.4807168376983985e+07  3.1767830874977309e+08  6.2127383961093850e+07  2.8880522394264996e+08  4.1962324443558633e+07  2.7008026294411194e+08  2.4260417137105085e+07  2.3170362771817103e+08  1.1811483317037782e+07  1.9216691065706468e+08  3.7296199735168880e+06  1.3987053512879127e+08  2.0062849037160033e+06  9.4271623695574880e+07  8.6233192059928235e+06  3.7826040372953653e+07  1.1058626577751074e+07  9.4437257527990621e+06  1.3936851973802002e+07  5.0663031956592456e+07  1.5938422184220962e+07  8.9358093966868952e+07  1.6612374068792196e+07  1.3399832519958721e+08  1.7266641409374729e+07  1.4638718672105649e+08  1.7651268881190561e+07  1.5594521677983692e+08  1.6896268798592664e+07  1.6004559143152004e+08  1.6947319014750861e+07  1.5939929780105287e+08  1.5732023596079994e+07  1.5066895891611594e+08  1.5184989001982447e+07  1.4123440796175179e+08  1.4238654008203842e+07  1.2516147484368443e+08  1.3307842705721008e+07  1.1816022496425259e+08  1.2309004244753467e+07  1.0304789038724011e+08  1.1387441373905182e+07  8.7452909194601625e+07  1.0578421557275426e+07  7.8348248282728478e+07  9.6577383613844868e+06  6.5408014405292928e+07  9.0212460724874083e+06  4.8645809476305135e+07  8.1178027991876192e+06  2.8730319474692751e+07  7.7767651202603448e+06  6.3537867556651011e+07  6.9780029155447511e+06  4.2638024344336867e+07  6.6174389377886532e+06  1.8894482415560495e+07  6.2951130351786269e+06  8.5787441124648787e+06  5.7494340217937808e+06  1.3444633775049024e+06  5.5652789337820634e+06  3.3947950217438326e+06  5.2982360816041641e+06  8.8767717533083875e+06  5.1027771118699852e+06  1.3155232901575273e+07  4.9339765321174394e+06  1.6882777605089970e+07  4.8259655759140616e+06  2.0350740038890731e+07  4.7137699385336582e+06  2.3730997072831821e+07  4.6711118563180035e+06  2.5776953548549391e+07  4.5937980849585133e+06  2.8794080157545000e+07  4.5587035194828976e+06  3.0984064370760031e+07  4.5419867480629953e+06  3.2817030468211159e+07  4.4774998026574468e+06  3.4826953886393160e+07  4.4520023805875489e+06  3.6405570640901141e+07  4.4252232165897330e+06  3.7584954001592964e+07  4.3184851537504746e+06  3.8830682626119070e+07  4.3147043725230321e+06  3.9844539423940390e+07  4.2019233409936875e+06  4.1432263050232992e+07  4.1538817253915682e+06  4.0932047123753965e+07  4.0318183100680150e+06  4.2465772938602641e+07  3.9552422469910942e+06  4.2847800154368080e+07  3.8791581739823641e+06  4.3388352421505347e+07  3.7139221706842235e+06  4.4006889137826562e+07  3.6817139192514354e+06  4.4491681520880908e+07  3.7312288027614793e+06  4.5367975582730688e+07  3.7053996457757489e+06  4.6127547134476453e+07  3.6348341345967362e+06  4.7049750348197527e+07  3.8381143895950681e+06  4.8940530421043836e+07  4.2533279301726725e+06  5.0089993929357678e+07  4.4117430063714273e+06  5.3508388498245366e+07  4.7948314599776817e+06  5.2204889993297823e+07  6.0311459021405717e+06  5.4163502233759612e+07  6.2933007228595186e+06  5.8105120158140652e+07  7.9570533431420764e+06  5.9359343417618126e+07  9.4259544028940201e+06  6.0193267814596690e+07  1.1398780886604402e+07  6.4473843229830466e+07  1.4507307522932775e+07  6.5010753911336534e+07  1.6733530227057094e+07  6.7928890067575291e+07  2.1654450648957796e+07  8.0648561440260306e+07  2.5904952673186079e+07  5.1928791803636253e+07  3.1932024023818433e+07  6.6362242950359099e+07  3.9476454053121835e+07  5.9275359107202232e+07  4.3551043824231535e+07  1.0475471104075228e+08  5.5529149110116147e+07  3.4603758211305149e+07  6.4257382918706082e+07  5.3030731410487689e+07  7.4084240365604684e+07  2.7435511827248484e+07  8.7471475503573790e+07  2.9135680326900620e+07  9.5597282108707070e+07  5.5882993819069892e+07  1.0975597074491128e+08  7.0887824682249069e+07  1.2935124419305833e+08  5.8217118104158759e+07  1.3692889700092420e+08  8.2140653488602325e+07  1.5061699206893381e+08  1.3841231532122645e+08  1.6439989061553693e+08  2.1728104008864918e+08  1.7145598526131555e+08  3.0628480011579567e+08  1.6680969833701906e+08  3.8181939604685158e+08  1.6936963864556208e+08  4.4246557788988042e+08  2.6677506508041376e+08  4.6784671955271751e+08  1.7853230814958397e+08  5.0326168325280046e+08  2.7199006426982951e+08  4.6710889178039008e+08  1.4101969784233958e+08  6.4669989940047503e+08  1.7620007458826110e+08  9.2948273002206802e+08  1.7322234949060209e+07  1.4728038416012058e+09  1.6524679253848794e+08  1.2681883216185417e+09  3.9333881711557561e+08  7.1261550188386381e+08  3.8475170169642287e+08  5.6585643198843086e+08  4.6265180144241208e+08  4.3888960847868139e+08  5.0060582183467096e+08  2.4667135289827973e+08  4.6495077856758371e+07  3.1527078466233123e+07  1.9725714896026172e+07  1.1570569674485119e+07  6.3595586330073420e+06  2.8573039495178731e+06  2.4424725171320811e+06  2.9118173632052224e+06  3.1669880876575182e+06  4.2688759109449759e+06  4.6498201346638855e+06  1.7262555082500540e+07  2.7850604729402486e+07  6.0058456504902519e+07  1.1301279437807451e+08  8.0387643605662942e+07  6.4259974034185834e+07  6.4424838200717521e+08  1.0412923370772606e+08  1.6351918864806712e+08  4.7618911551393196e+07  3.8036129136338510e+07  2.8363324946893148e+07  1.8357012341560900e+07  9.0950618801983073e+06  1.3855807846994044e+06  6.7696866967304153e+06  1.2987907475938788e+07  1.7590469529999346e+07  2.2359994856392540e+07  1.8891583103769794e+07  1.0569012528304957e+07  3.2100863300639462e+07  6.3395861585795395e+07  1.1930554667875013e+08  7.1078364360201374e+07  6.1823158662275098e+07  5.9957284543883421e+07  1.6647845190939981e+07  3.1094715547819447e+07  3.7040533003597163e+07  4.2616294814184196e+07  1.8549535275741022e+07  2.0621656109233849e+07  4.7406461320572764e+07  1.9585217433224749e+07  1.1414351596015343e+07  5.1920164051055707e+07  9.0466869930872377e+06  1.1366070180159183e+07  1.1341336526510727e+07  6.7458008275662780e+07  2.2947747311313614e+07  1.1581245819978353e+07  3.2843018071740452e+07  4.1191395903350599e+07  9.3847480698906630e+06  2.6565630959609598e+07  2.9030829285161503e+07  4.7803394240072863e+06  2.3816256287628427e+07  4.9428973095722143e+06  1.3930684342778422e+07  1.3980516853078092e+07  5.9506305267665334e+07  5.9760026291914336e+07  3.0365991456860747e+07  1.0540448652323389e+08  1.8545527222204730e+07  1.3888447827815473e+07  1.2426574240729589e+07  9.5324649582121614e+06  7.2639582090961654e+06  5.5136107940287106e+06  4.8466704410575824e+06  4.5345784828046216e+06  4.3289563447418176e+06  5.4042392214935850e+06  4.1008471007530792e+06  3.9488348856023611e+06  3.8505554125040956e+06  4.4355771487641940e+06  6.0282129396643909e+06  9.2474041462377701e+06  3.2351783177949047e+08  1.6278021117455933e+07  2.6381950512864858e+07  4.4338095408390485e+07  6.7891189229228213e+07  9.0219829219648987e+07  1.0340117644585527e+08  2.0581797936478127e+07  1.7622296094263997e+07  2.3857641113864452e+07  1.0877898391015285e+08  1.4301527937171161e+07  1.3718414902091783e+07  1.4619725565382892e+07  2.9971241857482474e+07  1.1307281242655623e+08  1.2245428047095818e+07  3.4163252288196785e+06  7.6440480055853231e+06  6.3349283162710838e+07  1.1304935057475473e+08  7.8723659183188200e+07  2.5783160312365670e+07  2.2356791576534182e+07  2.1636547555281654e+07  2.8414970071016766e+07  3.6288799234689705e+07  2.4407846328700283e+08  4.7965822019278295e+07  1.2480317845820041e+08  1.5840935996151912e+08  2.3585775934694394e+07  2.1007825971826360e+07  2.1927437394332034e+06  5.2864094442280628e+07  1.9259238877170864e+07  1.5902658432363436e+07  1.5943605348280618e+07  2.6142998687919300e+07  1.9338288152902916e+08  8.7073004043874573e+06  1.2665202216705836e+07  1.0717268437073877e+08  1.7163315802795297e+08  6.9667271175487284e+06  2.9548117269329291e+07  4.1340053844141230e+07  1.0945461275461065e+07  4.8746946719820134e+07  1.0961846594793595e+08  9.2216743109364375e+07  1.1791309537130319e+08  1.6019511919865841e+07  1.2891001428483659e+08  2.5847765436705906e+07  7.5756873152869279e+06  7.6654021148934783e+06  1.1127930383978800e+08  1.5584525020551440e+08  1.0153319060176268e+08  1.7275100471584681e+07  2.2942124199904177e+07  2.1727714051723965e+06  1.6141890657882797e+07  1.7259595438459948e+08  3.2695573331276730e+07  1.4198148428304338e+08  5.5180234941696808e+07  2.6927318300549537e+07  1.6954628135953012e+08  3.8245656316517159e+07  6.8547632321575627e+07  4.3197727871440090e+07  1.0805445299673308e+08  3.7145076729058591e+06  3.6664030000724127e+06  1.4725083272307545e+07  1.4562396849967185e+08  4.5954273800165892e+07  1.0809072386662082e+08  6.6131211514166526e+07  3.5099454715728345e+06  4.3363709890580267e+07  8.0707900182163462e+07  1.9906439510536410e+07  3.7649376825807644e+06  3.5355729340924837e+07  2.9518664463149708e+07  3.3108438127178741e+08  2.2181403874564454e+08  2.4048185824443531e+08  1.5590540502379140e+08  1.6073654070244211e+08  1.1068399576142018e+08  1.0982150242198464e+08  1.0576535923126942e+08  7.4138835441835433e+07  7.2182179277792498e+07  5.3678904237827405e+07  5.5629761425213896e+07  6.8213782347687811e+07  5.5654692880433254e+07  5.8477028798023812e+07  4.9305136640802048e+07  5.5693224032955118e+07  4.5872451391238242e+07  6.2586429736907251e+07  5.2295827569816008e+07  4.8122337888869360e+07  6.6954477954057381e+07  5.8934136053330190e+07  4.1463164462443925e+07  5.7168689866649687e+07  3.3674078968302920e+07  7.5755814187967077e+07  5.6521168677205987e+07  8.9563729811623916e+07  2.7416241544996258e+07  3.4748260119983219e+07  3.8234077826624118e+07  9.4810146495701447e+07  5.1798764909289986e+07  7.1821535094594106e+07  4.2396353923792904e+06  1.4603579774779946e+07  1.7722633018817861e+07  6.3573378605947979e+07  4.6598126353320509e+07  4.6273491430135094e+07  4.7535629917977326e+07  5.1284923585628800e+07  4.6326935386976808e+07  5.7542310376067229e+07  4.7663454445374951e+07  6.5729587900488183e+07  5.9302503523711279e+07  7.9324208394213244e+07  6.4671031012696862e+07  4.8839660192784913e+07  5.4494862277227126e+07  8.3803611770292193e+07  4.3049241925047450e+07  4.5593793492177032e+07  5.2476365835943244e+07  4.4049915388698854e+07  3.7801668052453347e+07  3.5454362958038040e+07  3.8919719373957209e+07  3.2391172905798972e+07  2.9804838119123191e+07  2.7479065113150779e+07  2.4863797141808130e+07  2.3257270350675434e+07  2.4483003499719106e+07  2.1307624588887215e+07  2.1108513299290642e+07  2.1457082733629804e+07  1.8659353997077916e+07  1.8046138291342013e+07  3.3523061900863696e+07  3.8197898724954091e+07  1.8779909378295638e+07  1.6804150907183830e+07  8.2321759251519233e+07  4.9926124665107101e+07  2.3843696424848828e+07  2.3411646820391852e+07  4.9086701809116542e+07  4.5803351951582491e+07  1.8982999046751712e+07  6.3214353374797422e+06  5.6697050656083621e+07  2.1085931141649645e+07  3.1386004825203434e+07  2.7571313659791242e+07  8.7805906651521459e+07  2.9342014744861941e+06  4.9464952272525318e+06  1.9185038694770169e+07  2.2791415278474633e+07  4.6394694982454941e+07  1.8047195070400100e+07  2.4101232738138355e+07  2.2223547360918283e+07  1.8136393816783670e+07  1.7722169416539684e+07  2.0561833208337974e+07  1.6998909122555330e+07  1.4442241174405565e+07  1.4126669833887981e+07  1.1167865408952465e+07  1.1809522732639771e+07  1.3976660683849292e+07  1.1435218855839482e+07  1.3420676494669778e+07  1.0997463792102663e+07  1.2797683081330504e+07  1.0412025201236689e+07  1.2501530355271384e+07  8.5279604856612179e+06  8.0087996743476698e+06  5.7640529256507214e+06  1.4399106007479778e+07  1.3779869181873754e+07  1.1341376865969693e+07  1.2900449785286007e+07  1.5297952398522342e+07  9.3387240598274581e+06  5.7160462539294679e+06  4.2463635513861291e+06  5.3046080797409583e+06  4.7619395807396006e+06  1.5612859831297865e+07  1.5493969062897898e+07  1.5620740169488762e+07  7.0759279142169245e+06  6.2513501775480462e+06  1.5703360727210948e+07  1.0302167171124717e+07  1.1067070592215288e+07  1.5373918757213172e+07  1.4831096608749701e+07  7.8318576151296152e+06  1.3152741312625039e+07  1.0716792597826988e+07  1.0600009149305291e+07  1.1057309458610840e+07  1.2715410595440002e+07  4.2975290213065017e+06  8.1486541539194025e+06  6.9995106152747199e+06  1.5983976771990472e+07  3.4967663266748078e+06  5.7243222384037804e+06  1.8614616071089271e+07  6.5086671457902230e+06  8.3885087362627117e+06  1.4113377832783766e+07  1.0671985573826276e+07  6.1624867250925051e+06  3.7388497211161191e+06  1.4993108993162204e+07  1.4727296643172549e+07  4.1709509264774476e+06  1.3683402148208445e+07  1.3611279670590768e+07  8.9281939864530396e+06  7.4436495812708717e+06  6.1835533810783820e+06  1.4281972893776836e+07  3.8025903355694734e+07  4.6440654861618228e+07  4.2362430831583664e+07  2.5534433775306456e+07  2.8753182713323049e+07  3.1789969733064264e+07  2.5711755235855341e+07  3.1127545736859340e+07  2.6967217321633890e+07  3.3246494593943659e+07  2.9356604024086855e+07  2.5271484634236325e+07  2.7637129935631488e+07  2.5285447603509944e+07  2.7273666300699741e+07  2.5335726878906719e+07  2.6819656868664838e+07  2.5490582250874005e+07  2.5445394093672238e+07  2.4189553369457297e+07  2.6151917976514272e+07  2.4194300798948612e+07  2.3204685605527122e+07  2.1055465332502227e+07  2.9422089341774438e+07  1.9225934840446822e+07  1.7957191237584237e+07  1.9584136197537314e+07  1.5730895059600756e+07  1.4931063246264895e+07  1.3021338752607821e+07  1.2734429631826960e+07  1.1670103458669664e+07  1.1396065528254215e+07  1.2108034438478345e+07  1.1317027542950042e+07  1.1031877116989387e+07  1.1654083690684561e+07  1.1190200492156498e+07  1.2151992409642162e+07  1.1480251705681644e+07  1.0353404449209616e+07  1.0394825398054741e+07  9.2017749793099277e+06  1.2764456294145016e+07  8.6595607344539501e+06  7.8686012710212339e+06  1.3214623284893876e+07  1.3756415301839728e+07  1.3832463511171408e+07  1.4214761730061922e+07  1.4263149360151969e+07  1.3908558626975480e+07  1.3600366747604519e+07  6.7183572264356818e+06  7.9491470789388493e+06  6.9038693427044926e+06  8.5577161038037371e+06  9.5640210801379066e+06  3.9669847904217988e+07  2.3171339362950567e+07  2.2503930445292737e+07  2.0816042058148488e+07  2.0377253142073773e+07  2.4277795293337312e+07  1.4141218562003830e+07  1.9112289711916864e+07  1.8553254898936488e+07  1.3150670644855516e+07  1.2967900532876020e+07  5.6671936320501482e+06  1.1757724158764724e+07  1.1670713059366075e+07  1.1747583955018105e+07  1.0634143525038876e+07  2.4156828733265080e+07  3.4695092217293859e+07  3.3435011945803978e+07  1.0191749595473137e+07  1.0070914930465182e+07  1.1569604243706169e+07  2.1143983148906179e+07  1.2134596931881191e+07  1.3489376718149804e+07  2.2568277939478848e+07  1.5263487791694123e+07  8.2994961854498489e+06  3.5447048302994050e+07  3.0489515363633718e+07  1