<?xml version="1.0"?>
<VTKFile type="UnstructuredGrid"  version="0.1"  >
<UnstructuredGrid>
<Piece  NumberOfPoints="11925" NumberOfCells="22284">
<Points>
<DataArray  type="Float64"  NumberOfComponents="3"  format="ascii">0.009106770432969287 0.0084582340381214 0  0.009141919339108864 0.008441218550270694 0  0.009203598740601114 0.008393845335784609 0  0.009248431083532146 0.008349860421943302 0  0.009296575788899144 0.008291876136114247 0  0.00934265184641383 0.008225659869648794 0  0.009393578065451109 0.008122249398276498 0  0.009424875532860347 0.008002512562814071 0  0.009449530416649156 0.007942856790653622 0  0.009467776063564975 0.007776381909547738 0  0.009496347239411999 0.007611274617662952 0  0.009499145002853376 0.007525125628140703 0  0.009496347239411999 0.007464102266759158 0  0.009467776063564975 0.007298994974874372 0  0.009449530416649156 0.007132520093768488 0  0.009424875532860347 0.00707286432160804 0  0.009393578065451109 0.006953127486145613 0  0.00934265184641383 0.006849717014773317 0  0.009296575788899144 0.006783500748307864 0  0.009248431083532146 0.006725516462478808 0  0.009203598740601114 0.006681531548637502 0  0.009141919338909114 0.006634158334151417 0  0.009106770432902705 0.006617142873950686 0  0.009057788944723618 0.006598443490950575 0  0.009035429646949504 0.006603784476015589 0  0.009003273865471631 0.006637537337391888 0  0.008992706568800921 0.006658843167954558 0  0.008972489432160457 0.006721105527638192 0  0.008943689764150664 0.006775124298212487 0  0.008927575292032289 0.006821608040201005 0  0.008858421521121648 0.006940476521074617 0  0.008818283204798657 0.006994423939357116 0  0.008742251619928807 0.007081030046222233 0  0.008689386069399707 0.007127977288024682 0  0.00865169762718865 0.007155237400276061 0  0.008598593426450953 0.007187519986677493 0  0.008503029036046951 0.007258952469496642 0  0.008441469295249169 0.007286330637148408 0  0.008404275359722921 0.007310151607682054 0  0.008340789248380142 0.007336567990292792 0  0.008278894472361808 0.007370606062816746 0  0.008227853892241668 0.007385785667750049 0  0.008178391959798996 0.007406751625964 0  0.008013447788775593 0.00743563391875675 0  0.007952261306532662 0.007456731513377061 0  0.007902010050251256 0.007466988976395871 0  0.007550251256281408 0.00748107426496475 0  0.007173366834170854 0.007466988976395871 0  0.007123115577889447 0.007456731513377061 0  0.007061929095646517 0.00743563391875675 0  0.006896984924623115 0.007406751625964 0  0.006771663215364072 0.00735919225436318 0  0.006734587636041969 0.007336567990292792 0  0.006695979899497487 0.00732259899495977 0  0.006633907589172942 0.007286330637148408 0  0.00657234784837516 0.007258952469496642 0  0.006476783457971159 0.007187519986677493 0  0.006385990815022405 0.007127977288024682 0  0.006333125264493302 0.007081030046222233 0  0.006244530865553103 0.006978164963285671 0  0.006205048905315104 0.00692211055276382 0  0.006159330552520386 0.006845248264868939 0  0.006131687120271447 0.006775124298212487 0  0.006102887452261655 0.006721105527638192 0  0.006082670315621189 0.006658843167954558 0  0.006072103018950479 0.006637537337391888 0  0.006039947237472605 0.006603784476015589 0  0.006017587939698492 0.006598443490950575 0  0.005933457545512996 0.006634158334151417 0  0.005871778143820997 0.006681531548637502 0  0.005826945800889965 0.006725516462478808 0  0.005778801095522966 0.006783500748307864 0  0.005732725038008282 0.006849717014773317 0  0.005681798818971001 0.006953127486145613 0  0.005650501351561765 0.00707286432160804 0  0.005625846467772956 0.007132520093768488 0  0.005607600820857134 0.007298994974874372 0  0.005577737985543962 0.00747666508082951 0  0.005579029645010113 0.007611274617662952 0  0.005607600820857134 0.007776381909547738 0  0.005625846467772956 0.007942856790653622 0  0.005650501351561765 0.008002512562814071 0  0.005676707781126685 0.008109686584206147 0  0.005732725038008282 0.008225659869648794 0  0.005778801095522966 0.008291876136114247 0  0.00583916892901236 0.008362423236013654 0  0.005871778143820997 0.008393845335784609 0  0.005933457545313248 0.008441218550270694 0  0.005968606451452823 0.0084582340381214 0  0.006017587939698492 0.008476935349731016 0  0.006039947427631444 0.008471594355449344 0  0.006059540775356642 0.008452005488667369 0  0.006077635869842498 0.008429097268812035 0  0.006102887452261655 0.00835427135678392 0  0.006131687120271447 0.008300252586209624 0  0.006159330552520386 0.008230128619553171 0  0.006216955363300465 0.008134900363347493 0  0.006257093679623455 0.008080952945064994 0  0.006333125264493302 0.007994346838199877 0  0.006370813706704358 0.007959962410467781 0  0.00642367925723346 0.007920139484146049 0  0.006476783457971159 0.007887856897744617 0  0.00657234784837516 0.007816424414925468 0  0.006633907589172942 0.007789046247273704 0  0.006671101524699189 0.007765225276740057 0  0.006734587636041969 0.007738808894129319 0  0.006796482412060302 0.007704770821605365 0  0.00692211055276382 0.00766245157494053 0  0.007061929095646517 0.007639742965665362 0  0.007123115577889447 0.007618645371045051 0  0.007173366834170854 0.00760838790802624 0  0.007525125628140703 0.00759430261945736 0  0.007902010050251256 0.00760838790802624 0  0.007952261306532662 0.007618645371045051 0  0.008013447788775593 0.007639742965665362 0  0.00815326633165829 0.00766245157494053 0  0.008278894472361808 0.007704770821605365 0  0.008340789248380142 0.007738808894129319 0  0.008404275359722921 0.007765225276740057 0  0.008441469295249169 0.007789046247273704 0  0.008503029036046951 0.007816424414925468 0  0.008598593426450953 0.007887856897744617 0  0.00865169762718865 0.007920139484146049 0  0.008704563177717754 0.007959962410467781 0  0.008742251619928807 0.007994346838199877 0  0.008818283204798657 0.008080952945064994 0  0.008858421521121648 0.008134900363347493 0  0.008916046331901725 0.008230128619553171 0  0.008943689764150664 0.008300252586209624 0  0.008972489432160457 0.00835427135678392 0  0.008997741014579612 0.008429097268812035 0  0.009015836109065469 0.008452005488667369 0  0.009035429456790667 0.008471594355449344 0  0.009057788944723618 0.008476935349731016 0  0.000584560956065443 0.0006566731908302978 0  0.0004648241206030151 0.0006253757234210605 0  0.0006879714274377391 0.0007075994098675775 0  0.0004051683484425679 0.0006007208396322515 0  0.0007541876939031931 0.0007536754673822622 0  0.0002386934673366834 0.0005824751927164302 0  0.0008121719797322475 0.0008018201727492608 0  7.895734593675217e-05 0.0005538767054284305 0  0.000856156893573553 0.0008466525156802934 0  0 0.0005480494466900812 0  0.0009035301080596382 0.0009083319171725436 0  0 0 0  0.000939246867973806 0.0009924623115577891 0  0.01 0 0  0.0009339058736921331 0.001014821772831462 0  0.01 0.0005571664569146784 0  0.0008914087205285403 0.001052510215042517 0  0.009937185929648241 0.0005602048678154705 0  0.0008165829145728644 0.00107776182261448 0  0.009811557788944724 0.0005824755727250804 0  0.0007625641439985681 0.001106561492130742 0  0.00964508290783884 0.0006007208396322515 0  0.0006924401773421158 0.001134204924379682 0  0.009585427135678391 0.0006253757234210605 0  0.000597211921136439 0.001191829735159762 0  0.009478253114286317 0.0006515821529859823 0  0.0005055760606428836 0.00126320124586456 0  0.00937484264291402 0.0007001169347433132 0  0.0004537270030180498 0.001310933582424631 0  0.009296063562378215 0.0007536754673822622 0  0.0004097111541863734 0.001360865186881701 0  0.00923807927654916 0.0008018201727492608 0  0.0003501684555335619 0.001451657829830455 0  0.009194094362707853 0.0008466525156802934 0  0.0002787359727144142 0.001547222220234457 0  0.009146721148221768 0.0009083319171725436 0  0.0002513578050626486 0.001608781961032239 0  0.0091110043883076 0.0009924623115577891 0  0.0002275368345290006 0.001645975896558485 0  0.009116345382589274 0.001014821785907898 0  0.0002011204519182638 0.001709462007901265 0  0.009158842483081762 0.001052510228118953 0  0.0001670823793943093 0.001771356783919598 0  0.009233668341708544 0.001077761824120951 0  0.0001247631327294741 0.001896984924623115 0  0.009287687112282839 0.001106561492130742 0  0.0001020545234543062 0.002036803467505815 0  0.009357811078939291 0.001134204924379682 0  8.096507571907495e-05 0.002097989949748744 0  0.009453039335144969 0.001191829735159762 0  7.071342713566267e-05 0.002148241206030151 0  0.009544675195638523 0.00126320124586456 0  5.669507456120024e-05 0.0025 0  0.009596524253263357 0.001310933582424631 0  7.071342713566267e-05 0.002876884422110553 0  0.009640540102095033 0.001360865186881701 0  8.096507571907495e-05 0.00292713567839196 0  0.009700082800747845 0.001451657829830455 0  0.0001020545234543062 0.002988322160634889 0  0.009771515283566994 0.001547222220234457 0  0.0001247631327294741 0.003128140703517588 0  0.009798893451218758 0.001608781961032239 0  0.0001670823793943093 0.003253768844221106 0  0.009822714421752407 0.001645975896558485 0  0.0002011204519182638 0.003315663620239438 0  0.009849130804363143 0.001709462007901265 0  0.0002275368345290006 0.003379149731582219 0  0.009883168876887099 0.001771356783919598 0  0.0002513578050626486 0.003416343667108464 0  0.009925488123551932 0.001896984924623115 0  0.0002787359727144142 0.003477903407906247 0  0.009948196732827102 0.002036803467505815 0  0.0003501684555335619 0.003573467798310248 0  0.009969286180562333 0.002097989949748744 0  0.0004097111541863734 0.003664260441259002 0  0.009979537829145744 0.002148241206030151 0  0.0004537270030180498 0.003714192045716073 0  0.009993556181720207 0.0025 0  0.0005055760606428836 0.003761924382276144 0  0.009979537829145744 0.002876884422110553 0  0.000597211921136439 0.003833295892980942 0  0.009969286180562333 0.00292713567839196 0  0.0006924401773421158 0.003890920703761021 0  0.009948196732827102 0.002988322160634889 0  0.0007625641439985681 0.003918564136009961 0  0.009925488123551932 0.0031281407035175
[...]
<PointData  Tensors="$\sigma$"> 
<DataArray  type="Float64"  Name="$\sigma$"  NumberOfComponents="9" format="ascii">3.5626561416643001e+06 -2.2670440697387797e+06 0.0000000000000000e+00 -2.2670440697387797e+06 1.5574465583951913e+06 0.0000000000000000e+00 0.0000000000000000e+00 0.0000000000000000e+00 0.0000000000000000e+00  3.9490594646327174e+06 -2.9881865393730863e+06 0.0000000000000000e+00 -2.9881865393730863e+06 2.6417111872524833e+06 0.0000000000000000e+00 0.0000000000000000e+00 0.0000000000000000e+00 0.0000000000000000e+00  4.1365914893484297e+06 -3.8944524486368047e+06 0.0000000000000000e+00 -3.8944524486368047e+06 3.9143156842688168e+06 0.0000000000000000e+00 0.0000000000000000e+00 0.0000000000000000e+00 0.0000000000000000e+00  4.0388963917111452e+06 -4.5181682752814852e+06 0.0000000000000000e+00 -4.5181682752814852e+06 5.5315381575322365e+06 0.0000000000000000e+00 0.0000000000000000e+00 0.0000000000000000e+00 0.0000000000000000e+00  3.2147544735447736e+06 -4.0871744403307936e+06 0.0000000000000000e+00 -4.0871744403307936e+06 6.6726089079705235e+06 0.0000000000000000e+00 0.0000000000000000e+00 0.0000000000000000e+00 0.0000000000000000e+00  2.8635520807149713e+06 -4.8582121118172044e+06 0.0000000000000000e+00 -4.8582121118172044e+06 8.8631188515246268e+06 0.0000000000000000e+00 0.0000000000000000e+00 0.0000000000000000e+00 0.0000000000000000e+00  1.7460886566707299e+06 -3.4550516870336761e+06 0.0000000000000000e+00 -3.4550516870336761e+06 9.2464746402652860e+06 0.0000000000000000e+00 0.0000000000000000e+00 0.0000000000000000e+00 0.0000000000000000e+00  5.2908969581411313e+05 -2.8634753659381662e+06 0.0000000000000000e+00 -2.8634753659381662e+06 1.1605390147856042e+07 0.0000000000000000e+00 0.0000000000000000e+00 0.0000000000000000e+00 0.0000000000000000e+00  5.4245259240091336e+05 -2.6863222407832160e+06 0.0000000000000000e+00 -2.6863222407832160e+06 1.1329767779042892e+07 0.0000000000000000e+00 0.0000000000000000e+00 0.0000000000000000e+00 0.0000000000000000e+00  3.7840596386807694e+04 -1.4296834867992075e+06 0.0000000000000000e+00 -1.4296834867992075e+06 9.8528082931700107e+06 0.0000000000000000e+00 0.0000000000000000e+00 0.0000000000000000e+00 0.0000000000000000e+00  7.2720306157978892e+04 -8.2446595369801309e+05 0.0000000000000000e+00 -8.2446595369801309e+05 1.0950175038858213e+07 0.0000000000000000e+00 0.0000000000000000e+00 0.0000000000000000e+00 0.0000000000000000e+00  4.9254465142391814e+05 -4.1036898337469836e+04 0.0000000000000000e+00 -4.1036898337469836e+04 1.2665329140284542e+07 0.0000000000000000e+00 0.0000000000000000e+00 0.0000000000000000e+00 0.0000000000000000e+00  3.7128705743232516e+04 4.9015596810953005e+05 0.0000000000000000e+00 4.9015596810953005e+05 1.0673472199012322e+07 0.0000000000000000e+00 0.0000000000000000e+00 0.0000000000000000e+00 0.0000000000000000e+00  -7.1367139508363107e+04 1.0263100476086220e+06 0.0000000000000000e+00 1.0263100476086220e+06 8.9058216705972515e+06 0.0000000000000000e+00 0.0000000000000000e+00 0.0000000000000000e+00 0.0000000000000000e+00  4.5784354557963210e+05 1.6525899532766112e+06 0.0000000000000000e+00 1.6525899532766112e+06 9.3135348838101458e+06 0.0000000000000000e+00 0.0000000000000000e+00 0.0000000000000000e+00 0.0000000000000000e+00  4.6521055037872749e+05 2.2977021764432229e+06 0.0000000000000000e+00 2.2977021764432229e+06 8.9796095146632176e+06 0.0000000000000000e+00 0.0000000000000000e+00 0.0000000000000000e+00 0.0000000000000000e+00  1.0480692365567129e+06 2.4495875859808256e+06 0.0000000000000000e+00 2.4495875859808256e+06 7.0882616817821693e+06 0.0000000000000000e+00 0.0000000000000000e+00 0.0000000000000000e+00 0.0000000000000000e+00  1.6114987634466458e+06 3.0163982679787562e+06 0.0000000000000000e+00 3.0163982679787562e+06 5.9176689974944750e+06 0.0000000000000000e+00 0.0000000000000000e+00 0.0000000000000000e+00 0.0000000000000000e+00  1.5111697945824913e+06 2.1813326441151216e+06 0.0000000000000000e+00 2.1813326441151216e+06 4.0459360203990988e+06 0.0000000000000000e+00 0.0000000000000000e+00 0.0000000000000000e+00 0.0000000000000000e+00  1.6811184555144638e+06 2.1064700575934509e+06 0.0000000000000000e+00 2.1064700575934509e+06 2.8860391568942731e+06 0.0000000000000000e+00 0.0000000000000000e+00 0.0000000000000000e+00 0.0000000000000000e+00  9.5343417344117432e+05 1.3035995719027238e+06 0.0000000000000000e+00 1.3035995719027238e+06 1.5659551476126413e+06 0.0000000000000000e+00 0.0000000000000000e+00 0.0000000000000000e+00 0.0000000000000000e+00  -1.1030499052211517e+05 5.0544438606554019e+05 0.0000000000000000e+00 5.0544438606554019e+05 6.9180493130861304e+05 0.0000000000000000e+00 0.0000000000000000e+00 0.0000000000000000e+00 0.0000000000000000e+00  -3.0974000593375256e+06 -3.5235985306081112e+05 0.0000000000000000e+00 -3.5235985306081112e+05 2.7329962429256522e+05 0.0000000000000000e+00 0.0000000000000000e+00 0.0000000000000000e+00 0.0000000000000000e+00  -8.7164610494300239e+06 1.5689111920206388e+06 0.0000000000000000e+00 1.5689111920206388e+06 -1.3614487732330309e+06 0.0000000000000000e+00 0.0000000000000000e+00 0.0000000000000000e+00 0.0000000000000000e+00  -1.1878260801797912e+07 6.6798993700523078e+06 0.0000000000000000e+00 6.6798993700523078e+06 -6.0704246131902048e+06 0.0000000000000000e+00 0.0000000000000000e+00 0.0000000000000000e+00 0.0000000000000000e+00  -6.1712640888224589e+06 7.2985346413099738e+06 0.0000000000000000e+00 7.2985346413099738e+06 -1.0669731353085389e+07 0.0000000000000000e+00 0.0000000000000000e+00 0.0000000000000000e+00 0.0000000000000000e+00  -2.6483925463506947e+06 4.8492836305756159e+06 0.0000000000000000e+00 4.8492836305756159e+06 -1.0025182022217540e+07 0.0000000000000000e+00 0.0000000000000000e+00 0.0000000000000000e+00 0.0000000000000000e+00  -1.5655513531582064e+06 3.7843275544505389e+06 0.0000000000000000e+00 3.7843275544505389e+06 -8.2263275398952942e+06 0.0000000000000000e+00 0.0000000000000000e+00 0.0000000000000000e+00 0.0000000000000000e+00  -1.5102132051496222e+06 3.3378750788103160e+06 0.0000000000000000e+00 3.3378750788103160e+06 -7.6451276187778059e+06 0.0000000000000000e+00 0.0000000000000000e+00 0.0000000000000000e+00 0.0000000000000000e+00  -1.5203448319378751e+06 3.7141871989147752e+06 0.0000000000000000e+00 3.7141871989147752e+06 -6.3136547166550187e+06 0.0000000000000000e+00 0.0000000000000000e+00 0.0000000000000000e+00 0.0000000000000000e+00  -1.9776312438970229e+06 3.7012864332465804e+06 0.0000000000000000e+00 3.7012864332465804e+06 -5.8654663118992206e+06 0.0000000000000000e+00 0.0000000000000000e+00 0.0000000000000000e+00 0.0000000000000000e+00  -3.2280202263702801e+06 4.2453032126128618e+06 0.0000000000000000e+00 4.2453032126128618e+06 -4.5062937263367530e+06 0.0000000000000000e+00 0.0000000000000000e+00 0.0000000000000000e+00 0.0000000000000000e+00  -3.5814560595485773e+06 4.1117869742254666e+06 0.0000000000000000e+00 4.1117869742254666e+06 -3.9027184481980088e+06 0.0000000000000000e+00 0.0000000000000000e+00 0.0000000000000000e+00 0.0000000000000000e+00  -4.6873103329107147e+06 4.0416769028872033e+06 0.0000000000000000e+00 4.0416769028872033e+06 -3.0867318733293540e+06 0.0000000000000000e+00 0.0000000000000000e+00 0.0000000000000000e+00 0.0000000000000000e+00  -5.8361614778974568e+06 4.4528852897575349e+06 0.0000000000000000e+00 4.4528852897575349e+06 -2.9270466737667378e+06 0.0000000000000000e+00 0.0000000000000000e+00 0.0000000000000000e+00 0.0000000000000000e+00  -6.3177075964719420e+06 4.3865881291451938e+06 0.0000000000000000e+00 4.3865881291451938e+06 -2.7571350627358914e+06 0.0000000000000000e+00 0.0000000000000000e+00 0.0000000000000000e+00 0.0000000000000000e+00  -6.0002066270880969e+06 4.0718309835197721e+06 0.0000000000000000e+00 4.0718309835197721e+06 -2.1529301705459086e+06 0.0000000000000000e+00 0.0000000000000000e+00 0.0000000000000000e+00 0.0000000000000000e+00  -7.0371974063256746e+06 3.7526628230627682e+06 0.0000000000000000e+00 3.7526628230627682e+06 -1.9060700623157311e+06 0.0000000000000000e+00 0.0000000000000000e+00 0.0000000000000000e+00 0.0000000000000000e+00  -7.3867006813473785e+06 3.6333529882949698e+06 0.0000000000000000e+00 3.6333529882949698e+06 -1.5158078856566818e+06 0.0000000000000000e+00 0.0000000000000000e+00 0.0000000000000000e+00 0.0000000000000000e+00  -6.9498160708285160e+06 3.3059052944835029e+06 0.0000000000000000e+00 3.3059052944835029e+06 -1.2743266921132049e+06 0.0000000000000000e+00 0.0000000000000000e+00 0.0000000000000000e+00 0.0000000000000000e+00  -7.0113016405257024e+06 2.8938187952559637e+06 0.0000000000000000e+00 2.8938187952559637e+06 -1.0064787248633163e+06 0.0000000000000000e+00 0.0000000000000000e+00 0.0000000000000000e+00 0.0000000000000000e+00  -6.7960665192741221e+06 2.7554637354588751e+06 0.0000000000000000e+00 2.7554637354588751e+06 -8.4281354126732307e+05 0.0000000000000000e+00 0.0000000000000000e+00 0.0000000000000000e+00 0.0000000000000000e+00  -7.6188033214393761e+06 1.7761162730609609e+06 0.0000000000000000e+00 1.7761162730609609e+06 -2.4533558592507587e+05 0.0000000000000000e+00 0.0000000000000000e+00 0.0000000000000000e+00 0.0000000000000000e+00  -7.7234824108300852e+06 1.9119927892734187e+06 0.0000000000000000e+00 1.9119927892734187e+06 1.2473406394806044e+05 0.0000000000000000e+00 0.0000000000000000e+00 0.0000000000000000e+00 0.0000000000000000e+00  -9.6930975403236933e+06 2.1000091359723997e+06 0.0000000000000000e+00 2.1000091359723997e+06 -2.7907126288727997e+05 0.0000000000000000e+00 0.0000000000000000e+00 0.0000000000000000e+00 0.0000000000000000e+00  -7.3397408670351980e+06 9.3552062917594891e+05 0.0000000000000000e+00 9.3552062917594891e+05 1.5722911719117730e+06 0.0000000000000000e+00 0.0000000000000000e+00 0.0000000000000000e+00 0.0000000000000000e+00  -6.1466461916078897e+06 -4.2416790598194770e+04 0.0000000000000000e+00 -4.2416790598194828e+04 7.1300170129762951e+05 0.0000000000000000e+00 0.0000000000000000e+00 0.0000000000000000e+00 0.0000000000000000e+00  -6.6447649465332711e+06 -1.0064873211389098e+06 0.0000000000000000e+00 -1.0064873211389097e+06 1.6355430772972777e+06 0.0000000000000000e+00 0.0000000000000000e+00 0.0000000000000000e+00 0.0000000000000000e+00  -8.5830340075323544e+06 -2.0383107710911019e+06 0.0000000000000000e+00 -2.0383107710911019e+06 -2.5193503771771811e+05 0.0000000000000000e+00 0.0000000000000000e+00 0.0000000000000000e+00 0.0000000000000000e+00  -6.8378811208343850e+06 -1.6504532813378242e+06 0.0000000000000000e+00 -1.6504532813378242e+06 1.3068768992875785e+04 0.0000000000000000e+00 0.0000000000000000e+00 0.0000000000000000e+00 0.0000000000000000e+00  -5.6910643448839476e+06 -1.7459378734543954e+06 0.0000000000000000e+00 -1.7459378734543954e+06 -2.0918020964415683e+05 0.0000000000000000e+00 0.0000000000000000e+00 0.0000000000000000e+00 0.0000000000000000e+00  -5.1854445787489880e+06 -2.2321911706983047e+06 0.0000000000000000e+00 -2.2321911706983047e+06 -7.9132128113082913e+05 0.0000000000000000e+00 0.0000000000000000e+00 0.0000000000000000e+00 0.0000000000000000e+00  -5.5053727713783076e+06 -2.7207788693772168e+06 0.0000000000000000e+00 -2.7207788693772168e+06 -1.3600146619026945e+06 0.0000000000000000e+00 0.0000000000000000e+00 0.0000000000000000e+00 0.0000000000000000e+00  -5.4146132378769731e+06 -2.8601868385149445e+06 0.0000000000000000e+00 -2.8601868385149445e+06 -1.3247419745108900e+06 0.0000000000000000e+00 0.0000000000000000e+00 0.0000000000000000e+00 0.0000000000000000e+00  -5.1029030398786925e+06 -2.6728356656276817e+06 0.0000000000000000e+00 -2.6728356656276817e+06 -1.2369394384744628e+06 0.0000000000000000e+00 0.0000000000000000e+00 0.0000000000000000e+00 0.0000000000000000e+00  -4.4545375359717412e+06 -3.0598842952635838e+06 0.0000000000000000e+00 -3.0598842952635838e+06 -1.6992600689213665e+06 0.0000000000000000e+00 0.0000000000000000e+00 0.0000000000000000e+00 0.0000000000000000e+00  -4.0403199339136765e+06 -3.1200888605472841e+06 0.0000000000000000e+00 -3.1200888605472841e+06 -1.8540830382100607e+06 0.0000000000000000e+00 0.0000000000000000e+00 0.0000000000000000e+00 0.0000000000000000e+00  -3.7577164504957655e+06 -3.0520490562393623e+06 0.0000000000000000e+00 -3.0520490562393623e+06 -2.1159439363262681e+06 0.0000000000000000e+00 0.0000000000000000e+00 0.0000000000000000e+00 0.0000000000000000e+00  -2.4412153072296842e+06 -2.8904740696048834e+06 0.0000000000000000e+00 -2.8904740696048834e+06 -2.8123323599094511e+06 0.0000000000000000e+00 0.0000000000000000e+00 0.0000000000000000e+00 0.0000000000000000e+00  -2.1039038450122005e+06 -2.9319904393408280e+06 0.0000000000000000e+00 -2.9319904393408280e+06 -3.2755903583748941e+06 0.0000000000000000e+00 0.0000000000000000e+00 0.0000000000000000e+00 0.0000000000000000e+00  -1.5315192325379625e+06 -2.7137889748980398e+06 0.0000000000000000e+00 -2.7137889748980398e+06 -4.1157334170061303e+06 0.0000000000000000e+00 0.0000000000000000e+00 0.0000000000000000e+00 0.0000000000000000e+00  -1.1625038770467169e+06 -2.5646607888493813e+06 0.0000000000000000e+00 -2.5646607888493813e+06 -4.5457404710330321e+06 0.0000000000000000e+00 0.0000000000000000e+00 0.0000000000000000e+00 0.0000000000000000e+00  -1.1933242818152718e+06 -2.6682039836202785e+06 0.0000000000000000e+00 -2.6682039836202785e+06 -5.3236183838532111e+06 0.0000000000000000e+00 0.0000000000000000e+00 0.0000000000000000e+00 0.0000000000000000e+00  -9.3484325835544895e+05 -2.5734353212477132e+06 0.0000000000000000e+00 -2.5734353212477132e+06 -5.8744768279680852e+06 0.0000000000000000e+00 0.0000000000000000e+00 0.0000000000000000e+00 0.0000000000000000e+00  -1.7221660113971496e+06 -3.3653033804109017e+06 0.0000000000000000e+00 -3.3653033804109017e+06 -6.9034888744331272e+06 0.0000000000000000e+00 0.0000000000000000e+00 0.0000000000000000e+00 0.0000000000000000e+00  -2.4635766416693474e+06 -3.8313384810245377e+06 0.0000000000000000e+00 -3.8313384810245377e+06 -6.9504863876095871e+06 0.0000000000000000e+00 0.0000000000000000e+00 0.0000000000000000e+00 0.0000000000000000e+00  -9.9609294317318127e+05 -3.2465600281083034e+06 0.0000000000000000e+00 -3.2465600281083034e+06 -3.2140018202755833e+06 0.0000000000000000e+00 0.0000000000000000e+00 0.0000000000000000e+00 0.0000000000000000e+00  4.6333603484559488e+06 -3.5364013119970309e+06 0.0000000000000000e+00 -3.5364013119970309e+06 1.6235939304869580e+06 0.0000000000000000e+00 0.0000000000000000e+00 0.0000000000000000e+00 0.0000000000000000e+00  5.9658546550314873e+06 -4.5114785374797434e+06 0.0000000000000000e+00 -4.5114785374797434e+06 4.1158490829632096e+06 0.0000000000000000e+00 0.0000000000000000e+00 0.0000000000000000e+00 0.0000000000000000e+00  7.4807631094503114e+06 -6.8774329751133788e+06 0.0000000000000000e+00 -6.8774329751133788e+06 6.8345851383933378e+06 0.0000000000000000e+00 0.0000000000000000e+00 0.0000000000000000e+00 0.0000000000000000e+00  6.9657742516668746e+06 -7.6301730559448535e+06 0.0000000000000000e+00 -7.6301730559448535e+06 9.3479026718090232e+06 0.0000000000000000e+00 0.0000000000000000e+00 0.0000000000000000e+00 0.0000000000000000e+00  6.1843579622814348e+06 -8.3633019533999395e+06 0.0000000000000000e+00 -8.3633019533999395e+06 1.2498804182064557e+07 0.0000000000000000e+00 0.0000000000000000e+00 0.0000000000000000e+00 0.0000000000000000e+00  4.3266856257094070e+06 -7.8179541203911277e+06 0.0000000000000000e+00 -7.8179541203911277e+06 1.5395330811190406e+07 0.0000000000000000e+00 0.0000000000000000e+00 0.0000000000000000e+00 0.0000000000000000e+00  2.7461509237430217e+06 -6.0124221774173155e+06 0.0000000000000000e+00 -6.0124221774173155e+06 1.5660584750547346e+07 0.0000000000000000e+00 0.0000000000000000e+00 0.0000000000000000e+00 0.0000000000000000e+00  8.0113904142961872e+05 -4.7270531651271265e+06 0.0000000000000000e+00 -4.7270531651271265e+06 1.8717131258830830e+07 0.0000000000000000e+00 0.0000000000000000e+00 0.0000000000000000e+00 0.0000000000000000e+00  1.0841249747221631e+06 -4.5740190882453583e+06 0.0000000000000000e+00 -4.5740190882453583e+06 1.7789462232392170e+07 0.0000000000000000e+00 0.0000000000000000e+00 0.0000000000000000e+00 0.0000000000000000e+00  9.7720493124436805e+04 -2.1037267470528558e+06 0.0000000000000000e+00 -2.1037267470528558e+06 1.5714707682075365e+07 0.0000000000000000e+00 0.0000000000000000e+00 0.0000000000000000e+00 0.0000000000000000e+00  9.9342566527360061e+05 -1.0151609891615763e+06 0.0000000000000000e+00 -1.0151609891615763e+06 1.3882080984666429e+07 0.0000000000000000e+00 0.0000000000000000e+00 0.0000000000000000e+00 0.0000000000000000e+00  -2.0814285571580890e+05 9.5558983307273849e+05 0.0000000000000000e+00 9.5558983307273849e+05 1.4992358957562368e+07 0.0000000000000000e+00 0.0000000000000000e+00 0.0000000000000000e+00 0.0000000000000000e+00  1.3498856125940705e+04 9.4152215049107000e+05 0.0000000000000000e+00 9.4152215049107000e+05 1.1227213827330142e+07 0.0000000000000000e+00 0.0000000000000000e+00 0.0000000000000000e+00 0.0000000000000000e+00  4.3944396450089937e+05 2.0740046364862733e+06 0.0000000000000000e+00 2.0740046364862733e+06 1.0905096567011429e+07 0.0000000000000000e+00 0.0000000000000000e+00 0.0000000000000000e+00 0.0000000000000000e+00  3.2753781933596102e+05 1.8747932386819459e+06 0.0000000000000000e+00 1.8747932386819459e+06 8.8069356513602771e+06 0.0000000000000000e+00 0.0000000000000000e+00 0.0000000000000000e+00 0.0000000000000000e+00  2.5026105687864299e+05 1.5794597987969448e+06 0.0000000000000000e+00 1.5794597987969448e+06 6.0217818183334777e+06 0.0000000000000000e+00 0.0000000000000000e+00 0.0000000000000000e+00 0.0000000000000000e+00  -1.4231388418145862e+05 6.9816569598406984e+05 0.0000000000000000e+00 6.9816569598406984e+05 3.0634482936503766e+06 0.0000000000000000e+00 0.0000000000000000e+00 0.0000000000000000e+00 0.0000000000000000e+00  -1.2704708640825872e+06 -9.7554825399178860e+05 0.0000000000000000e+00 -9.7554825399178860e+05 3.1348412852984620e+04 0.0000000000000000e+00 0.0000000000000000e+00 0.0000000000000000e+00 0.0000000000000000e+00  -3.3037443761133640e+06 -2.5752818078009961e+06 0.0000000000000000e+00 -2.5752818078009961e+06 -1.8090961036293742e+06 0.0000000000000000e+00 0.0000000000000000e+00 0.0000000000000000e+00 0.0000000000000000e+00  -7.1523640351635087e+06 -4.4308669111889657e+06 0.0000000000000000e+00 -4.4308669111889657e+06 -3.0160787278184518e+06 0.0000000000000000e+00 0.0000000000000000e+00 0.0000000000000000e+00 0.0000000000000000e+00  -1.1828604431536803e+07 -5.5953073468230879e+06 0.0000000000000000e+00 -5.5953073468230879e+06 -3.1699456419573296e+06 0.0000000000000000e+00 0.0000000000000000e+00 0.0000000000000000e+00 0.0000000000000000e+00  -1.9862773849888183e+07 -5.8003912291014539e+06 0.0000000000000000e+00 -5.8003912291014539e+06 -2.7214248942295252e+06 0.0000000000000000e+00 0.0000000000000000e+00 0.0000000000000000e+00 0.0000000000000000e+00  -3.2816466166224219e+07 5.6232974995129020e+05 0.0000000000000000e+00 5.6232974995129020e+05 -3.7461070319534675e+06 0.0000000000000000e+00 0.0000000000000000e+00 0.0000000000000000e+00 0.0000000000000000e+00  -3.0608474727476187e+07 1.0493009232002547e+07 0.0000000000000000e+00 1.0493009232002547e+07 -9.6426584203304220e+06 0.0000000000000000e+00 0.0000000000000000e+00 0.0000000000000000e+00 0.0000000000000000e+00  -1.3763624773924276e+07 9.8970755271114483e+06 0.0000000000000000e+00 9.8970755271114483e+06 -9.6208887917192783e+06 0.0000000000000000e+00 0.0000000000000000e+00 0.0000000000000000e+00 0.0000000000000000e+00  -4.4076395430410253e+06 4.5307070730882846e+06 0.0000000000000000e+00 4.5307070730882846e+06 -5.9108234539359845e+06 0.0000000000000000e+00 0.0000000000000000e+00 0.0000000000000000e+00 0.0000000000000000e+00  -1.3278553554557848e+06 2.3187307517959033e+06 0.0000000000000000e+00 2.3187307517959033e+06 -3.8019297562390310e+06 0.0000000000000000e+00 0.0000000000000000e+00 0.0000000000000000e+00 0.0000000000000000e+00  -5.9586742068227835e+05 1.0407089241149805e+06 0.0000000000000000e+00 1.0407089241149805e+06 -2.0003045120848040e+06 0.000000