<?xml version="1.0"?>
<VTKFile type="UnstructuredGrid"  version="0.1"  >
<UnstructuredGrid>
<Piece  NumberOfPoints="1799" NumberOfCells="3156">
<Points>
<DataArray  type="Float64"  NumberOfComponents="3"  format="ascii">1.694065894508601e-21 0.008447317744001559 0  0 0.006243487017789186 0  0 0.01 0  0.01 0.01 0  0.01 0.004739447698251261 0  0.01 0.003038811340045742 0  0.01 0 0  0 0 0  0.00972274937591714 0.00446136709 0  0.009653726258356362 0.004545183154286949 0  0.009783606631901408 0.0043734488461064 0  0.009577812281436313 0.004624366443043088 0  0.009835143529851395 0.004282096254618384 0  0.009496374895431106 0.004698536913086191 0  0.009876351429728553 0.004188097333533943 0  0.009410843899527923 0.004767474310794485 0  0.009906389591104073 0.004092339945416686 0  0.009322680015752169 0.00483112308721043 0  0.009924603388293412 0.003995788691361544 0  0.009233342881914028 0.004889592860194898 0  0.009930538269388231 0.00389945963832429 0  0.009144259222736564 0.004943154406398476 0  0.009923949134101986 0.003804393533973133 0  0.009056791952980949 0.004992231280310688 0  0.009904804916195522 0.003711628202889073 0  0.00897221094262878 0.005037387269757166 0  0.009873288272257268 0.003622170840092915 0  0.008891666132610079 0.005079310004121139 0  0.009829790396922524 0.003536970921943865 0  0.008816163631214721 0.005118791130579932 0  0.009774901102315603 0.003456894440322572 0  0.008746545347644217 0.005156703562277342 0  0.009709394413691105 0.003382700134020289 0  0.008683472631978471 0.005193976378365099 0  0.009634210041128223 0.00331501834219343 0  0.008627414292309099 0.005231568017322153 0  0.009550431186043644 0.003254333039822774 0  0.008578639252366998 0.005270438450342868 0  0.009459259228807002 0.003200967535951617 0  0.008537213999305775 0.005311521049719365 0  0.00936198591772306 0.003155074224035663 0  0.008503004854204898 0.00535569487730484 0  0.009259963738278846 0.00311662867229655 0  0.008475684980220988 0.005403758110057852 0  0.009154575183414377 0.003085428233059718 0  0.008454745928046752 0.005456403293512485 0  0.009047201669650919 0.00306109523639258 0  0.008439513408278112 0.005514195070427174 0  0.008939192849631329 0.003043084717779311 0  0.008429166878152986 0.005577550971903466 0  0.008831837058876933 0.003030696514962359 0  0.008422762438422462 0.005646725783411865 0  0.008726333603687408 0.003023091458314896 0  0.008419258457098896 0.005721799910265017 0  0.008623767548895558 0.003019311274956418 0  0.008417543272430451 0.005802672068315741 0  0.008525087599857118 0.003018301731897273 0  0.008416464279248125 0.00588905651847861 0  0.008431087594226352 0.003018938460180701 0  0.008414857671986093 0.005980484950740676 0  0.008342392027717107 0.003020054832380215 0  0.008411578104923951 0.00607631300744762 0  0.008259445936461489 0.003020471211663848 0  0.008405527535824455 0.006175731319709577 0  0.008182509349292211 0.003019024853329008 0  0.008395682542970321 0.006277780817654691 0  0.008111656409014527 0.003014599720199745 0  0.008381119447013561 0.006381371967788657 0  0.008046779145346881 0.003006155472077048 0  0.008361036626979524 0.006485307491577932 0  0.007987595766591686 0.002992754906602592 0  0.008334773492744059 0.006588308031041598 0  0.007933663225123278 0.002973589164041123 0  0.008301825662481763 0.006689040151823762 0  0.007884393706229835 0.002948000060762873 0  0.008261855990795578 0.006786146013815808 0  0.007839074593337327 0.002915498984345503 0  0.00821470119903896 0.006878273995427361 0  0.00779689137756701 0.002875781865550529 0  0.008160373971076945 0.006964109531182152 0  0.007756952908035942 0.002828739836943341 0  0.008099060492600814 0.007042405414120494 0  0.007718318323066783 0.002774465292296384 0  0.008031113527237115 0.007112010824752832 0  0.007680024962909086 0.00271325317257295 0  0.00795704123519566 0.007171898376800313 0  0.007641116542652925 0.002645597420482335 0  0.007877492047271241 0.007221188515997342 0  0.007600670860259881 0.002572182663460059 0  0.007793236005976425 0.007259170670701667 0  0.007557826329114609 0.002493871301548735 0  0.007705143073969071 0.007285320630435001 0  0.007511806656826274 0.002411686289155665 0  0.007614158985545023 0.007299313718867113 0  0.007461943041351158 0.002326790005260706 0  0.007521279277912055 0.0073010334289404 0  0.007407693320609463 0.002240459702730237 0  0.007427522183731196 0.007290575297323677 0  0.007348657590981677 0.002154060111582997 0  0.007333901093897399 0.007268245910489354 0  0.007284589901391725 0.00206901384126507 0  0.007241397309057064 0.007234557052593699 0  0.007215405730813352 0.001986770281484875 0  0.007150933789699272 0.00719021512310135 0  0.007141185065425865 0.001908773738582196 0  0.007063350588039396 0.007136106066830752 0  0.007062171004568673 0.001836431563827099 0  0.006979382601016691 0.007073276167978721 0  0.006978763939261549 0.001771083030979474 0  0.006899640223662019 0.007002909160025809 0  0.006891511460488134 0.001713969702858609 0  0.006824593407373458 0.006926300192755933 0  0.006801094263833782 0.001666207991002947 0  0.006754559540147956 0.006844827273742502 0  0.006708308419676155 0.00162876455961884 0  0.006689695467758148 0.006759920862683462 0  0.006614044471369561 0.001602435156224392 0  0.006629993868701035 0.006673032341407502 0  0.006519263905397843 0.001587827368384263 0  0.006575284084148806 0.006585602109130518 0  0.006424973605244305 0.00158534771074889 0  0.006525237389907268 0.006499028060960921 0  0.006332198953034525 0.001595193341602671 0  0.006479376583406328 0.006414635197532647 0  0.006241956278528544 0.001617348595877673 0  0.006437089647876208 0.006333647085242707 0  0.006155225372873471 0.001651586404869184 0  0.006397647150892512 0.00625715984059454 0  0.00607292278421836 0.001697474554571888 0  0.006360222938045857 0.006186119249742206 0  0.005995876593836629 0.001754386617555196 0  0.006323917597038065 0.006121301557042314 0  0.005924803335248409 0.001821517280492992 0  0.006287784095183865 0.006063298366166584 0  0.005860287665879005 0.001897901683632007 0  0.0062508549359344 0.00601250599634399 0  0.00580276533234513 0.001982438292224905 0  0.006212170139093256 0.005969119527087292 0  0.005752509888229881 0.002073914735631396 0  0.006170805325914 0.005933131650016665 0  0.005709623529238961 0.002171035979469365 0  0.00612589918486164 0.005904336328960144 0  0.005674032307267846 0.002272454141595308 0  0.006076679606648487 0.005882337152288339 0  0.005645485874731519 0.002376799225137041 0  0.006022487807921907 0.005866560147323738 0  0.005623561796267508 0.002482710022195841 0  0.005962799810943057 0.005856270718467968 0  0.005607674349474454 0.002588864440638754 0  0.005897244710577686 0.005850594271079678 0  0.005597087622580383 0.002694008523617222 0  0.005825619238346946 0.005848539994562327 0  0.005590932607696336 0.002796983466621648 0  0.005747898224220681 0.005849027202760175 0  0.005588227886339777 0.002896749989114506 0  0.005664240658026499 0.005850913569457749 0  0.005587903411768036 0.002992409485755934 0  0.005574991161285845 0.005853024553003058 0  0.00558882681266186 0.003083221464236011 0  0.005480676794268173 0.0058541832778865 0  0.005589831576859201 0.003168616870700337 0  0.005381999239242995 0.005853240133126504 0  0.005589746423825433 0.003248207007348517 0  0.005279822516415462 0.005849101357707455 0  0.005587425141631403 0.00332178785741102 0  0.005175156500976945 0.005840755911796739 0  0.005581776149243588 0.003389339747608045 0  0.00506913661529584 0.005827299978297529 0  0.005571791048314209 0.003451022394501277 0  0.004963000166879053 0.005807958501303589 0  0.005556571450340227 0.003507165495970296 0  0.004858059887934908 0.005782103244641807 0  0.005535353404530312 0.003558255139524018 0  0.004755675304028876 0.005749266942985061 0  0.005507528808027482 0.003604916402549837 0  0.004657222615643685 0.005709153217746636 0  0.005472663251911699 0.003647892613343369 0  0.004564063816013228 0.005661642037623928 0  0.005430509841895833 0.003688021823527707 0  0.004477515790388595 0.00560679061654508 0  0.005381018629732107 0.003726211110241175 0  0.004398820145347423 0.005544829757060492 0  0.005324341397676651 0.003763409378575775 0  0.004329114501762111 0.00547615576202805 0  0.00526083165129817 0.003800579369906148 0  0.004269405951942947 0.005401318148896703 0  0.005191039792677943 0.00383866959910631 0  0.004220547331062618 0.005321003506214064 0  0.005115703563750334 0.003878586942798619 0  0.004183216886472467 0.005236015928541855 0  0.005035733965268281 0.003921170581761714 0  0.004157901847560569 0.005147254551350707 0  0.004952196967785547 0.00396716796394016 0  0.004144886305359802 0.005055688779556268 0  0.004866291434383562 0.004017213401087919 0  0.004144243707482425 0.004962331860358698 0  0.004779323768077839 0.004071809843297703 0  0.004155834162682716 0.004868213491542542 0  0.004692679877608203 0.004131314293258991 0  0.004179306633167043 0.004774352179382177 0  0.004607795121646793 0.004195927228129257 0  0.004214105974540842 0.0046817280652164 0  0.004526122941701917 0.004265686293763611 0  0.004259484665915422 0.004591256926493267 0  0.004449102926905492 0.004340464426324128 0  0.004314518959085191 0.004503766026986902 0  0.004378129068627031 0.004419972442741865 0  0.00593001182314166 0.006372403387971871 0  0.005939572443554628 0.006436360317137665 0  0.005925376372385204 0.006368751471385894 0  0.005946732308607814 0.006530898816930391 0  0.005866840669782601 0.00633199119654035 0  0.00594701266737181 0.006625814903473438 0  0.005804249765180952 0.006301600770407027 0  0.005940440295727538 0.006720641436504761 0  0.00573695820405656 0.00627701458488837 0  0.005927101959384199 0.006814914480349616 0  0.00566445506679863 0.006257506825568757 0  0.005907143630376305 0.006908179927508449 0  0.005586382222683439 0.006242212086839124 0  0.005880768731714959 0.007 0  0.005502548881191342 0.006230149145824911 0  0.00584823543546249 0.007089959498878739 0  0.0054129
[...]
<PointData  Tensors="$\sigma$"> 
<DataArray  type="Float64"  Name="$\sigma$"  NumberOfComponents="9" format="ascii">-3.8947107900321409e+06 8.1692022514999192e+06 0.0000000000000000e+00 8.1692022514999192e+06 7.4801657499936551e+07 0.0000000000000000e+00 0.0000000000000000e+00 0.0000000000000000e+00 0.0000000000000000e+00  -3.2885747711484348e+06 -7.0511734400393218e+06 0.0000000000000000e+00 -7.0511734400393208e+06 4.5906453414704517e+07 0.0000000000000000e+00 0.0000000000000000e+00 0.0000000000000000e+00 0.0000000000000000e+00  3.7168672444313751e+06 1.0077135678864847e+06 0.0000000000000000e+00 1.0077135678864847e+06 3.9769689068726346e+07 0.0000000000000000e+00 0.0000000000000000e+00 0.0000000000000000e+00 0.0000000000000000e+00  1.7467904174451283e+05 4.3927660783321422e+04 0.0000000000000000e+00 4.3927660783321422e+04 1.4450602970037907e+07 0.0000000000000000e+00 0.0000000000000000e+00 0.0000000000000000e+00 0.0000000000000000e+00  -2.2591833676024992e+06 -6.6092952530558370e+06 0.0000000000000000e+00 -6.6092952530558370e+06 4.0514754175654344e+07 0.0000000000000000e+00 0.0000000000000000e+00 0.0000000000000000e+00 0.0000000000000000e+00  -4.2858325435525160e+06 1.2578920256099125e+07 0.0000000000000000e+00 1.2578920256099125e+07 5.8116461536549032e+07 0.0000000000000000e+00 0.0000000000000000e+00 0.0000000000000000e+00 0.0000000000000000e+00  1.4304050145222645e+06 6.1333932648306378e+04 0.0000000000000000e+00 6.1333932648306378e+04 2.4460988542667218e+07 0.0000000000000000e+00 0.0000000000000000e+00 0.0000000000000000e+00 0.0000000000000000e+00  1.0600067432098862e+05 8.2963300825554525e+03 0.0000000000000000e+00 8.2963300825554525e+03 1.4038370336563209e+07 0.0000000000000000e+00 0.0000000000000000e+00 0.0000000000000000e+00 0.0000000000000000e+00  3.7720269843785940e+06 3.7607523089008294e+06 0.0000000000000000e+00 3.7607523089008294e+06 8.0139536743568718e+07 0.0000000000000000e+00 0.0000000000000000e+00 0.0000000000000000e+00 0.0000000000000000e+00  1.2832300768826358e+07 5.7830328242780836e+06 0.0000000000000000e+00 5.7830328242780836e+06 4.4518111825923987e+07 0.0000000000000000e+00 0.0000000000000000e+00 0.0000000000000000e+00 0.0000000000000000e+00  -4.5964507429620801e+06 -1.0106875263993379e+07 0.0000000000000000e+00 -1.0106875263993379e+07 1.1427606818718758e+08 0.0000000000000000e+00 0.0000000000000000e+00 0.0000000000000000e+00 0.0000000000000000e+00  1.5416181538628368e+07 8.4306792027600968e+04 0.0000000000000000e+00 8.4306792027600866e+04 2.4969631817647561e+07 0.0000000000000000e+00 0.0000000000000000e+00 0.0000000000000000e+00 0.0000000000000000e+00  -3.1476881952005220e+06 -2.6661263354777314e+07 0.0000000000000000e+00 -2.6661263354777314e+07 1.3389332929349513e+08 0.0000000000000000e+00 0.0000000000000000e+00 0.0000000000000000e+00 0.0000000000000000e+00  1.5972248919818159e+07 -7.1406998618676991e+05 0.0000000000000000e+00 -7.1406998618676944e+05 7.5295776094676480e+06 0.0000000000000000e+00 0.0000000000000000e+00 0.0000000000000000e+00 0.0000000000000000e+00  -3.5981353138295161e+06 -3.7409838507545352e+07 0.0000000000000000e+00 -3.7409838507545352e+07 1.4350987399987027e+08 0.0000000000000000e+00 0.0000000000000000e+00 0.0000000000000000e+00 0.0000000000000000e+00  2.5377814940145132e+06 -9.3198705359957870e+06 0.0000000000000000e+00 -9.3198705359957870e+06 1.1324710325341931e+07 0.0000000000000000e+00 0.0000000000000000e+00 0.0000000000000000e+00 0.0000000000000000e+00  1.3613959199687116e+07 -3.8885337863962591e+07 0.0000000000000000e+00 -3.8885337863962591e+07 1.3684694039924252e+08 0.0000000000000000e+00 0.0000000000000000e+00 0.0000000000000000e+00 0.0000000000000000e+00  2.4309310804256727e+06 -3.5945707142786909e+05 0.0000000000000000e+00 -3.5945707142786909e+05 8.1519514367136182e+06 0.0000000000000000e+00 0.0000000000000000e+00 0.0000000000000000e+00 0.0000000000000000e+00  1.5610959212766141e+06 7.9707288615959749e+07 0.0000000000000000e+00 7.9707288615959749e+07 2.2170026452500787e+08 0.0000000000000000e+00 0.0000000000000000e+00 0.0000000000000000e+00 0.0000000000000000e+00  4.5849990534578427e+05 1.7232623239157207e+06 0.0000000000000000e+00 1.7232623239157207e+06 2.7831650842508809e+06 0.0000000000000000e+00 0.0000000000000000e+00 0.0000000000000000e+00 0.0000000000000000e+00  -6.7853808062987298e+07 1.4013693914787211e+07 0.0000000000000000e+00 1.4013693914787211e+07 3.4942880654453307e+08 0.0000000000000000e+00 0.0000000000000000e+00 0.0000000000000000e+00 0.0000000000000000e+00  -2.3447804478903152e+06 -7.6958155084019545e+03 0.0000000000000000e+00 -7.6958155084019545e+03 1.1595909050877206e+06 0.0000000000000000e+00 0.0000000000000000e+00 0.0000000000000000e+00 0.0000000000000000e+00  -1.6993936770730335e+07 -6.3982985084911324e+07 0.0000000000000000e+00 -6.3982985084911324e+07 2.6847499404075098e+08 0.0000000000000000e+00 0.0000000000000000e+00 0.0000000000000000e+00 0.0000000000000000e+00  -2.8018645709487693e+06 1.4203506701673788e+06 0.0000000000000000e+00 1.4203506701673788e+06 -5.0837570024462370e+05 0.0000000000000000e+00 0.0000000000000000e+00 0.0000000000000000e+00 0.0000000000000000e+00  -1.2216712510618109e+07 2.9281496858282831e+07 0.0000000000000000e+00 2.9281496858282831e+07 1.4673282453484184e+08 0.0000000000000000e+00 0.0000000000000000e+00 0.0000000000000000e+00 0.0000000000000000e+00  -4.2868464022167493e+06 2.3711616908408203e+06 0.0000000000000000e+00 2.3711616908408203e+06 -1.1040227637519818e+06 0.0000000000000000e+00 0.0000000000000000e+00 0.0000000000000000e+00 0.0000000000000000e+00  -2.7856603371026102e+07 2.0568921374049857e+07 0.0000000000000000e+00 2.0568921374049857e+07 1.4580595819239992e+08 0.0000000000000000e+00 0.0000000000000000e+00 0.0000000000000000e+00 0.0000000000000000e+00  -4.2361356409076219e+06 2.0955142299141642e+06 0.0000000000000000e+00 2.0955142299141644e+06 -1.5528390003819221e+06 0.0000000000000000e+00 0.0000000000000000e+00 0.0000000000000000e+00 0.0000000000000000e+00  -3.4228074416558050e+07 3.5465559198611490e+06 0.0000000000000000e+00 3.5465559198611490e+06 1.3233095053157729e+08 0.0000000000000000e+00 0.0000000000000000e+00 0.0000000000000000e+00 0.0000000000000000e+00  -3.9113477239991580e+06 2.2255233365986305e+06 0.0000000000000000e+00 2.2255233365986305e+06 -1.2328444350769836e+06 0.0000000000000000e+00 0.0000000000000000e+00 0.0000000000000000e+00 0.0000000000000000e+00  -3.5011981067820229e+07 -2.0151662741267581e+07 0.0000000000000000e+00 -2.0151662741267581e+07 1.0425757298892690e+08 0.0000000000000000e+00 0.0000000000000000e+00 0.0000000000000000e+00 0.0000000000000000e+00  -3.5033991549915546e+06 2.2924258380811280e+06 0.0000000000000000e+00 2.2924258380811280e+06 -1.2900621701757661e+06 0.0000000000000000e+00 0.0000000000000000e+00 0.0000000000000000e+00 0.0000000000000000e+00  -3.1057366112008795e+07 -4.1359294829463296e+07 0.0000000000000000e+00 -4.1359294829463296e+07 6.8523918624300435e+07 0.0000000000000000e+00 0.0000000000000000e+00 0.0000000000000000e+00 0.0000000000000000e+00  -2.7235740300778132e+06 1.9827243765873143e+06 0.0000000000000000e+00 1.9827243765873143e+06 -1.2352179319623802e+06 0.0000000000000000e+00 0.0000000000000000e+00 0.0000000000000000e+00 0.0000000000000000e+00  -6.9512807019344368e+05 -4.3662176714135148e+07 0.0000000000000000e+00 -4.3662176714135148e+07 1.3843705257857285e+07 0.0000000000000000e+00 0.0000000000000000e+00 0.0000000000000000e+00 0.0000000000000000e+00  -2.1243133028082354e+06 1.7893728339612056e+06 0.0000000000000000e+00 1.7893728339612056e+06 -1.1896907602880495e+06 0.0000000000000000e+00 0.0000000000000000e+00 0.0000000000000000e+00 0.0000000000000000e+00  -7.2906374435842469e+07 -6.5221150604798822e+06 0.0000000000000000e+00 -6.5221150604798822e+06 -9.2457363697367180e+06 0.0000000000000000e+00 0.0000000000000000e+00 0.0000000000000000e+00 0.0000000000000000e+00  -1.4859632278760383e+06 1.5383634832572362e+06 0.0000000000000000e+00 1.5383634832572360e+06 -1.3434542942742063e+06 0.0000000000000000e+00 0.0000000000000000e+00 0.0000000000000000e+00 0.0000000000000000e+00  -4.7957964838819243e+07 -3.4754839902584888e+07 0.0000000000000000e+00 -3.4754839902584888e+07 -1.2900023840318015e+07 0.0000000000000000e+00 0.0000000000000000e+00 0.0000000000000000e+00 0.0000000000000000e+00  -1.1028324960265402e+06 1.3507584464492402e+06 0.0000000000000000e+00 1.3507584464492397e+06 -1.5111810748423475e+06 0.0000000000000000e+00 0.0000000000000000e+00 0.0000000000000000e+00 0.0000000000000000e+00  -4.1043504298625991e+07 -9.5852746236900333e+06 0.0000000000000000e+00 -9.5852746236900333e+06 -1.2590674934360834e+07 0.0000000000000000e+00 0.0000000000000000e+00 0.0000000000000000e+00 0.0000000000000000e+00  -7.0041898840211122e+05 1.1994053401581233e+06 0.0000000000000000e+00 1.1994053401581233e+06 -1.7303594753148423e+06 0.0000000000000000e+00 0.0000000000000000e+00 0.0000000000000000e+00 0.0000000000000000e+00  -3.1240414746560220e+07 -1.5671927320092764e+07 0.0000000000000000e+00 -1.5671927320092764e+07 -8.6743548855972067e+06 0.0000000000000000e+00 0.0000000000000000e+00 0.0000000000000000e+00 0.0000000000000000e+00  -3.8382192724006792e+05 1.0080538303275607e+06 0.0000000000000000e+00 1.0080538303275604e+06 -1.9735451396762722e+06 0.0000000000000000e+00 0.0000000000000000e+00 0.0000000000000000e+00 0.0000000000000000e+00  -4.7527252902447991e+07 -1.1747199884236610e+07 0.0000000000000000e+00 -1.1747199884236610e+07 4.7122558653595368e+05 0.0000000000000000e+00 0.0000000000000000e+00 0.0000000000000000e+00 0.0000000000000000e+00  -1.9829241722016275e+05 8.0052667812190729e+05 0.0000000000000000e+00 8.0052667812190729e+05 -2.3609137527612653e+06 0.0000000000000000e+00 0.0000000000000000e+00 0.0000000000000000e+00 0.0000000000000000e+00  -3.3794388341590196e+07 -8.3856862194709368e+06 0.0000000000000000e+00 -8.3856862194709368e+06 -1.4913283380505401e+06 0.0000000000000000e+00 0.0000000000000000e+00 0.0000000000000000e+00 0.0000000000000000e+00  -8.1400835619785881e+04 6.7732684859345446e+05 0.0000000000000000e+00 6.7732684859345446e+05 -2.7691840971419574e+06 0.0000000000000000e+00 0.0000000000000000e+00 0.0000000000000000e+00 0.0000000000000000e+00  -3.0238816051294781e+07 -5.8267702375000985e+06 0.0000000000000000e+00 -5.8267702375000985e+06 -1.6103137625240861e+06 0.0000000000000000e+00 0.0000000000000000e+00 0.0000000000000000e+00 0.0000000000000000e+00  -1.2723723014752465e+05 4.7605842627616343e+05 0.0000000000000000e+00 4.7605842627616343e+05 -3.0631324427672974e+06 0.0000000000000000e+00 0.0000000000000000e+00 0.0000000000000000e+00 0.0000000000000000e+00  -2.7770969388219398e+07 -2.4938630442455327e+06 0.0000000000000000e+00 -2.4938630442455327e+06 -6.4324867551227764e+05 0.0000000000000000e+00 0.0000000000000000e+00 0.0000000000000000e+00 0.0000000000000000e+00  7.6401715696733052e+04 4.8269844757007848e+05 0.0000000000000000e+00 4.8269844757007848e+05 -3.8059913750836211e+06 0.0000000000000000e+00 0.0000000000000000e+00 0.0000000000000000e+00 0.0000000000000000e+00  -2.3726568251416545e+07 -1.8110785708357627e+06 0.0000000000000000e+00 -1.8110785708357627e+06 -4.3297612825663200e+04 0.0000000000000000e+00 0.0000000000000000e+00 0.0000000000000000e+00 0.0000000000000000e+00  -9.6879276224574802e+04 2.6521727119151060e+05 0.0000000000000000e+00 2.6521727119151060e+05 -4.1155335997788594e+06 0.0000000000000000e+00 0.0000000000000000e+00 0.0000000000000000e+00 0.0000000000000000e+00  -1.9761721131803337e+07 -1.4747211520308421e+06 0.0000000000000000e+00 -1.4747211520308421e+06 -1.5136685526476649e+05 0.0000000000000000e+00 0.0000000000000000e+00 0.0000000000000000e+00 0.0000000000000000e+00  -3.9757903164945327e+05 -6.1971505660217338e+02 0.0000000000000000e+00 -6.1971505660217338e+02 -4.3693906376456106e+06 0.0000000000000000e+00 0.0000000000000000e+00 0.0000000000000000e+00 0.0000000000000000e+00  -1.6196215888849190e+07 -7.2816319138435379e+05 0.0000000000000000e+00 -7.2816319138435379e+05 -6.8714483849493117e+04 0.0000000000000000e+00 0.0000000000000000e+00 0.0000000000000000e+00 0.0000000000000000e+00  -2.9013376031842438e+05 4.2427041813060438e+05 0.0000000000000000e+00 4.2427041813060438e+05 -5.0257277140252711e+06 0.0000000000000000e+00 0.0000000000000000e+00 0.0000000000000000e+00 0.0000000000000000e+00  -1.3325190580340665e+07 -3.7191527968528675e+05 0.0000000000000000e+00 -3.7191527968528675e+05 -4.4461358323382301e+04 0.0000000000000000e+00 0.0000000000000000e+00 0.0000000000000000e+00 0.0000000000000000e+00  -1.9392320062938053e+05 7.6732812737892731e+05 0.0000000000000000e+00 7.6732812737892731e+05 -5.3676919175364040e+06 0.0000000000000000e+00 0.0000000000000000e+00 0.0000000000000000e+00 0.0000000000000000e+00  -1.0440342474067328e+07 -4.3752882348166249e+05 0.0000000000000000e+00 -4.3752882348166249e+05 4.9093522051318949e+04 0.0000000000000000e+00 0.0000000000000000e+00 0.0000000000000000e+00 0.0000000000000000e+00  -5.9821244903460017e+05 5.2075166013929300e+05 0.0000000000000000e+00 5.2075166013929300e+05 -4.8468000791490041e+06 0.0000000000000000e+00 0.0000000000000000e+00 0.0000000000000000e+00 0.0000000000000000e+00  -7.9665631076609213e+06 -4.6206774207185424e+05 0.0000000000000000e+00 -4.6206774207185424e+05 -9.4109386572320418e+03 0.0000000000000000e+00 0.0000000000000000e+00 0.0000000000000000e+00 0.0000000000000000e+00  -6.0954787450638122e+05 1.0994919719014019e+06 0.0000000000000000e+00 1.0994919719014019e+06 -4.7644318498799857e+06 0.0000000000000000e+00 0.0000000000000000e+00 0.0000000000000000e+00 0.0000000000000000e+00  -6.3216734012405798e+06 -4.8515517139847775e+05 0.0000000000000000e+00 -4.8515517139847775e+05 -1.1390635833619633e+03 0.0000000000000000e+00 0.0000000000000000e+00 0.0000000000000000e+00 0.0000000000000000e+00  5.5878367658955476e+05 1.2643209574683222e+06 0.0000000000000000e+00 1.2643209574683222e+06 -7.4235463313392047e+06 0.0000000000000000e+00 0.0000000000000000e+00 0.0000000000000000e+00 0.0000000000000000e+00  -4.5054367029841635e+06 -6.3594891688749869e+05 0.0000000000000000e+00 -6.3594891688749869e+05 1.6106920709356629e+04 0.0000000000000000e+00 0.0000000000000000e+00 0.0000000000000000e+00 0.0000000000000000e+00  -2.9409475916168024e+05 9.8266936745543662e+05 0.0000000000000000e+00 9.8266936745543662e+05 -5.1238650534131136e+06 0.0000000000000000e+00 0.0000000000000000e+00 0.0000000000000000e+00 0.0000000000000000e+00  -3.7571362241510190e+06 -8.4269905490887281e+05 0.0000000000000000e+00 -8.4269905490887281e+05 -1.7836995298545374e+05 0.0000000000000000e+00 0.0000000000000000e+00 0.0000000000000000e+00 0.0000000000000000e+00  2.8170008812812669e+05 7.2884842692287080e+05 0.0000000000000000e+00 7.2884842692287080e+05 -7.5184554146581609e+06 0.0000000000000000e+00 0.0000000000000000e+00 0.0000000000000000e+00 0.0000000000000000e+00  -2.7974652704365100e+06 -8.5335473267569987e+05 0.0000000000000000e+00 -8.5335473267569987e+05 -1.6340551068956361e+05 0.0000000000000000e+00 0.0000000000000000e+00 0.0000000000000000e+00 0.0000000000000000e+00  6.9520404835420442e+04 1.9597313859346488e+06 0.0000000000000000e+00 1.9597313859346488e+06 -4.9132399477895657e+06 0.0000000000000000e+00 0.0000000000000000e+00 0.0000000000000000e+00 0.0000000000000000e+00  -2.2415861420624605e+06 -1.0550529972518382e+06 0.0000000000000000e+00 -1.0550529972518382e+06 -3.8862835350594507e+05 0.0000000000000000e+00 0.0000000000000000e+00 0.0000000000000000e+00 0.0000000000000000e+00  -1.1767592514422608e+06 2.5386169040214010e+06 0.0000000000000000e+00 2.5386169040214010e+06 -5.0416415229968820e+06 0.0000000000000000e+00 0.0000000000000000e+00 0.0000000000000000e+00 0.0000000000000000e+00  -1.8772073180605075e+06 -1.3221050695854621e+06 0.0000000000000000e+00 -1.3221050695854621e+06 -7.9666463315573521e+05 0.0000000000000000e+00 0.0000000000000000e+00 0.0000000000000000e+00 0.0000000000000000e+00  -6.8443364402050513e+05 2.0404582874476379e+06 0.0000000000000000e+00 2.0404582874476379e+06 -4.4796432495175451e+06 0.0000000000000000e+00 0.0000000000000000e+00 0.0000000000000000e+00 0.0000000000000000e+00  -1.8426325046236038e+06 -1.4028662225666516e+06 0.0000000000000000e+00 -1.4028662225666516e+06 -9.5013256037217402e+05 0.0000000000000000e+00 0.0000000000000000e+00 0.0000000000000000e+00 0.0000000000000000e+00  -1.6627139900354156e+06 3.8414251111576008e+06 0.0000000000000000e+00 3.8414251111576008e+06 -6.0072068931446699e+06 0.0000000000000000e+00 0.0000000000000000e+00 0.0000000000000000e+00 0.0000000000000000e+00  -1.5542919245659879e+06 -1.6152348979854689e+06 0.0000000000000000e+00 -1.6152348979854689e+06 -1.5010392521022607e+06 0.0000000000000000e+00 0.0000000000000000e+00 0.0000000000000000e+00 0.0000000000000000e+00  -1.9905493808703886e+06 2.4975444953186405e+06 0.0000000000000000e+00 2.4975444953186405e+06 -3.8567337312073666e+06 0.0000000000000000e+00 0.0000000000000000e+00 0.0000000000000000e+00 0.0000000000000000e+00  -1.4784803928018131e+06 -1.7869630947222041e+06 0.0000000000000000e+00 -1.7869630947222041e+06 -2.1401517790055950e+06 0.0000000000000000e+00 0.0000000000000000e+00 0.0000000000000000e+00 0.0000000000000000e+00  -3.7982186306900228e+06 3.7389371016592472e+06 0.0000000000000000e+00 3.7389371016592472e+06 -4.6290072114374414e+06 0.0000000000000000e+00 0.0000000000000000e+00 0.0000000000000000e+00 0.0000000000000000e+00  -1.7855127262512634e+06 -2.4964961141598155e+06 0.0000000000000000e+00 -2.4964961141598155e+06 -3.2861645412303573e+06 0.0000000000000000e+00 0.0000000000000000e+00 0.0000000000000000e+00 0.0000000000000000e+00  -5.0859468713199925e+06 3.8823620482307393e+06 0.0000000000000000e+00 3.8823620482307393e+06 -3.3601799610501332e+06 0.0000000000000000e+00 0.0000000000000000e+00 0.0000000000000000e+00 0.0000000000000000e+00  -1.8257337755830027e+06 -2.8453536521011456e+06 0.0000000000000000e+00 -2.8453536521011456e+06 -4.2633530757203167e+06 0.0000000000000000e+00 0.0000000000000000e+00 0.0000000000000000e+00 0.0000000000000000e+00  -5.7654507097569136e+06 4.2886123632550891e+06 0.0000000000000000e+00 4.2886123632550891e+06 -3.4681497344245748e+06 0.0000000000000000e+00 0.0000000000000000e+00 0.0000000000000000e+00 0.0000000000000000e+00  -2.0528984557988874e+06 -3.4056309492072398e+06 0.0000000000000000e+00 -3.4056309492072398e+06 -5.5083002807823597e+06 0.0000000000000000e+00 0.0000000000000000e+00 0.0000000000000000e+00 0.0000000000000000e+00  -7.2215984880688749e+06 3.5670523139713779e+06 0.0000000000000000e+00 3.5670523139713779e+06 -2.1355373978650146e+06 0.0000000000000000e+00 0.0000000000000000e+00 0.0000000000000000e+00 0.0000000000000000e+00  -2.4756296931096176e+06 -4.1612062602472166e+06 0.0000000000000000e+00 -4.1612062602472166e+06 -6.9726511321586641e+06 0.0000000000000000e+00 0.0000000000000000e+00 0.0000000000000000e+00 0.0000000000000000e+00  -7.3353533556654379e+06 2.8625034012062363e+06 0.0000000000000000e+00 2.8625034012062363e+06 -1.3056503590218346e+06 0.0000000000000000e+00 0.0000000000000000e+00 0.0000000000000000e+00 0.0000000000000000e+00  -2.9586714042578219e+06 -4.8935894647386977e+06 0.0000000000000000e+00 -4.8935894647386977e+06 -8.1757849744228208e+06 0.0000000000000000e+00 0.0000000000000000e+00 0.0000000000000000e+00 0.0000000000000000e+00  -6.4436997903701803e+06 1.6980742621120552e+06 0.0000000000000000e+00 1.6980742621120552e+06 -8.1710197630395868e+05 0.0000000000000000e+00 0.0000000000000000e+00 0.0000000000000000e+00 0.0000000000000000e+00  -3.6272272534212563e+06 -5.8038064324594783e+06 0.0000000000000000e+00 -5.8038064324594783e+06 -9.4633384241363220e+06 0.0000000000000000e+00 0.0000000000000000e+00 0.0000000000000000e+00 0.0000000000000000e+00  -5.7454751016202588e+06 8.0810854960801196e+05 0.0000000000000000e+00 8.0810854960801196e+05 -3.4664423853305128e+05 0.0000000000000000e+00 0.0000000000000000e+00 0.0000000000000000e+00 0.0000000000000000e+00  -4.3555922847473938e+06 -6.5998175941163227e+06 0.0000000000000000e+00 -6.5998175941163227e+06 -1.0348291