<?xml version="1.0"?>
<VTKFile type="UnstructuredGrid"  version="0.1"  >
<UnstructuredGrid>
<Piece  NumberOfPoints="1799" NumberOfCells="3156">
<Points>
<DataArray  type="Float64"  NumberOfComponents="3"  format="ascii">1.694065894508601e-21 0.008447317744001559 0  0 0.006243487017789186 0  0 0.01 0  0.01 0.01 0  0.01 0.004739447698251261 0  0.01 0.003038811340045742 0  0.01 0 0  0 0 0  0.00972274937591714 0.00446136709 0  0.009653726258356362 0.004545183154286949 0  0.009783606631901408 0.0043734488461064 0  0.009577812281436313 0.004624366443043088 0  0.009835143529851395 0.004282096254618384 0  0.009496374895431106 0.004698536913086191 0  0.009876351429728553 0.004188097333533943 0  0.009410843899527923 0.004767474310794485 0  0.009906389591104073 0.004092339945416686 0  0.009322680015752169 0.00483112308721043 0  0.009924603388293412 0.003995788691361544 0  0.009233342881914028 0.004889592860194898 0  0.009930538269388231 0.00389945963832429 0  0.009144259222736564 0.004943154406398476 0  0.009923949134101986 0.003804393533973133 0  0.009056791952980949 0.004992231280310688 0  0.009904804916195522 0.003711628202889073 0  0.00897221094262878 0.005037387269757166 0  0.009873288272257268 0.003622170840092915 0  0.008891666132610079 0.005079310004121139 0  0.009829790396922524 0.003536970921943865 0  0.008816163631214721 0.005118791130579932 0  0.009774901102315603 0.003456894440322572 0  0.008746545347644217 0.005156703562277342 0  0.009709394413691105 0.003382700134020289 0  0.008683472631978471 0.005193976378365099 0  0.009634210041128223 0.00331501834219343 0  0.008627414292309099 0.005231568017322153 0  0.009550431186043644 0.003254333039822774 0  0.008578639252366998 0.005270438450342868 0  0.009459259228807002 0.003200967535951617 0  0.008537213999305775 0.005311521049719365 0  0.00936198591772306 0.003155074224035663 0  0.008503004854204898 0.00535569487730484 0  0.009259963738278846 0.00311662867229655 0  0.008475684980220988 0.005403758110057852 0  0.009154575183414377 0.003085428233059718 0  0.008454745928046752 0.005456403293512485 0  0.009047201669650919 0.00306109523639258 0  0.008439513408278112 0.005514195070427174 0  0.008939192849631329 0.003043084717779311 0  0.008429166878152986 0.005577550971903466 0  0.008831837058876933 0.003030696514962359 0  0.008422762438422462 0.005646725783411865 0  0.008726333603687408 0.003023091458314896 0  0.008419258457098896 0.005721799910265017 0  0.008623767548895558 0.003019311274956418 0  0.008417543272430451 0.005802672068315741 0  0.008525087599857118 0.003018301731897273 0  0.008416464279248125 0.00588905651847861 0  0.008431087594226352 0.003018938460180701 0  0.008414857671986093 0.005980484950740676 0  0.008342392027717107 0.003020054832380215 0  0.008411578104923951 0.00607631300744762 0  0.008259445936461489 0.003020471211663848 0  0.008405527535824455 0.006175731319709577 0  0.008182509349292211 0.003019024853329008 0  0.008395682542970321 0.006277780817654691 0  0.008111656409014527 0.003014599720199745 0  0.008381119447013561 0.006381371967788657 0  0.008046779145346881 0.003006155472077048 0  0.008361036626979524 0.006485307491577932 0  0.007987595766591686 0.002992754906602592 0  0.008334773492744059 0.006588308031041598 0  0.007933663225123278 0.002973589164041123 0  0.008301825662481763 0.006689040151823762 0  0.007884393706229835 0.002948000060762873 0  0.008261855990795578 0.006786146013815808 0  0.007839074593337327 0.002915498984345503 0  0.00821470119903896 0.006878273995427361 0  0.00779689137756701 0.002875781865550529 0  0.008160373971076945 0.006964109531182152 0  0.007756952908035942 0.002828739836943341 0  0.008099060492600814 0.007042405414120494 0  0.007718318323066783 0.002774465292296384 0  0.008031113527237115 0.007112010824752832 0  0.007680024962909086 0.00271325317257295 0  0.00795704123519566 0.007171898376800313 0  0.007641116542652925 0.002645597420482335 0  0.007877492047271241 0.007221188515997342 0  0.007600670860259881 0.002572182663460059 0  0.007793236005976425 0.007259170670701667 0  0.007557826329114609 0.002493871301548735 0  0.007705143073969071 0.007285320630435001 0  0.007511806656826274 0.002411686289155665 0  0.007614158985545023 0.007299313718867113 0  0.007461943041351158 0.002326790005260706 0  0.007521279277912055 0.0073010334289404 0  0.007407693320609463 0.002240459702730237 0  0.007427522183731196 0.007290575297323677 0  0.007348657590981677 0.002154060111582997 0  0.007333901093897399 0.007268245910489354 0  0.007284589901391725 0.00206901384126507 0  0.007241397309057064 0.007234557052593699 0  0.007215405730813352 0.001986770281484875 0  0.007150933789699272 0.00719021512310135 0  0.007141185065425865 0.001908773738582196 0  0.007063350588039396 0.007136106066830752 0  0.007062171004568673 0.001836431563827099 0  0.006979382601016691 0.007073276167978721 0  0.006978763939261549 0.001771083030979474 0  0.006899640223662019 0.007002909160025809 0  0.006891511460488134 0.001713969702858609 0  0.006824593407373458 0.006926300192755933 0  0.006801094263833782 0.001666207991002947 0  0.006754559540147956 0.006844827273742502 0  0.006708308419676155 0.00162876455961884 0  0.006689695467758148 0.006759920862683462 0  0.006614044471369561 0.001602435156224392 0  0.006629993868701035 0.006673032341407502 0  0.006519263905397843 0.001587827368384263 0  0.006575284084148806 0.006585602109130518 0  0.006424973605244305 0.00158534771074889 0  0.006525237389907268 0.006499028060960921 0  0.006332198953034525 0.001595193341602671 0  0.006479376583406328 0.006414635197532647 0  0.006241956278528544 0.001617348595877673 0  0.006437089647876208 0.006333647085242707 0  0.006155225372873471 0.001651586404869184 0  0.006397647150892512 0.00625715984059454 0  0.00607292278421836 0.001697474554571888 0  0.006360222938045857 0.006186119249742206 0  0.005995876593836629 0.001754386617555196 0  0.006323917597038065 0.006121301557042314 0  0.005924803335248409 0.001821517280492992 0  0.006287784095183865 0.006063298366166584 0  0.005860287665879005 0.001897901683632007 0  0.0062508549359344 0.00601250599634399 0  0.00580276533234513 0.001982438292224905 0  0.006212170139093256 0.005969119527087292 0  0.005752509888229881 0.002073914735631396 0  0.006170805325914 0.005933131650016665 0  0.005709623529238961 0.002171035979469365 0  0.00612589918486164 0.005904336328960144 0  0.005674032307267846 0.002272454141595308 0  0.006076679606648487 0.005882337152288339 0  0.005645485874731519 0.002376799225137041 0  0.006022487807921907 0.005866560147323738 0  0.005623561796267508 0.002482710022195841 0  0.005962799810943057 0.005856270718467968 0  0.005607674349474454 0.002588864440638754 0  0.005897244710577686 0.005850594271079678 0  0.005597087622580383 0.002694008523617222 0  0.005825619238346946 0.005848539994562327 0  0.005590932607696336 0.002796983466621648 0  0.005747898224220681 0.005849027202760175 0  0.005588227886339777 0.002896749989114506 0  0.005664240658026499 0.005850913569457749 0  0.005587903411768036 0.002992409485755934 0  0.005574991161285845 0.005853024553003058 0  0.00558882681266186 0.003083221464236011 0  0.005480676794268173 0.0058541832778865 0  0.005589831576859201 0.003168616870700337 0  0.005381999239242995 0.005853240133126504 0  0.005589746423825433 0.003248207007348517 0  0.005279822516415462 0.005849101357707455 0  0.005587425141631403 0.00332178785741102 0  0.005175156500976945 0.005840755911796739 0  0.005581776149243588 0.003389339747608045 0  0.00506913661529584 0.005827299978297529 0  0.005571791048314209 0.003451022394501277 0  0.004963000166879053 0.005807958501303589 0  0.005556571450340227 0.003507165495970296 0  0.004858059887934908 0.005782103244641807 0  0.005535353404530312 0.003558255139524018 0  0.004755675304028876 0.005749266942985061 0  0.005507528808027482 0.003604916402549837 0  0.004657222615643685 0.005709153217746636 0  0.005472663251911699 0.003647892613343369 0  0.004564063816013228 0.005661642037623928 0  0.005430509841895833 0.003688021823527707 0  0.004477515790388595 0.00560679061654508 0  0.005381018629732107 0.003726211110241175 0  0.004398820145347423 0.005544829757060492 0  0.005324341397676651 0.003763409378575775 0  0.004329114501762111 0.00547615576202805 0  0.00526083165129817 0.003800579369906148 0  0.004269405951942947 0.005401318148896703 0  0.005191039792677943 0.00383866959910631 0  0.004220547331062618 0.005321003506214064 0  0.005115703563750334 0.003878586942798619 0  0.004183216886472467 0.005236015928541855 0  0.005035733965268281 0.003921170581761714 0  0.004157901847560569 0.005147254551350707 0  0.004952196967785547 0.00396716796394016 0  0.004144886305359802 0.005055688779556268 0  0.004866291434383562 0.004017213401087919 0  0.004144243707482425 0.004962331860358698 0  0.004779323768077839 0.004071809843297703 0  0.004155834162682716 0.004868213491542542 0  0.004692679877608203 0.004131314293258991 0  0.004179306633167043 0.004774352179382177 0  0.004607795121646793 0.004195927228129257 0  0.004214105974540842 0.0046817280652164 0  0.004526122941701917 0.004265686293763611 0  0.004259484665915422 0.004591256926493267 0  0.004449102926905492 0.004340464426324128 0  0.004314518959085191 0.004503766026986902 0  0.004378129068627031 0.004419972442741865 0  0.00593001182314166 0.006372403387971871 0  0.005939572443554628 0.006436360317137665 0  0.005925376372385204 0.006368751471385894 0  0.005946732308607814 0.006530898816930391 0  0.005866840669782601 0.00633199119654035 0  0.00594701266737181 0.006625814903473438 0  0.005804249765180952 0.006301600770407027 0  0.005940440295727538 0.006720641436504761 0  0.00573695820405656 0.00627701458488837 0  0.005927101959384199 0.006814914480349616 0  0.00566445506679863 0.006257506825568757 0  0.005907143630376305 0.006908179927508449 0  0.005586382222683439 0.006242212086839124 0  0.005880768731714959 0.007 0  0.005502548881191342 0.006230149145824911 0  0.00584823543546249 0.007089959498878739 0  0.0054129
[...]
<PointData  Scalars="$\sigma_{VM}$"> 
<DataArray  type="Float64"  Name="$\sigma_{VM}$"  format="ascii">9.1483807798440337e+07  5.7028441802655533e+07  4.8848916223275863e+07  1.7700164740390535e+07  5.0260241265726976e+07  7.0557294675184608e+07  3.0023567808415897e+07  1.7191565111528162e+07  9.7811775616890982e+07  5.6120775410132907e+07  1.4102357242257553e+08  3.4208720023530215e+07  1.7035494912953678e+08  1.5908003420045629e+07  1.8788438556477284e+08  2.2539171936652806e+07  1.7908217850693706e+08  9.8965289256717525e+06  2.8887973621907181e+08  2.9274513431153507e+06  4.3356967738667345e+08  1.8983637244337916e+06  3.3866262554209322e+08  2.4459738369027381e+06  1.8749475925272086e+08  6.9924783053693995e+06  1.8641457397717008e+08  6.6442458639331302e+06  1.6720200968883520e+08  6.2976581767655760e+06  1.3639855707594776e+08  6.0366570434813593e+06  1.0686916085136944e+08  5.0507910753783956e+06  5.9910032668810137e+07  4.3143428314209841e+06  8.1097311925215289e+07  3.6371295290007917e+06  8.6606542907747075e+07  3.2807246703150924e+06  5.5246925010188907e+07  3.0887370214102115e+06  4.8042623554422557e+07  3.0088243898820477e+06  6.0234716879853345e+07  3.2048683806733787e+06  4.3605213626296751e+07  3.6009827476878362e+06  3.8779494406001695e+07  3.8671316030214950e+06  3.4140021927602559e+07  4.7667195827368461e+06  2.9123545717307433e+07  5.0511306027480746e+06  2.4339759726217162e+07  5.3116597498916527e+06  1.9869754611595992e+07  6.0956817739168862e+06  1.6282085583469231e+07  6.8027835199798718e+06  1.2792352570352048e+07  6.5031496823160285e+06  9.7674327078887951e+06  6.5087111899225796e+06  7.7623960294356477e+06  9.4223360140480027e+06  5.6181841458446635e+06  6.7590380100197056e+06  4.8283378272092855e+06  9.7212847443868835e+06  3.7254483584280158e+06  5.4713156994365668e+06  3.3238339623438958e+06  8.4082525884450302e+06  3.3786447670635958e+06  6.7232854295702605e+06  3.5103761571868756e+06  9.9795907603622936e+06  3.8460720218444178e+06  6.9876698595911786e+06  4.4316930716007054e+06  9.8210503791656028e+06  6.2843467698010737e+06  9.8947859998645391e+06  7.5147573136212965e+06  1.1014621028510908e+07  9.2904269464654792e+06  1.1113483156249372e+07  1.1559320013964294e+07  1.0387476515079012e+07  1.3598182935191536e+07  8.4870421426790766e+06  1.5967532141276719e+07  7.1429147705743928e+06  1.7877994560114808e+07  4.6906158887327015e+06  1.9860845503839999e+07  2.0127552758044505e+06  2.0745712154773355e+07  8.0388069958867703e+05  2.1796354230248548e+07  2.8677771118150703e+06  2.1854315627788756e+07  4.9458542072383137e+06  2.2179876183251787e+07  6.2784490574277919e+06  2.1443453881607018e+07  7.1198859072510805e+06  1.9863750644278310e+07  7.1015991190380594e+06  1.8285877469042592e+07  5.7818989240103289e+06  1.6139472213182986e+07  4.2726496178477453e+06  1.4050773627646929e+07  1.2827369291386562e+06  1.1498858182562014e+07  4.6997815174202258e+06  9.5583203748710752e+06  1.2363627980607580e+07  8.1201922274603508e+06  1.9816710474050120e+07  7.2226646272028862e+06  3.0060079237198364e+07  6.9191973714028765e+06  3.8979046391344093e+07  7.2202863714382984e+06  4.5014632258820221e+07  7.9255943750351854e+06  4.7891492689403318e+07  8.6324492918894663e+06  4.6493795484321967e+07  9.4567391661717035e+06  4.3361269944415212e+07  9.7188925286749899e+06  3.7468349074649930e+07  1.0242104783432703e+07  3.4742281485037275e+07  1.0310722240043571e+07  3.1287109242705468e+07  9.9860411203434877e+06  3.1206096368793923e+07  9.5048393484666441e+06  3.3105635590945322e+07  8.8772442428534683e+06  3.6869800131067842e+07  8.0864276433020476e+06  4.3169046650977083e+07  7.2365217449911665e+06  4.7717032784496151e+07  6.3005232481356859e+06  5.2881154579430550e+07  5.3977564206576040e+06  5.6411129758522302e+07  4.4710173022675430e+06  5.2376247414097935e+07  3.6788279331266740e+06  4.8641275050860293e+07  2.9071499646559330e+06  3.7853507484129384e+07  2.2521366000336842e+06  2.3730144090579107e+07  1.7046456513949335e+06  6.7612254656966403e+06  1.3141411556815000e+06  1.0386584582701430e+07  9.5897148309406475e+05  2.7632670481187079e+07  7.4648041415417276e+05  4.3277805317871347e+07  6.0916378083021624e+05  5.7057571539505392e+07  5.5452799486328801e+05  6.8123504766996041e+07  5.5772695044638356e+05  7.6896412560587838e+07  6.2019070270570344e+05  8.1365941732661918e+07  7.7392498457462352e+05  8.5164038825977638e+07  9.9106559936732566e+05  8.3563671130917594e+07  1.2940238350688131e+06  8.1512265722537383e+07  1.8899001942089819e+06  7.6424130956582949e+07  2.2702666100934162e+06  6.9006160027794570e+07  3.0479814582473631e+06  5.7890313007728972e+07  3.8064340086029195e+06  4.8004072934266552e+07  4.6726221255048653e+06  3.4784376243992925e+07  5.5855216375913061e+06  2.1787427588131256e+07  6.4031691801700750e+06  1.3182283321502054e+07  7.1139284773579203e+06  5.7221670520921424e+06  7.7584447021433646e+06  1.1640737365472578e+06  7.8902560592625812e+06  3.1115163275153688e+06  7.6946711965796100e+06  5.4879285355029451e+06  7.0426032178974021e+06  1.5328059256557050e+08  8.3047185002643868e+07  1.5868115969663379e+08  5.2116694294583961e+07  1.1332506744732746e+08  3.7667678672297679e+07  9.4640409043210074e+07  2.7158665396549109e+07  9.2012947354296714e+07  1.8246851581609108e+07  8.2686611688286617e+07  1.2204197195921915e+07  7.7371042075607598e+07  7.0700538715789169e+06  6.6175907116235927e+07  3.3049431677750917e+06  5.4433379686375044e+07  1.0364126684648038e+06  3.9701038274098568e+07  9.1641911885534413e+05  2.6504142698814254e+07  2.7891762932108534e+06  1.1520716264136307e+07  3.4375557241392704e+06  3.7363651921185539e+06  4.3385989338663705e+06  1.3950458822540194e+07  4.7791886842114599e+06  2.5113273759162024e+07  5.0365394541811375e+06  3.7426653242780626e+07  5.1974550102787428e+06  4.0575952509188160e+07  5.3083405418201564e+06  4.4039415200460762e+07  5.0575493766926210e+06  4.4772461088506244e+07  5.0821876434201207e+06  4.4992601220513165e+07  4.7396562744953167e+06  4.3400926188963175e+07  4.5423503763808915e+06  3.9519630500507712e+07  4.2806424639580315e+06  3.5366440718906961e+07  3.9863538536411216e+06  3.3887325793260403e+07  3.7018385832780725e+06  2.9587589672257155e+07  3.4147054905473073e+06  2.4830478501700915e+07  3.1731502386603714e+06  2.2117090333643194e+07  2.8791471497353381e+06  1.8144310237445515e+07  2.7138874656878398e+06  1.3188017292921960e+07  2.4313137281742315e+06  8.7446677669116966e+06  2.3401320857557594e+06  1.9038284265373699e+07  2.1023749061143235e+06  1.3175530234722024e+07  1.9960068610272275e+06  6.3655902462066244e+06  1.8859690839458217e+06  2.8123132356220912e+06  1.7256011877851065e+06  6.7818500844574918e+05  1.6817244442020005e+06  9.0508961644434987e+05  1.5963900763235150e+06  2.4405695327419140e+06  1.5325739430958538e+06  3.7155685633882284e+06  1.4785774836368349e+06  4.7692835496098390e+06  1.4486850075137806e+06  5.7673574837299930e+06  1.4126243566693824e+06  6.7987645941698467e+06  1.3997130064928907e+06  7.3662707197884060e+06  1.3743436336164314e+06  8.1726260377144078e+06  1.3700441775459130e+06  8.8012494890201073e+06  1.3591848886227049e+06  9.3697514354130942e+06  1.3478560337422781e+06  9.9668207322458401e+06  1.3342794272098534e+06  1.0361264883402850e+07  1.3297549510260916e+06  1.0734254432527207e+07  1.2978142135915747e+06  1.0971787646024698e+07  1.2955593621541415e+06  1.1402041986354504e+07  1.2657985967369652e+06  1.1743572927183570e+07  1.2477359781312929e+06  1.1522670115932591e+07  1.2086130960191598e+06  1.2036900592909738e+07  1.1898617105003551e+06  1.2175294693786133e+07  1.1652105577248130e+06  1.2265920681877565e+07  1.1502373787678627e+06  1.2433176247660950e+07  1.1368650241026531e+06  1.2553617441272521e+07  1.1468301591891230e+06  1.2642455814528147e+07  1.1311868566132227e+06  1.2978830077902818e+07  1.1337682289278391e+06  1.3143808936069153e+07  1.1946096377804677e+06  1.3631791616842531e+07  1.2705429984237475e+06  1.3730002829032017e+07  1.4116250327395946e+06  1.4727002104556227e+07  1.5767828575157600e+06  1.4326784648714961e+07  1.9436236063002474e+06  1.4912268814486803e+07  2.0148412840465251e+06  1.5841446554897262e+07  2.4574668054827689e+06  1.6147037583378918e+07  2.9747658201955128e+06  1.6751370019423438e+07  3.5335461100680968e+06  1.7461716202955648e+07  4.4431372426229957e+06  1.7984166893047392e+07  5.1691974810081189e+06  1.8021247262314543e+07  6.5146833849226721e+06  1.9213198463921111e+07  7.5809978425898012e+06  1.4426524009459725e+07  9.2000876977559980e+06  1.6256327370880613e+07  1.1810801365051027e+07  1.2143618943294071e+07  1.2658232142271468e+07  2.1843939143266685e+07  1.6194024875892151e+07  6.1514705414081048e+06  1.8477051411224652e+07  9.3226959583987612e+06  2.1181651858844060e+07  1.7468256139136939e+06  2.5532209755889494e+07  2.9821596668340182e+06  2.7984797444672842e+07  1.2944090393431332e+07  3.1378568577045038e+07  2.2947447532723144e+07  3.5983162878590658e+07  1.4416758034573190e+07  3.8937635842679329e+07  2.7886371906296939e+07  4.0725741772085905e+07  4.2588121932068199e+07  4.5091670238593847e+07  6.6144363815935105e+07  4.6131551771033555e+07  9.1184326282637119e+07  4.6946987891821705e+07  1.1323179825399408e+08  4.5237482760920592e+07  1.2958135767775083e+08  6.4336307967809223e+07  1.3798483845620975e+08  4.4416258098874494e+07  1.4737312833941537e+08  6.7391197643396646e+07  1.3485117773372436e+08  2.8342675896357846e+07  1.8084638447114077e+08  3.8485490467565663e+07  2.7358335194343579e+08  -4.4146101176923403e+05  3.9379056924249625e+08  5.4390497180435538e+07  3.5176382913894004e+08  1.1461976039086823e+08  2.1112449377025700e+08  1.1494029599186657e+08  1.5902095451018181e+08  1.3686190009974632e+08  1.3123838149792571e+08  1.4572781406866792e+08  6.9042903488211170e+07  1.3560582786838930e+07  9.5129289100924712e+06  5.8667907635400929e+06  3.3835747375942338e+06  1.9808236138389981e+06  8.6872571322243661e+05  7.6124262433261250e+05  8.8290464738685673e+05  9.6564518769853283e+05  1.2515932057638592e+06  1.3921530082347672e+06  5.0715955004992587e+06  7.0718400827223053e+06  1.6228849020405080e+07  3.1077116423315212e+07  2.3250493807523333e+07  1.9560654537503097e+07  1.8708250213277498e+08  3.3524010798242230e+07  4.4750105866982728e+07  1.3875125554048955e+07  1.1167782760909444e+07  8.3285086185093746e+06  5.4320513924381854e+06  2.6296663927789223e+06  4.4240597539524618e+05  1.9776566909262836e+06  3.7970448579755761e+06  5.0969341597736543e+06  6.5263386502491692e+06  5.3752762363765594e+06  3.0260334179446199e+06  9.5545488388872445e+06  1.7952176500363506e+07  3.2669496176360298e+07  2.0885467940441560e+07  1.8180726210628204e+07  1.7938836200168960e+07  4.7321931765923696e+06  8.8885202919939496e+06  1.0423983491998397e+07  1.1933088803376336e+07  5.4627920602490706e+06  6.0455749604456332e+06  1.2723961887268735e+07  5.7429390327490233e+06  3.4407683463697624e+06  1.4941410150538184e+07  2.8485410649762815e+06  3.5236462723001740e+06  3.3447730588287567e+06  1.9345816579968117e+07  5.3017614407463185e+06  3.3881006707895217e+06  9.4381979384016227e+06  1.2276502793184698e+07  2.7835172586494093e+06  7.7667677292940589e+06  8.5512785914098360e+06  1.4888976919908109e+06  3.6592745512361610e+06  1.4504466433437441e+06  3.4564249328673314e+06  4.1976074703608826e+06  1.7212397217550382e+07  1.7460708217797358e+07  8.7065495658963863e+06  3.0343179959381361e+07  5.6507944384864867e+06  4.1861659118173961e+06  3.7183303848650148e+06  2.8525772579596406e+06  2.1791909580059065e+06  1.6533141478261109e+06  1.4586099002642799e+06  1.3591264241923734e+06  1.3009043974216925e+06  1.5970063889638041e+06  1.2411472603948768e+06  1.1999343800960109e+06  1.2022490390212729e+06  1.3668936761132502e+06  1.8358656710233453e+06  2.8051322158757499e+06  9.0833212683467358e+07  4.9314801281595072e+06  7.5947617888483405e+06  1.2572784145435978e+07  1.9179404370946284e+07  2.5108848452857256e+07  2.7089488178771835e+07  5.6960240783736296e+06  5.1542239597418830e+06  6.8730391244747043e+06  3.1526386577362780e+07  3.5386409393022005e+06  4.0677994102889830e+06  4.3418140117410375e+06  8.5748773970102258e+06  3.2546439725878686e+07  3.7610281577962507e+06  1.0375174378952020e+06  2.2750013013457712e+06  1.8095963881582446e+07  3.2707421840848327e+07  2.2564405350177515e+07  7.5802715309890155e+06  6.5958960275273910e+06  6.2885357983348127e+06  8.4442190696076397e+06  1.0619273666859008e+07  7.1557488036896020e+07  1.3823619415958017e+07  3.6006472612639770e+07  4.5728471187825285e+07  6.5213731794807408e+06  6.1654202474655658e+06  6.1206845919664949e+05  1.4864836965644680e+07  5.6413638558624079e+06  4.6667258448522482e+06  4.7077464196192902e+06  7.8282726707248874e+06  5.6562281737798586e+07  2.6025782290768870e+06  3.2436544763893192e+06  3.1611681581490818e+07  3.7612380735081792e+07  1.9158314311160445e+06  8.7396535072603375e+06  1.1875976981414998e+07  3.2778678359393743e+06  1.4014802836228020e+07  2.8247212837697495e+07  2.5866923101458699e+07  3.3829050525728635e+07  4.8599663287418615e+06  3.7117388792026035e+07  7.4561358091501538e+06  2.2393589671520484e+06  2.2576302553851954e+06  2.0733439629650656e+07  4.4971480427463017e+07  2.8851419067271002e+07  3.9974442347359993e+06  6.7458173671399681e+06  6.4400086535329616e+05  3.9227137140665026e+06  4.9719477907853596e+07  9.5436935610660054e+06  4.0506453531977937e+07  1.5502862727524761e+07  1.1106390067701962e+07  4.8941946560164191e+07  1.0702893925311077e+07  1.9450486024306979e+07  1.2398382571751643e+07  3.1181312879170157e+07  1.1089264629628772e+06  1.1056388668131542e+06  4.2996304209251124e+06  4.1684822615739055e+07  1.3400432556261024e+07  3.1542535638359025e+07  1.9643573551144470e+07  1.0433301445398686e+06  1.2559591010944400e+07  2.2742222255350299e+07  5.7385672505001491e+06  1.1339301387653251e+06  8.8200473151995931e+06  1.0436292381376617e+07  9.7038630690170273e+07  6.2729094313147880e+07  6.7315297382797956e+07  4.5406525451199628e+07  4.5900020889611669e+07  3.1432336528227709e+07  3.1277642147598237e+07  3.0242782453360427e+07  2.1412503917765051e+07  2.0961162328146379e+07  1.5370134482995242e+07  1.5886202411200806e+07  1.9412823399783567e+07  1.5842231300180361e+07  1.7058691870761231e+07  1.4168328240607621e+07  1.6012811396065610e+07  1.3437583567894092e+07  1.7855255876390126e+07  1.4893034307794170e+07  1.3708108549291754e+07  1.9540092701152779e+07  1.6707449504255131e+07  1.1941720518635862e+07  1.6654514700919073e+07  9.8548329830423500e+06  2.1682725350109942e+07  1.6280238900943035e+07  2.6194482979486603e+07  6.4244541582081327e+06  1.0256620917677186e+07  1.0786540335794922e+07  2.7158264172945268e+07  1.7498809607618406e+07  2.0440772746673528e+07  1.3312515722690455e+06  2.3221969878771412e+06  3.4759088221546975e+06  1.9014667997779723e+07  1.3563699224195523e+07  1.3434176632764407e+07  1.3680797674272466e+07  1.4736134126502624e+07  1.3164873944312576e+07  1.6253512956598990e+07  1.4186675688777409e+07  1.9008577431230277e+07  1.7085499241037305e+07  2.3787617210409660e+07  1.8457006987398755e+07  1.4334609816036327e+07  1.5798042169802884e+07  2.4417588981077563e+07  1.2711541000153221e+07  1.3204149915513506e+07  1.5305588116613094e+07  1.2711740348751318e+07  1.0965750282829178e+07  1.0434036824259223e+07  1.1255377242897201e+07  9.4713955354186688e+06  8.7180657582733911e+06  8.0191541557664825e+06  7.3134411718241088e+06  6.8310107904664660e+06  7.1529660191930598e+06  6.2420115940476507e+06  6.2182296408943962e+06  6.3416912239882536e+06  5.5596866009559697e+06  5.3611993672342570e+06  9.6496497576498184e+06  1.1261516720175693e+07  5.6340650950876614e+06  5.0230257540215598e+06  2.3710531514644563e+07  1.4883265347352123e+07  7.5364731390449423e+06  6.5959441846254244e+06  1.4811890662309468e+07  1.3140035685070269e+07  5.6813951164449314e+06  2.0879785203874388e+06  1.6018997498476909e+07  6.2666434595054006e+06  9.1498322320546750e+06  7.9676017102744635e+06  2.5142805281695701e+07  8.8584054170178855e+05  1.4866712780670237e+06  5.5626389263434643e+06  6.6414891415279983e+06  1.3581647629117671e+07  4.9772847911895905e+06  7.0673834873093739e+06  6.4400005985638667e+06  5.2049375219621649e+06  5.1821438577564908e+06  5.9886451487511331e+06  4.9400219131330755e+06  4.2123553044495583e+06  4.1338114177967878e+06  3.2565035363854086e+06  3.4493426935629337e+06  4.0819781308837943e+06  3.3501634746854673e+06  3.9300027145164823e+06  3.2304077012312985e+06  3.7546489092693180e+06  3.0584939585052547e+06  3.6849111181328828e+06  2.5010590204804391e+06  2.3677018858431000e+06  1.7064939299519476e+06  4.2565685908337310e+06  4.0775442162103127e+06  3.3782930584255760e+06  3.8026236443805709e+06  4.5467760922095040e+06  2.7373930115549467e+06  1.6512882579664215e+06  1.2546420273410876e+06  1.6087951773987478e+06  1.4316382738046129e+06  4.6666245374968853e+06  4.6471915651264964e+06  4.6460440045212461e+06  2.1519077398491441e+06  1.8800876947395094e+06  4.5865286838252526e+06  3.0492751467113262e+06  3.3193469576484878e+06  4.6176236752613559e+06  4.4607561640535900e+06  2.3475534060474294e+06  3.8869939474106999e+06  3.2219088857283439e+06  3.1574291608296763e+06  3.3139426991158142e+06  3.9593657528553461e+06  1.3246939518343888e+06  2.4589917331159739e+06  2.0961972958610058e+06  4.7427651515898854e+06  1.0395705583132604e+06  1.7208321120174492e+06  5.4373547165391212e+06  1.9523896905314350e+06  2.5391609519380787e+06  4.1390922741317670e+06  3.0717358765615076e+06  1.7430306739452058e+06  8.4981984340952418e+05  4.5276840485427938e+06  4.4470229518055059e+06  1.2061681443240256e+06  4.0450451796903508e+06  3.9746713180848765e+06  2.6713385632643695e+06  2.2487336863974221e+06  1.8754392401081396e+06  4.3314039300194867e+06  1.0885334307015251e+07  1.3363081286885878e+07  1.2033430580539007e+07  8.7180936646737587e+06  8.7098768644700944e+06  9.3432311649143379e+06  7.6057345825258316e+06  9.2904792166221850e+06  8.0222541725514419e+06  9.7840441750707813e+06  8.6101276682570148e+06  7.4753658227961771e+06  8.0986088009335818e+06  7.4719346319265412e+06  7.9945555370087484e+06  7.4351665393661894e+06  7.8627713211617256e+06  7.4682764580196878e+06  7.4350679699728871e+06  7.0379561380482651e+06  7.5973148016104670e+06  7.0340148313287431e+06  6.7379061794567993e+06  6.1057187750049112e+06  8.5787788760891017e+06  5.5865044428678462e+06  5.2026427631122153e+06  5.6818337228920208e+06  4.5699403499145433e+06  4.3383168261169931e+06  3.7999248960487330e+06  3.7096562503061374e+06  3.3930393710319018e+06  3.2992217475587712e+06  3.5090825644814484e+06  3.2972021698953100e+06  3.1921340797162699e+06  3.3834166071840385e+06  3.2545102183183730e+06  3.5395301136981356e+06  3.3373140448844256e+06  3.0138461924434188e+06  3.0401404756487077e+06  2.6771411649615588e+06  3.7126058274177294e+06  2.5170786460714913e+06  2.3141161436057207e+06  3.8524627112978850e+06  4.0153798193358760e+06  4.0424521620484553e+06  4.1547221809936184e+06  4.1653584700755579e+06  4.0688990004996425e+06  3.9787210131009691e+06  1.9777463704157630e+06  2.3151378326400532e+06  2.0318499748065672e+06  2.5427164870184851e+06  2.9023535158150522e+06  1.1572229056165483e+07  6.7638451754985573e+06  6.5366402824446512e+06  6.0178494521834906e+06  5.8689529407509835e+06  6.8525377203224748e+06  4.1404938555254820e+06  5.5072134724572329e+06  5.3039913780371025e+06  3.8632373030624287e+06  3.7925913773126686e+06  1.6780346089255405e+06  3.4600547630015202e+06  3.4205852526257043e+06  3.4226850236991891e+06  3.2895197762477216e+06  7.3101563983473312e+06  1.0195290213840012e+07  9.6193969651116319e+06  3.0002620895892489e+06  2.9608298804983306e+06  3.3937746181884590e+06  6.1526488559472328e+06  3.5710760444498039e+06  3.9135022359981299e+06  6.5634109869732941e+06  4.5422394903010335e+06  2.4588533198628882e+06  1.0444374347563408e+07  8.8950856525969356e+06  