<?xml version="1.0"?>
<VTKFile type="UnstructuredGrid"  version="0.1"  >
<UnstructuredGrid>
<Piece  NumberOfPoints="1799" NumberOfCells="3156">
<Points>
<DataArray  type="Float64"  NumberOfComponents="3"  format="ascii">1.694065894508601e-21 0.008447317744001559 0  0 0.006243487017789186 0  0 0.01 0  0.01 0.01 0  0.01 0.004739447698251261 0  0.01 0.003038811340045742 0  0.01 0 0  0 0 0  0.00972274937591714 0.00446136709 0  0.009653726258356362 0.004545183154286949 0  0.009783606631901408 0.0043734488461064 0  0.009577812281436313 0.004624366443043088 0  0.009835143529851395 0.004282096254618384 0  0.009496374895431106 0.004698536913086191 0  0.009876351429728553 0.004188097333533943 0  0.009410843899527923 0.004767474310794485 0  0.009906389591104073 0.004092339945416686 0  0.009322680015752169 0.00483112308721043 0  0.009924603388293412 0.003995788691361544 0  0.009233342881914028 0.004889592860194898 0  0.009930538269388231 0.00389945963832429 0  0.009144259222736564 0.004943154406398476 0  0.009923949134101986 0.003804393533973133 0  0.009056791952980949 0.004992231280310688 0  0.009904804916195522 0.003711628202889073 0  0.00897221094262878 0.005037387269757166 0  0.009873288272257268 0.003622170840092915 0  0.008891666132610079 0.005079310004121139 0  0.009829790396922524 0.003536970921943865 0  0.008816163631214721 0.005118791130579932 0  0.009774901102315603 0.003456894440322572 0  0.008746545347644217 0.005156703562277342 0  0.009709394413691105 0.003382700134020289 0  0.008683472631978471 0.005193976378365099 0  0.009634210041128223 0.00331501834219343 0  0.008627414292309099 0.005231568017322153 0  0.009550431186043644 0.003254333039822774 0  0.008578639252366998 0.005270438450342868 0  0.009459259228807002 0.003200967535951617 0  0.008537213999305775 0.005311521049719365 0  0.00936198591772306 0.003155074224035663 0  0.008503004854204898 0.00535569487730484 0  0.009259963738278846 0.00311662867229655 0  0.008475684980220988 0.005403758110057852 0  0.009154575183414377 0.003085428233059718 0  0.008454745928046752 0.005456403293512485 0  0.009047201669650919 0.00306109523639258 0  0.008439513408278112 0.005514195070427174 0  0.008939192849631329 0.003043084717779311 0  0.008429166878152986 0.005577550971903466 0  0.008831837058876933 0.003030696514962359 0  0.008422762438422462 0.005646725783411865 0  0.008726333603687408 0.003023091458314896 0  0.008419258457098896 0.005721799910265017 0  0.008623767548895558 0.003019311274956418 0  0.008417543272430451 0.005802672068315741 0  0.008525087599857118 0.003018301731897273 0  0.008416464279248125 0.00588905651847861 0  0.008431087594226352 0.003018938460180701 0  0.008414857671986093 0.005980484950740676 0  0.008342392027717107 0.003020054832380215 0  0.008411578104923951 0.00607631300744762 0  0.008259445936461489 0.003020471211663848 0  0.008405527535824455 0.006175731319709577 0  0.008182509349292211 0.003019024853329008 0  0.008395682542970321 0.006277780817654691 0  0.008111656409014527 0.003014599720199745 0  0.008381119447013561 0.006381371967788657 0  0.008046779145346881 0.003006155472077048 0  0.008361036626979524 0.006485307491577932 0  0.007987595766591686 0.002992754906602592 0  0.008334773492744059 0.006588308031041598 0  0.007933663225123278 0.002973589164041123 0  0.008301825662481763 0.006689040151823762 0  0.007884393706229835 0.002948000060762873 0  0.008261855990795578 0.006786146013815808 0  0.007839074593337327 0.002915498984345503 0  0.00821470119903896 0.006878273995427361 0  0.00779689137756701 0.002875781865550529 0  0.008160373971076945 0.006964109531182152 0  0.007756952908035942 0.002828739836943341 0  0.008099060492600814 0.007042405414120494 0  0.007718318323066783 0.002774465292296384 0  0.008031113527237115 0.007112010824752832 0  0.007680024962909086 0.00271325317257295 0  0.00795704123519566 0.007171898376800313 0  0.007641116542652925 0.002645597420482335 0  0.007877492047271241 0.007221188515997342 0  0.007600670860259881 0.002572182663460059 0  0.007793236005976425 0.007259170670701667 0  0.007557826329114609 0.002493871301548735 0  0.007705143073969071 0.007285320630435001 0  0.007511806656826274 0.002411686289155665 0  0.007614158985545023 0.007299313718867113 0  0.007461943041351158 0.002326790005260706 0  0.007521279277912055 0.0073010334289404 0  0.007407693320609463 0.002240459702730237 0  0.007427522183731196 0.007290575297323677 0  0.007348657590981677 0.002154060111582997 0  0.007333901093897399 0.007268245910489354 0  0.007284589901391725 0.00206901384126507 0  0.007241397309057064 0.007234557052593699 0  0.007215405730813352 0.001986770281484875 0  0.007150933789699272 0.00719021512310135 0  0.007141185065425865 0.001908773738582196 0  0.007063350588039396 0.007136106066830752 0  0.007062171004568673 0.001836431563827099 0  0.006979382601016691 0.007073276167978721 0  0.006978763939261549 0.001771083030979474 0  0.006899640223662019 0.007002909160025809 0  0.006891511460488134 0.001713969702858609 0  0.006824593407373458 0.006926300192755933 0  0.006801094263833782 0.001666207991002947 0  0.006754559540147956 0.006844827273742502 0  0.006708308419676155 0.00162876455961884 0  0.006689695467758148 0.006759920862683462 0  0.006614044471369561 0.001602435156224392 0  0.006629993868701035 0.006673032341407502 0  0.006519263905397843 0.001587827368384263 0  0.006575284084148806 0.006585602109130518 0  0.006424973605244305 0.00158534771074889 0  0.006525237389907268 0.006499028060960921 0  0.006332198953034525 0.001595193341602671 0  0.006479376583406328 0.006414635197532647 0  0.006241956278528544 0.001617348595877673 0  0.006437089647876208 0.006333647085242707 0  0.006155225372873471 0.001651586404869184 0  0.006397647150892512 0.00625715984059454 0  0.00607292278421836 0.001697474554571888 0  0.006360222938045857 0.006186119249742206 0  0.005995876593836629 0.001754386617555196 0  0.006323917597038065 0.006121301557042314 0  0.005924803335248409 0.001821517280492992 0  0.006287784095183865 0.006063298366166584 0  0.005860287665879005 0.001897901683632007 0  0.0062508549359344 0.00601250599634399 0  0.00580276533234513 0.001982438292224905 0  0.006212170139093256 0.005969119527087292 0  0.005752509888229881 0.002073914735631396 0  0.006170805325914 0.005933131650016665 0  0.005709623529238961 0.002171035979469365 0  0.00612589918486164 0.005904336328960144 0  0.005674032307267846 0.002272454141595308 0  0.006076679606648487 0.005882337152288339 0  0.005645485874731519 0.002376799225137041 0  0.006022487807921907 0.005866560147323738 0  0.005623561796267508 0.002482710022195841 0  0.005962799810943057 0.005856270718467968 0  0.005607674349474454 0.002588864440638754 0  0.005897244710577686 0.005850594271079678 0  0.005597087622580383 0.002694008523617222 0  0.005825619238346946 0.005848539994562327 0  0.005590932607696336 0.002796983466621648 0  0.005747898224220681 0.005849027202760175 0  0.005588227886339777 0.002896749989114506 0  0.005664240658026499 0.005850913569457749 0  0.005587903411768036 0.002992409485755934 0  0.005574991161285845 0.005853024553003058 0  0.00558882681266186 0.003083221464236011 0  0.005480676794268173 0.0058541832778865 0  0.005589831576859201 0.003168616870700337 0  0.005381999239242995 0.005853240133126504 0  0.005589746423825433 0.003248207007348517 0  0.005279822516415462 0.005849101357707455 0  0.005587425141631403 0.00332178785741102 0  0.005175156500976945 0.005840755911796739 0  0.005581776149243588 0.003389339747608045 0  0.00506913661529584 0.005827299978297529 0  0.005571791048314209 0.003451022394501277 0  0.004963000166879053 0.005807958501303589 0  0.005556571450340227 0.003507165495970296 0  0.004858059887934908 0.005782103244641807 0  0.005535353404530312 0.003558255139524018 0  0.004755675304028876 0.005749266942985061 0  0.005507528808027482 0.003604916402549837 0  0.004657222615643685 0.005709153217746636 0  0.005472663251911699 0.003647892613343369 0  0.004564063816013228 0.005661642037623928 0  0.005430509841895833 0.003688021823527707 0  0.004477515790388595 0.00560679061654508 0  0.005381018629732107 0.003726211110241175 0  0.004398820145347423 0.005544829757060492 0  0.005324341397676651 0.003763409378575775 0  0.004329114501762111 0.00547615576202805 0  0.00526083165129817 0.003800579369906148 0  0.004269405951942947 0.005401318148896703 0  0.005191039792677943 0.00383866959910631 0  0.004220547331062618 0.005321003506214064 0  0.005115703563750334 0.003878586942798619 0  0.004183216886472467 0.005236015928541855 0  0.005035733965268281 0.003921170581761714 0  0.004157901847560569 0.005147254551350707 0  0.004952196967785547 0.00396716796394016 0  0.004144886305359802 0.005055688779556268 0  0.004866291434383562 0.004017213401087919 0  0.004144243707482425 0.004962331860358698 0  0.004779323768077839 0.004071809843297703 0  0.004155834162682716 0.004868213491542542 0  0.004692679877608203 0.004131314293258991 0  0.004179306633167043 0.004774352179382177 0  0.004607795121646793 0.004195927228129257 0  0.004214105974540842 0.0046817280652164 0  0.004526122941701917 0.004265686293763611 0  0.004259484665915422 0.004591256926493267 0  0.004449102926905492 0.004340464426324128 0  0.004314518959085191 0.004503766026986902 0  0.004378129068627031 0.004419972442741865 0  0.00593001182314166 0.006372403387971871 0  0.005939572443554628 0.006436360317137665 0  0.005925376372385204 0.006368751471385894 0  0.005946732308607814 0.006530898816930391 0  0.005866840669782601 0.00633199119654035 0  0.00594701266737181 0.006625814903473438 0  0.005804249765180952 0.006301600770407027 0  0.005940440295727538 0.006720641436504761 0  0.00573695820405656 0.00627701458488837 0  0.005927101959384199 0.006814914480349616 0  0.00566445506679863 0.006257506825568757 0  0.005907143630376305 0.006908179927508449 0  0.005586382222683439 0.006242212086839124 0  0.005880768731714959 0.007 0  0.005502548881191342 0.006230149145824911 0  0.00584823543546249 0.007089959498878739 0  0.0054129
[...]
<PointData  Tensors="$\sigma$"> 
<DataArray  type="Float64"  Name="$\sigma$"  NumberOfComponents="9" format="ascii">-1.1850114828930285e+07 3.7786945721175000e+07 0.0000000000000000e+00 3.7786945721175000e+07 3.1113432798895061e+08 0.0000000000000000e+00 0.0000000000000000e+00 0.0000000000000000e+00 0.0000000000000000e+00  -1.7683889794345912e+07 -2.9948719424868710e+07 0.0000000000000000e+00 -2.9948719424868692e+07 1.8711693054249132e+08 0.0000000000000000e+00 0.0000000000000000e+00 0.0000000000000000e+00 0.0000000000000000e+00  9.8918415684509203e+06 1.8409137269711914e+06 0.0000000000000000e+00 1.8409137269711928e+06 1.5639089897868767e+08 0.0000000000000000e+00 0.0000000000000000e+00 0.0000000000000000e+00 0.0000000000000000e+00  6.4166124433784244e+04 4.6692539732079546e+05 0.0000000000000000e+00 4.6692539732079522e+05 5.5584742060702592e+07 0.0000000000000000e+00 0.0000000000000000e+00 0.0000000000000000e+00 0.0000000000000000e+00  -1.1850714642245771e+07 -2.7276547394438427e+07 0.0000000000000000e+00 -2.7276547394438434e+07 1.6221523628235763e+08 0.0000000000000000e+00 0.0000000000000000e+00 0.0000000000000000e+00 0.0000000000000000e+00  -1.1769734894596605e+07 6.2544599795649424e+07 0.0000000000000000e+00 6.2544599795649432e+07 2.4555750024547574e+08 0.0000000000000000e+00 0.0000000000000000e+00 0.0000000000000000e+00 0.0000000000000000e+00  2.7629894751076330e+06 4.4530781509826565e+05 0.0000000000000000e+00 4.4530781509826524e+05 9.6923621214429617e+07 0.0000000000000000e+00 0.0000000000000000e+00 0.0000000000000000e+00 0.0000000000000000e+00  1.6349729786147372e+05 1.2863513897112187e+05 0.0000000000000000e+00 1.2863513897112194e+05 5.4010029289961182e+07 0.0000000000000000e+00 0.0000000000000000e+00 0.0000000000000000e+00 0.0000000000000000e+00  2.3364148026073683e+07 1.6667951444486292e+07 0.0000000000000000e+00 1.6667951444486300e+07 3.0674354233723593e+08 0.0000000000000000e+00 0.0000000000000000e+00 0.0000000000000000e+00 0.0000000000000000e+00  5.4942425889559053e+07 2.6544527514582939e+07 0.0000000000000000e+00 2.6544527514582932e+07 1.6199067971634480e+08 0.0000000000000000e+00 0.0000000000000000e+00 0.0000000000000000e+00 0.0000000000000000e+00  -2.2245165906483926e+07 -3.8552699835191026e+07 0.0000000000000000e+00 -3.8552699835191026e+07 4.4145004389142281e+08 0.0000000000000000e+00 0.0000000000000000e+00 0.0000000000000000e+00 0.0000000000000000e+00  7.0218999851023480e+07 -3.7164502690849071e+06 0.0000000000000000e+00 -3.7164502690849099e+06 8.3983571790513262e+07 0.0000000000000000e+00 0.0000000000000000e+00 0.0000000000000000e+00 0.0000000000000000e+00  1.2201747327286778e+06 -1.0524706485785726e+08 0.0000000000000000e+00 -1.0524706485785720e+08 5.2565043225538790e+08 0.0000000000000000e+00 0.0000000000000000e+00 0.0000000000000000e+00 0.0000000000000000e+00  7.7289120337358788e+07 -4.8611304792973353e+05 0.0000000000000000e+00 -4.8611304792971670e+05 3.1373196452743173e+07 0.0000000000000000e+00 0.0000000000000000e+00 0.0000000000000000e+00 0.0000000000000000e+00  -2.1831990863393180e+07 -1.4511318838457537e+08 0.0000000000000000e+00 -1.4511318838457540e+08 5.5581190554108775e+08 0.0000000000000000e+00 0.0000000000000000e+00 0.0000000000000000e+00 0.0000000000000000e+00  -2.4855341392808534e+07 -2.7011607526018687e+07 0.0000000000000000e+00 -2.7011607526018687e+07 4.4275845028368652e+07 0.0000000000000000e+00 0.0000000000000000e+00 0.0000000000000000e+00 0.0000000000000000e+00  6.1081121089587860e+07 -1.5870024740826949e+08 0.0000000000000000e+00 -1.5870024740826949e+08 5.3490239386777216e+08 0.0000000000000000e+00 0.0000000000000000e+00 0.0000000000000000e+00 0.0000000000000000e+00  1.1549354263710111e+07 2.0240138417090986e+07 0.0000000000000000e+00 2.0240138417091001e+07 4.1198003386119492e+07 0.0000000000000000e+00 0.0000000000000000e+00 0.0000000000000000e+00 0.0000000000000000e+00  -3.0264572182140634e+06 3.2264008095057827e+08 0.0000000000000000e+00 3.2264008095057827e+08 8.6914146304067492e+08 0.0000000000000000e+00 0.0000000000000000e+00 0.0000000000000000e+00 0.0000000000000000e+00  -9.4518641413959675e+06 2.3759418457939297e+07 0.0000000000000000e+00 2.3759418457939304e+07 1.2843830468897950e+07 0.0000000000000000e+00 0.0000000000000000e+00 0.0000000000000000e+00 0.0000000000000000e+00  -2.6395583482436845e+08 5.6825009538459770e+07 0.0000000000000000e+00 5.6825009538459770e+07 1.5341505849081030e+09 0.0000000000000000e+00 0.0000000000000000e+00 0.0000000000000000e+00 0.0000000000000000e+00  -1.8655515712243829e+07 -9.0685264517828633e+04 0.0000000000000000e+00 -9.0685264517832169e+04 -1.8629443759465724e+07 0.0000000000000000e+00 0.0000000000000000e+00 0.0000000000000000e+00 0.0000000000000000e+00  2.8045313840595946e+07 -2.3272864984243318e+08 0.0000000000000000e+00 -2.3272864984243321e+08 1.0965982826996419e+09 0.0000000000000000e+00 0.0000000000000000e+00 0.0000000000000000e+00 0.0000000000000000e+00  -2.2938079183937386e+07 8.5356767832399700e+06 0.0000000000000000e+00 8.5356767832399718e+06 -3.1136830756969913e+06 0.0000000000000000e+00 0.0000000000000000e+00 0.0000000000000000e+00 0.0000000000000000e+00  -7.0202627970148787e+07 1.1125716020486152e+08 0.0000000000000000e+00 1.1125716020486149e+08 5.5522447343867707e+08 0.0000000000000000e+00 0.0000000000000000e+00 0.0000000000000000e+00 0.0000000000000000e+00  -2.8363856058651485e+07 1.6516469727878354e+07 0.0000000000000000e+00 1.6516469727878358e+07 -6.9321303256210191e+06 0.0000000000000000e+00 0.0000000000000000e+00 0.0000000000000000e+00 0.0000000000000000e+00  -1.0249325410820305e+08 6.9002182631068364e+07 0.0000000000000000e+00 6.9002182631068334e+07 5.6674531343350959e+08 0.0000000000000000e+00 0.0000000000000000e+00 0.0000000000000000e+00 0.0000000000000000e+00  -2.0642221768740300e+07 7.0728369881422184e+06 0.0000000000000000e+00 7.0728369881422184e+06 -1.3860992981736645e+07 0.0000000000000000e+00 0.0000000000000000e+00 0.0000000000000000e+00 0.0000000000000000e+00  -1.4509689653647724e+08 4.9786066741166143e+06 0.0000000000000000e+00 4.9786066741166264e+06 5.1413523851811635e+08 0.0000000000000000e+00 0.0000000000000000e+00 0.0000000000000000e+00 0.0000000000000000e+00  -2.1082512407078631e+07 9.8674134816055521e+06 0.0000000000000000e+00 9.8674134816055559e+06 -6.0318708576235278e+06 0.0000000000000000e+00 0.0000000000000000e+00 0.0000000000000000e+00 0.0000000000000000e+00  -1.3278585317797172e+08 -9.2982299345489860e+07 0.0000000000000000e+00 -9.2982299345489889e+07 3.8724993093662584e+08 0.0000000000000000e+00 0.0000000000000000e+00 0.0000000000000000e+00 0.0000000000000000e+00  -1.7871446706823293e+07 1.0594317093372572e+07 0.0000000000000000e+00 1.0594317093372572e+07 -4.6377204774003280e+06 0.0000000000000000e+00 0.0000000000000000e+00 0.0000000000000000e+00 0.0000000000000000e+00  -1.2507293041940878e+08 -1.8468629856193396e+08 0.0000000000000000e+00 -1.8468629856193396e+08 2.6442398495712039e+08 0.0000000000000000e+00 0.0000000000000000e+00 0.0000000000000000e+00 0.0000000000000000e+00  -9.6682838888803013e+06 8.6093081950416770e+06 0.0000000000000000e+00 8.6093081950416788e+06 -5.2989728528022226e+06 0.0000000000000000e+00 0.0000000000000000e+00 0.0000000000000000e+00 0.0000000000000000e+00  -1.0718858518295277e+07 -1.8146809880777344e+08 0.0000000000000000e+00 -1.8146809880777344e+08 1.2667575972715113e+07 0.0000000000000000e+00 0.0000000000000000e+00 0.0000000000000000e+00 0.0000000000000000e+00  -1.0001340327933412e+07 7.7887952897787234e+06 0.0000000000000000e+00 7.7887952897787262e+06 -4.6511540874519777e+06 0.0000000000000000e+00 0.0000000000000000e+00 0.0000000000000000e+00 0.0000000000000000e+00  -4.0777076035631818e+08 -1.2910556646957718e+07 0.0000000000000000e+00 -1.2910556646957718e+07 -1.0674961313933338e+08 0.0000000000000000e+00 0.0000000000000000e+00 0.0000000000000000e+00 0.0000000000000000e+00  -7.7798272566849971e+06 6.2844605659731934e+06 0.0000000000000000e+00 6.2844605659731925e+06 -5.2099112112253997e+06 0.0000000000000000e+00 0.0000000000000000e+00 0.0000000000000000e+00 0.0000000000000000e+00  -2.0153496293354398e+08 -1.6413997252269626e+08 0.0000000000000000e+00 -1.6413997252269626e+08 -4.0648326428517416e+07 0.0000000000000000e+00 0.0000000000000000e+00 0.0000000000000000e+00 0.0000000000000000e+00  -5.4327720004993593e+06 5.1991129901012182e+06 0.0000000000000000e+00 5.1991129901012145e+06 -5.9753141834445577e+06 0.0000000000000000e+00 0.0000000000000000e+00 0.0000000000000000e+00 0.0000000000000000e+00  -2.2323273884198409e+08 -6.1534147047612362e+07 0.0000000000000000e+00 -6.1534147047612362e+07 -8.3879570779100642e+07 0.0000000000000000e+00 0.0000000000000000e+00 0.0000000000000000e+00 0.0000000000000000e+00  -4.9128201537978137e+06 4.5887727133773006e+06 0.0000000000000000e+00 4.5887727133773016e+06 -7.5690353566531921e+06 0.0000000000000000e+00 0.0000000000000000e+00 0.0000000000000000e+00 0.0000000000000000e+00  -1.0378118019416505e+08 -6.5146504576789126e+07 0.0000000000000000e+00 -6.5146504576789133e+07 -4.2332601622019783e+07 0.0000000000000000e+00 0.0000000000000000e+00 0.0000000000000000e+00 0.0000000000000000e+00  -2.4697804762171782e+06 4.1489873896307447e+06 0.0000000000000000e+00 4.1489873896307498e+06 -8.3161857407683879e+06 0.0000000000000000e+00 0.0000000000000000e+00 0.0000000000000000e+00 0.0000000000000000e+00  -2.4895492103574362e+08 -3.9785029671751104e+07 0.0000000000000000e+00 -3.9785029671751104e+07 -7.1186706504194497e+05 0.0000000000000000e+00 0.0000000000000000e+00 0.0000000000000000e+00 0.0000000000000000e+00  -2.0091324642240328e+06 3.4281616502985866e+06 0.0000000000000000e+00 3.4281616502985875e+06 -1.0750940909898221e+07 0.0000000000000000e+00 0.0000000000000000e+00 0.0000000000000000e+00 0.0000000000000000e+00  -1.4757661066729584e+08 -3.7400879213977337e+07 0.0000000000000000e+00 -3.7400879213977352e+07 7.4507309396082694e+06 0.0000000000000000e+00 0.0000000000000000e+00 0.0000000000000000e+00 0.0000000000000000e+00  -3.3843657927549658e+06 2.8772577094619335e+06 0.0000000000000000e+00 2.8772577094619325e+06 -1.2703936708602026e+07 0.0000000000000000e+00 0.0000000000000000e+00 0.0000000000000000e+00 0.0000000000000000e+00  -1.2037837315658559e+08 -1.7426834564820163e+07 0.0000000000000000e+00 -1.7426834564820156e+07 -2.4113259806147525e+06 0.0000000000000000e+00 0.0000000000000000e+00 0.0000000000000000e+00 0.0000000000000000e+00  -2.8435626873065233e+06 1.9277452642265619e+06 0.0000000000000000e+00 1.9277452642265616e+06 -1.5101244679378429e+07 0.0000000000000000e+00 0.0000000000000000e+00 0.0000000000000000e+00 0.0000000000000000e+00  -1.1423421941631107e+08 -7.7205748138092253e+06 0.0000000000000000e+00 -7.7205748138092272e+06 2.8476182438329645e+06 0.0000000000000000e+00 0.0000000000000000e+00 0.0000000000000000e+00 0.0000000000000000e+00  3.5148257327372639e+05 1.9327690880831422e+06 0.0000000000000000e+00 1.9327690880831426e+06 -1.8001600682892960e+07 0.0000000000000000e+00 0.0000000000000000e+00 0.0000000000000000e+00 0.0000000000000000e+00  -9.4975546571411714e+07 -4.3514616168351667e+06 0.0000000000000000e+00 -4.3514616168351704e+06 6.9682523361436336e+05 0.0000000000000000e+00 0.0000000000000000e+00 0.0000000000000000e+00 0.0000000000000000e+00  -1.7141923752258304e+06 9.2133416646242829e+05 0.0000000000000000e+00 9.2133416646242805e+05 -2.0844470423913755e+07 0.0000000000000000e+00 0.0000000000000000e+00 0.0000000000000000e+00 0.0000000000000000e+00  -7.6800616846674234e+07 -4.6707949619080722e+06 0.0000000000000000e+00 -4.6707949619080648e+06 2.0322293430701469e+05 0.0000000000000000e+00 0.0000000000000000e+00 0.0000000000000000e+00 0.0000000000000000e+00  -3.3050350949680917e+06 -3.5188754915651388e+05 0.0000000000000000e+00 -3.5188754915651417e+05 -2.1733175574917790e+07 0.0000000000000000e+00 0.0000000000000000e+00 0.0000000000000000e+00 0.0000000000000000e+00  -6.5389381602984354e+07 -1.5073300819585584e+06 0.0000000000000000e+00 -1.5073300819585586e+06 3.0920693149574846e+05 0.0000000000000000e+00 0.0000000000000000e+00 0.0000000000000000e+00 0.0000000000000000e+00  -6.4401974556808593e+05 1.8185512394895179e+06 0.0000000000000000e+00 1.8185512394895183e+06 -2.5542627828299005e+07 0.0000000000000000e+00 0.0000000000000000e+00 0.0000000000000000e+00 0.0000000000000000e+00  -5.1451651267498598e+07 1.1559876175663382e+05 0.0000000000000000e+00 1.1559876175663325e+05 -3.5132836857702432e+05 0.0000000000000000e+00 0.0000000000000000e+00 0.0000000000000000e+00 0.0000000000000000e+00  -2.7851744961334732e+06 3.5951155822475036e+06 0.0000000000000000e+00 3.5951155822475064e+06 -2.7388934576413266e+07 0.0000000000000000e+00 0.0000000000000000e+00 0.0000000000000000e+00 0.0000000000000000e+00  -4.0670466026283637e+07 -8.5757264751953201e+05 0.0000000000000000e+00 -8.5757264751953352e+05 7.1986904761405848e+05 0.0000000000000000e+00 0.0000000000000000e+00 0.0000000000000000e+00 0.0000000000000000e+00  -5.7990064314730177e+06 5.0042379609962311e+06 0.0000000000000000e+00 5.0042379609962273e+06 -2.7139623440729018e+07 0.0000000000000000e+00 0.0000000000000000e+00 0.0000000000000000e+00 0.0000000000000000e+00  -3.1067225999561626e+07 -8.2575739456802804e+05 0.0000000000000000e+00 -8.2575739456802653e+05 -2.9720022734612087e+05 0.0000000000000000e+00 0.0000000000000000e+00 0.0000000000000000e+00 0.0000000000000000e+00  -5.3845526427808572e+06 7.0210027252223920e+06 0.0000000000000000e+00 7.0210027252223957e+06 -2.7207253216119669e+07 0.0000000000000000e+00 0.0000000000000000e+00 0.0000000000000000e+00 0.0000000000000000e+00  -2.4471228990524855e+07 -1.2710190264275242e+06 0.0000000000000000e+00 -1.2710190264275277e+06 5.7187342892000379e+04 0.0000000000000000e+00 0.0000000000000000e+00 0.0000000000000000e+00 0.0000000000000000e+00  8.1607641019550466e+05 7.5243912113265609e+06 0.0000000000000000e+00 7.5243912113265600e+06 -3.8826879862943053e+07 0.0000000000000000e+00 0.0000000000000000e+00 0.0000000000000000e+00 0.0000000000000000e+00  -1.7362387512262452e+07 -2.1320331587590710e+06 0.0000000000000000e+00 -2.1320331587590715e+06 3.3437911221480905e+05 0.0000000000000000e+00 0.0000000000000000e+00 0.0000000000000000e+00 0.0000000000000000e+00  -5.2852182833006503e+06 6.8592125059800455e+06 0.0000000000000000e+00 6.8592125059800409e+06 -2.9914494085501473e+07 0.0000000000000000e+00 0.0000000000000000e+00 0.0000000000000000e+00 0.0000000000000000e+00  -1.4674257053392448e+07 -2.8312737725014817e+06 0.0000000000000000e+00 -2.8312737725014803e+06 -8.4243383956986619e+05 0.0000000000000000e+00 0.0000000000000000e+00 0.0000000000000000e+00 0.0000000000000000e+00  -2.7713810986580225e+06 3.0951782370228986e+06 0.0000000000000000e+00 3.0951782370229014e+06 -3.9368397491102576e+07 0.0000000000000000e+00 0.0000000000000000e+00 0.0000000000000000e+00 0.0000000000000000e+00  -1.0697841218102913e+07 -3.1907173481358285e+06 0.0000000000000000e+00 -3.1907173481358257e+06 -5.7346128806029307e+05 0.0000000000000000e+00 0.0000000000000000e+00 0.0000000000000000e+00 0.0000000000000000e+00  2.3867125631863102e+06 9.8831896993827876e+06 0.0000000000000000e+00 9.8831896993827894e+06 -2.6665775117972761e+07 0.0000000000000000e+00 0.0000000000000000e+00 0.0000000000000000e+00 0.0000000000000000e+00  -8.8738563865236081e+06 -3.8772470563973803e+06 0.0000000000000000e+00 -3.8772470563973831e+06 -1.5736950422839620e+06 0.0000000000000000e+00 0.0000000000000000e+00 0.0000000000000000e+00 0.0000000000000000e+00  -7.4381343930326849e+06 1.0326491774369009e+07 0.0000000000000000e+00 1.0326491774369011e+07 -2.9594173658735711e+07 0.0000000000000000e+00 0.0000000000000000e+00 0.0000000000000000e+00 0.0000000000000000e+00  -7.1534358212100621e+06 -4.8867823643934736e+06 0.0000000000000000e+00 -4.8867823643934736e+06 -2.9705278021385060e+06 0.0000000000000000e+00 0.0000000000000000e+00 0.0000000000000000e+00 0.0000000000000000e+00  -1.4880454285515614e+06 1.0262981096559774e+07 0.0000000000000000e+00 1.0262981096559769e+07 -2.0952005592175715e+07 0.0000000000000000e+00 0.0000000000000000e+00 0.0000000000000000e+00 0.0000000000000000e+00  -6.9305195190630676e+06 -5.2386841303566815e+06 0.0000000000000000e+00 -5.2386841303566778e+06 -3.8661739700133041e+06 0.0000000000000000e+00 0.0000000000000000e+00 0.0000000000000000e+00 0.0000000000000000e+00  -5.6171738421475263e+06 1.6384238092602849e+07 0.0000000000000000e+00 1.6384238092602849e+07 -2.6800770516426910e+07 0.0000000000000000e+00 0.0000000000000000e+00 0.0000000000000000e+00 0.0000000000000000e+00  -5.8245887725320030e+06 -6.2660149941888042e+06 0.0000000000000000e+00 -6.2660149941887967e+06 -5.9878177108014300e+06 0.0000000000000000e+00 0.0000000000000000e+00 0.0000000000000000e+00 0.0000000000000000e+00  -4.8735610451003294e+06 1.2339998143234547e+07 0.0000000000000000e+00 1.2339998143234549e+07 -1.7954744472423736e+07 0.0000000000000000e+00 0.0000000000000000e+00 0.0000000000000000e+00 0.0000000000000000e+00  -5.6223388605132597e+06 -7.0128425923977364e+06 0.0000000000000000e+00 -7.0128425923977410e+06 -8.5551000650272015e+06 0.0000000000000000e+00 0.0000000000000000e+00 0.0000000000000000e+00 0.0000000000000000e+00  -1.6989241393448621e+07 1.5635701759871900e+07 0.0000000000000000e+00 1.5635701759871900e+07 -1.8918771379635338e+07 0.0000000000000000e+00 0.0000000000000000e+00 0.0000000000000000e+00 0.0000000000000000e+00  -6.5491986693269527e+06 -9.5527645045292452e+06 0.0000000000000000e+00 -9.5527645045292396e+06 -1.2801778677521951e+07 0.0000000000000000e+00 0.0000000000000000e+00 0.0000000000000000e+00 0.0000000000000000e+00  -2.0334316514238600e+07 1.5480608690132579e+07 0.0000000000000000e+00 1.5480608690132571e+07 -1.5387483818661509e+07 0.0000000000000000e+00 0.0000000000000000e+00 0.0000000000000000e+00 0.0000000000000000e+00  -6.7839597548301388e+06 -1.0703840169706641e+07 0.0000000000000000e+00 -1.0703840169706656e+07 -1.7226768863977313e+07 0.0000000000000000e+00 0.0000000000000000e+00 0.0000000000000000e+00 0.0000000000000000e+00  -2.3333684291876823e+07 1.6725736658660820e+07 0.0000000000000000e+00 1.6725736658660820e+07 -1.3709072079371026e+07 0.0000000000000000e+00 0.0000000000000000e+00 0.0000000000000000e+00 0.0000000000000000e+00  -7.5310882928927140e+06 -1.3102864586141977e+07 0.0000000000000000e+00 -1.3102864586141976e+07 -2.1852474037497323e+07 0.0000000000000000e+00 0.0000000000000000e+00 0.0000000000000000e+00 0.0000000000000000e+00  -2.8721309482278183e+07 1.4569836990385599e+07 0.0000000000000000e+00 1.4569836990385599e+07 -7.4097231104481826e+06 0.0000000000000000e+00 0.0000000000000000e+00 0.0000000000000000e+00 0.0000000000000000e+00  -9.1332709195007887e+06 -1.5908879831351275e+07 0.0000000000000000e+00 -1.5908879831351245e+07 -2.8131150906780910e+07 0.0000000000000000e+00 0.0000000000000000e+00 0.0000000000000000e+00 0.0000000000000000e+00  -2.9610376298368480e+07 1.1295039742079195e+07 0.0000000000000000e+00 1.1295039742079187e+07 -4.4745341962732533e+06 0.0000000000000000e+00 0.0000000000000000e+00 0.0000000000000000e+00 0.0000000000000000e+00  -1.0949478912188640e+07 -1.8903800060787544e+07 0.0000000000000000e+00 -1.8903800060787573e+07 -3.2985973535006166e+07 0.0000000000000000e+00 0.0000000000000000e+00 0.0000000000000000e+00 0.0000000000000000e+00  -2.5611806014187381e+07 6.3182016055710129e+06 0.0000000000000000e+00 6.3182016055710102e+06 -2.3189345031762882e+06 0.0000000000000000e+00 0.0000000000000000e+00 0.0000000000000000e+00 0.0000000000000000e+00  -1.3567220704838365e+07 -2.2558652202597048e+07 0.0000000000000000e+00 -2.2558652202597048e+07 -3.8177070865664244e+07 0.0000000000000000e+00 0.0000000000000000e+00 0.0000000000000000e+00 0.0000000000000000e+00  -2.2555077254916947e+07 2.2699402985839834e+06 0.0000000000000000e+00 2.2699402985839825e+06 -9.7577021617229015e+05 0.0000000000000000e+00 0.0000000000000000e+00 0.0000000000000000e+00 0.0000000000000000e+00  -1.6386187915865680e+07 -2.5737522169929516e+07 0.0000000000000000e+00 -2.5737522169929497e+07 -4.12725807673