<?xml version="1.0"?>
<VTKFile type="UnstructuredGrid"  version="0.1"  >
<UnstructuredGrid>
<Piece  NumberOfPoints="11925" NumberOfCells="22284">
<Points>
<DataArray  type="Float64"  NumberOfComponents="3"  format="ascii">0.009106770432969287 0.0084582340381214 0  0.009141919339108864 0.008441218550270694 0  0.009203598740601114 0.008393845335784609 0  0.009248431083532146 0.008349860421943302 0  0.009296575788899144 0.008291876136114247 0  0.00934265184641383 0.008225659869648794 0  0.009393578065451109 0.008122249398276498 0  0.009424875532860347 0.008002512562814071 0  0.009449530416649156 0.007942856790653622 0  0.009467776063564975 0.007776381909547738 0  0.009496347239411999 0.007611274617662952 0  0.009499145002853376 0.007525125628140703 0  0.009496347239411999 0.007464102266759158 0  0.009467776063564975 0.007298994974874372 0  0.009449530416649156 0.007132520093768488 0  0.009424875532860347 0.00707286432160804 0  0.009393578065451109 0.006953127486145613 0  0.00934265184641383 0.006849717014773317 0  0.009296575788899144 0.006783500748307864 0  0.009248431083532146 0.006725516462478808 0  0.009203598740601114 0.006681531548637502 0  0.009141919338909114 0.006634158334151417 0  0.009106770432902705 0.006617142873950686 0  0.009057788944723618 0.006598443490950575 0  0.009035429646949504 0.006603784476015589 0  0.009003273865471631 0.006637537337391888 0  0.008992706568800921 0.006658843167954558 0  0.008972489432160457 0.006721105527638192 0  0.008943689764150664 0.006775124298212487 0  0.008927575292032289 0.006821608040201005 0  0.008858421521121648 0.006940476521074617 0  0.008818283204798657 0.006994423939357116 0  0.008742251619928807 0.007081030046222233 0  0.008689386069399707 0.007127977288024682 0  0.00865169762718865 0.007155237400276061 0  0.008598593426450953 0.007187519986677493 0  0.008503029036046951 0.007258952469496642 0  0.008441469295249169 0.007286330637148408 0  0.008404275359722921 0.007310151607682054 0  0.008340789248380142 0.007336567990292792 0  0.008278894472361808 0.007370606062816746 0  0.008227853892241668 0.007385785667750049 0  0.008178391959798996 0.007406751625964 0  0.008013447788775593 0.00743563391875675 0  0.007952261306532662 0.007456731513377061 0  0.007902010050251256 0.007466988976395871 0  0.007550251256281408 0.00748107426496475 0  0.007173366834170854 0.007466988976395871 0  0.007123115577889447 0.007456731513377061 0  0.007061929095646517 0.00743563391875675 0  0.006896984924623115 0.007406751625964 0  0.006771663215364072 0.00735919225436318 0  0.006734587636041969 0.007336567990292792 0  0.006695979899497487 0.00732259899495977 0  0.006633907589172942 0.007286330637148408 0  0.00657234784837516 0.007258952469496642 0  0.006476783457971159 0.007187519986677493 0  0.006385990815022405 0.007127977288024682 0  0.006333125264493302 0.007081030046222233 0  0.006244530865553103 0.006978164963285671 0  0.006205048905315104 0.00692211055276382 0  0.006159330552520386 0.006845248264868939 0  0.006131687120271447 0.006775124298212487 0  0.006102887452261655 0.006721105527638192 0  0.006082670315621189 0.006658843167954558 0  0.006072103018950479 0.006637537337391888 0  0.006039947237472605 0.006603784476015589 0  0.006017587939698492 0.006598443490950575 0  0.005933457545512996 0.006634158334151417 0  0.005871778143820997 0.006681531548637502 0  0.005826945800889965 0.006725516462478808 0  0.005778801095522966 0.006783500748307864 0  0.005732725038008282 0.006849717014773317 0  0.005681798818971001 0.006953127486145613 0  0.005650501351561765 0.00707286432160804 0  0.005625846467772956 0.007132520093768488 0  0.005607600820857134 0.007298994974874372 0  0.005577737985543962 0.00747666508082951 0  0.005579029645010113 0.007611274617662952 0  0.005607600820857134 0.007776381909547738 0  0.005625846467772956 0.007942856790653622 0  0.005650501351561765 0.008002512562814071 0  0.005676707781126685 0.008109686584206147 0  0.005732725038008282 0.008225659869648794 0  0.005778801095522966 0.008291876136114247 0  0.00583916892901236 0.008362423236013654 0  0.005871778143820997 0.008393845335784609 0  0.005933457545313248 0.008441218550270694 0  0.005968606451452823 0.0084582340381214 0  0.006017587939698492 0.008476935349731016 0  0.006039947427631444 0.008471594355449344 0  0.006059540775356642 0.008452005488667369 0  0.006077635869842498 0.008429097268812035 0  0.006102887452261655 0.00835427135678392 0  0.006131687120271447 0.008300252586209624 0  0.006159330552520386 0.008230128619553171 0  0.006216955363300465 0.008134900363347493 0  0.006257093679623455 0.008080952945064994 0  0.006333125264493302 0.007994346838199877 0  0.006370813706704358 0.007959962410467781 0  0.00642367925723346 0.007920139484146049 0  0.006476783457971159 0.007887856897744617 0  0.00657234784837516 0.007816424414925468 0  0.006633907589172942 0.007789046247273704 0  0.006671101524699189 0.007765225276740057 0  0.006734587636041969 0.007738808894129319 0  0.006796482412060302 0.007704770821605365 0  0.00692211055276382 0.00766245157494053 0  0.007061929095646517 0.007639742965665362 0  0.007123115577889447 0.007618645371045051 0  0.007173366834170854 0.00760838790802624 0  0.007525125628140703 0.00759430261945736 0  0.007902010050251256 0.00760838790802624 0  0.007952261306532662 0.007618645371045051 0  0.008013447788775593 0.007639742965665362 0  0.00815326633165829 0.00766245157494053 0  0.008278894472361808 0.007704770821605365 0  0.008340789248380142 0.007738808894129319 0  0.008404275359722921 0.007765225276740057 0  0.008441469295249169 0.007789046247273704 0  0.008503029036046951 0.007816424414925468 0  0.008598593426450953 0.007887856897744617 0  0.00865169762718865 0.007920139484146049 0  0.008704563177717754 0.007959962410467781 0  0.008742251619928807 0.007994346838199877 0  0.008818283204798657 0.008080952945064994 0  0.008858421521121648 0.008134900363347493 0  0.008916046331901725 0.008230128619553171 0  0.008943689764150664 0.008300252586209624 0  0.008972489432160457 0.00835427135678392 0  0.008997741014579612 0.008429097268812035 0  0.009015836109065469 0.008452005488667369 0  0.009035429456790667 0.008471594355449344 0  0.009057788944723618 0.008476935349731016 0  0.000584560956065443 0.0006566731908302978 0  0.0004648241206030151 0.0006253757234210605 0  0.0006879714274377391 0.0007075994098675775 0  0.0004051683484425679 0.0006007208396322515 0  0.0007541876939031931 0.0007536754673822622 0  0.0002386934673366834 0.0005824751927164302 0  0.0008121719797322475 0.0008018201727492608 0  7.895734593675217e-05 0.0005538767054284305 0  0.000856156893573553 0.0008466525156802934 0  0 0.0005480494466900812 0  0.0009035301080596382 0.0009083319171725436 0  0 0 0  0.000939246867973806 0.0009924623115577891 0  0.01 0 0  0.0009339058736921331 0.001014821772831462 0  0.01 0.0005571664569146784 0  0.0008914087205285403 0.001052510215042517 0  0.009937185929648241 0.0005602048678154705 0  0.0008165829145728644 0.00107776182261448 0  0.009811557788944724 0.0005824755727250804 0  0.0007625641439985681 0.001106561492130742 0  0.00964508290783884 0.0006007208396322515 0  0.0006924401773421158 0.001134204924379682 0  0.009585427135678391 0.0006253757234210605 0  0.000597211921136439 0.001191829735159762 0  0.009478253114286317 0.0006515821529859823 0  0.0005055760606428836 0.00126320124586456 0  0.00937484264291402 0.0007001169347433132 0  0.0004537270030180498 0.001310933582424631 0  0.009296063562378215 0.0007536754673822622 0  0.0004097111541863734 0.001360865186881701 0  0.00923807927654916 0.0008018201727492608 0  0.0003501684555335619 0.001451657829830455 0  0.009194094362707853 0.0008466525156802934 0  0.0002787359727144142 0.001547222220234457 0  0.009146721148221768 0.0009083319171725436 0  0.0002513578050626486 0.001608781961032239 0  0.0091110043883076 0.0009924623115577891 0  0.0002275368345290006 0.001645975896558485 0  0.009116345382589274 0.001014821785907898 0  0.0002011204519182638 0.001709462007901265 0  0.009158842483081762 0.001052510228118953 0  0.0001670823793943093 0.001771356783919598 0  0.009233668341708544 0.001077761824120951 0  0.0001247631327294741 0.001896984924623115 0  0.009287687112282839 0.001106561492130742 0  0.0001020545234543062 0.002036803467505815 0  0.009357811078939291 0.001134204924379682 0  8.096507571907495e-05 0.002097989949748744 0  0.009453039335144969 0.001191829735159762 0  7.071342713566267e-05 0.002148241206030151 0  0.009544675195638523 0.00126320124586456 0  5.669507456120024e-05 0.0025 0  0.009596524253263357 0.001310933582424631 0  7.071342713566267e-05 0.002876884422110553 0  0.009640540102095033 0.001360865186881701 0  8.096507571907495e-05 0.00292713567839196 0  0.009700082800747845 0.001451657829830455 0  0.0001020545234543062 0.002988322160634889 0  0.009771515283566994 0.001547222220234457 0  0.0001247631327294741 0.003128140703517588 0  0.009798893451218758 0.001608781961032239 0  0.0001670823793943093 0.003253768844221106 0  0.009822714421752407 0.001645975896558485 0  0.0002011204519182638 0.003315663620239438 0  0.009849130804363143 0.001709462007901265 0  0.0002275368345290006 0.003379149731582219 0  0.009883168876887099 0.001771356783919598 0  0.0002513578050626486 0.003416343667108464 0  0.009925488123551932 0.001896984924623115 0  0.0002787359727144142 0.003477903407906247 0  0.009948196732827102 0.002036803467505815 0  0.0003501684555335619 0.003573467798310248 0  0.009969286180562333 0.002097989949748744 0  0.0004097111541863734 0.003664260441259002 0  0.009979537829145744 0.002148241206030151 0  0.0004537270030180498 0.003714192045716073 0  0.009993556181720207 0.0025 0  0.0005055760606428836 0.003761924382276144 0  0.009979537829145744 0.002876884422110553 0  0.000597211921136439 0.003833295892980942 0  0.009969286180562333 0.00292713567839196 0  0.0006924401773421158 0.003890920703761021 0  0.009948196732827102 0.002988322160634889 0  0.0007625641439985681 0.003918564136009961 0  0.009925488123551932 0.0031281407035175
[...]
<PointData  Scalars="$\sigma_{VM}$"> 
<DataArray  type="Float64"  Name="$\sigma_{VM}$"  format="ascii">3.5960739251603760e+07  4.4515753261785470e+07  5.5868917925023519e+07  6.6128699065628164e+07  6.8471418634547204e+07  8.4614118821888596e+07  7.8148366386673570e+07  8.6760355426324859e+07  8.7883545142150283e+07  7.6134129619056106e+07  8.3658222693538278e+07  1.0313993040240537e+08  8.0662779172146201e+07  6.6318856503889717e+07  7.0174666069915950e+07  6.6229525896096662e+07  5.6772787348585218e+07  5.2676641067779921e+07  3.6275554272390291e+07  2.9602822604434952e+07  1.5256525733022992e+07  2.4582942857241733e+06  1.5475642519219952e+07  6.7304047321622863e+07  1.1804756175760600e+08  1.1660315016255370e+08  8.9767633253184676e+07  6.8138726181059584e+07  6.6047765286597371e+07  6.0860160195403427e+07  5.8372088892302960e+07  5.9040277015525222e+07  5.6773887306371666e+07  5.4801380569788456e+07  6.5636040907651626e+07  6.8716464157795832e+07  6.1985542447492748e+07  6.4262596170373149e+07  6.6111625222191952e+07  6.1971231107878029e+07  5.8163724794854134e+07  5.5051364777892843e+07  5.7706834592610262e+07  6.1188438242377505e+07  6.6343953557678863e+07  6.0739766768522486e+07  5.2211515235754646e+07  5.4285443677535072e+07  5.6892251783807054e+07  5.1969222049831994e+07  4.4649045582919069e+07  4.3201201090463959e+07  4.9891656598269157e+07  4.8674041232169949e+07  4.6330750643171057e+07  4.6005732946056776e+07  4.5878612677692331e+07  4.3085394148670278e+07  3.8708092513755135e+07  4.1074831973904252e+07  4.0957050740719706e+07  4.2459683952399813e+07  4.8108578256552607e+07  4.8782227672053985e+07  6.0759043134706497e+07  6.9572909034342021e+07  3.4925682272357948e+07  4.1460584027675606e+07  7.0053447799963638e+07  1.0237156713560300e+08  1.1122869820341708e+08  1.2676672027242441e+08  1.4242887434493658e+08  1.3077686376642376e+08  1.3999487967181411e+08  1.3590905370621729e+08  1.2004823904423459e+08  1.1081196034237103e+08  1.1727780975539713e+08  8.2383587789325923e+07  7.8265296840060845e+07  6.4718193532622688e+07  4.3306900727104500e+07  1.7145221506102916e+07  9.3447784390161633e+06  4.0368958236600012e+07  6.9339713866314515e+07  1.0638312755561930e+08  1.5378030904508379e+08  2.4259052427756315e+08  2.6914850067981255e+08  1.5564255360584027e+08  6.9592287891437903e+07  3.2286354964303605e+07  1.7476722774943780e+07  1.3204407915981978e+07  8.7678513966415357e+06  8.0087832039904501e+06  7.3800323140370166e+06  6.2677422284600362e+06  7.4735777155156871e+06  7.5841985953026079e+06  6.7300449329271391e+06  6.3518692900065994e+06  6.7363213944767965e+06  6.4259413843566021e+06  5.4138274146819673e+06  5.7004491887742616e+06  6.2630456566873481e+06  5.3187914923991859e+06  5.8841016760503277e+06  5.4805202289568242e+06  4.7738198158716671e+06  4.1150557033517854e+06  4.9077289599283645e+06  4.0431490670837588e+06  3.7196756775368154e+06  4.2025092596471207e+06  4.3311066945274165e+06  4.0638531510877958e+06  4.1066212053144057e+06  4.4731869631756423e+06  4.3232064721093662e+06  3.6574171060858141e+06  4.0783767954545422e+06  4.5691341732143639e+06  5.0145143916165298e+06  6.3008253979421454e+06  8.4098999535715766e+06  1.1362438866513386e+07  1.6888247199725199e+07  2.3865576704782333e+07  1.2563472119399810e+07  1.6463761981263531e+07  1.2718933682530797e+06  1.3626013246038023e+06  2.2829360224716486e+06  6.7895230034858815e+05  1.4072040220342749e+06  4.0282980554086814e+05  7.3742350156764605e+05  1.5232679038778532e+05  1.4720723116683646e+06  1.8853854666968921e+05  4.8631452286191909e+06  3.5344370187006990e+05  1.7670970542040486e+07  2.9609713703347300e+05  2.6461686436968740e+07  2.6803664098470908e+05  6.6314208454623688e+06  1.7022947502994709e+05  2.4533190209183278e+06  2.7077260760295606e+05  9.2049657037262656e+06  5.9297215546634537e+05  1.2820355177326974e+07  1.3205877907466544e+06  1.7220133854669698e+07  1.0809353806786896e+06  2.1319775976328660e+07  2.0539108642406454e+06  2.3287152124168970e+07  1.1127527384348223e+06  2.9234659672521096e+07  1.1412330410796481e+06  3.5136500648200877e+07  -5.4916779034889699e+05  3.8480929988253333e+07  5.6897592820523027e+06  4.3330081205977790e+07  1.6420074236106897e+07  4.4827443885854669e+07  2.6195871993711807e+07  4.7349691377179548e+07  7.1044914706407972e+06  4.3132616396509156e+07  2.3567949208765803e+06  4.5933907143169180e+07  9.0597406741815228e+06  5.3900173319237620e+07  1.3011440117706131e+07  5.8014772486017928e+07  1.6921641891408533e+07  5.3983550204079069e+07  2.0848337780223981e+07  3.9832261649258092e+07  2.3606308884359121e+07  5.0609466425915346e+07  2.9310772423767533e+07  4.7244014443683513e+07  3.4647194280818500e+07  4.1202195344195656e+07  3.8940708650582105e+07  3.2719325787026219e+07  4.2731214992822997e+07  2.8000965898833383e+07  4.5584065394526035e+07  2.9188757038645137e+07  4.7000400667660676e+07  2.5775616246458840e+07  4.2836834245013110e+07  2.3711944559194420e+07  4.6050707827737197e+07  1.7367837404918317e+07  5.4390260640992619e+07  1.1991250009137603e+07  5.7462380197355747e+07  6.4421235211447496e+06  5.3492067417166278e+07  1.3137166416630377e+06  4.2238193452949628e+07  2.0840701476922249e+06  4.8979250306569666e+07  7.1903568364809025e+06  4.9501907460162260e+07  1.3834432505048890e+07  4.2240620980165526e+07  1.8920682522876099e+07  3.3355795027170885e+07  2.4116818352861241e+07  2.8464016527219858e+07  2.8898353830854636e+07  2.7109986928855900e+07  2.9208127649989162e+07  2.6076321576661311e+07  4.9172787516177241e+06  2.3094420749045406e+07  1.8578280043146065e+06  1.7394051331310175e+07  1.9502337704946746e+06  1.1880545775017790e+07  6.7014797468951682e+05  6.1811045037207762e+06  2.2188703888713711e+05  9.2126142234601488e+05  6.1069558655467008e+04  1.9364812203993346e+06  2.2295291694583230e+02  7.2696135832396522e+06  1.0805000413884491e+04  1.3426170905021911e+07  3.7044816377473353e+03  1.9347655470888875e+07  9.6277859973238446e+02  2.3834284165898208e+07  7.1677889976392024e+01  2.9078131198703267e+07  9.5966538501925726e+01  2.9543461832847655e+07  6.4339315728680418e+01  4.4460013630041471e+06  1.7207904290886748e+02  1.3344334205819499e+06  6.8620286775055240e+02  2.0427546683726674e+06  1.5039357844687729e+03  6.0625651764278591e+05  3.3652384197682736e+03  2.8591011598618457e+05  4.9536324205484534e+03  3.6928272077625807e+04  6.4993925722127078e+03  4.2421598209221356e+03  2.4380116815022757e+03  9.5090701121612328e+03  3.2635678857165371e+03  4.3427857822301785e+03  5.8302340495516382e+03  1.0031019916962736e+03  5.2981205237395050e+04  3.7540995923215007e+01  1.5208036435720025e+05  2.5982123035013950e+02  3.0257411678812094e+05  2.2223030535622991e+02  4.4605013420443295e+05  7.8799193702039543e+02  7.0689836315150780e+05  1.9291573553402982e+03  1.0357572148908314e+06  3.5385138199405696e+03  1.6583370493266687e+06  4.4616004757760475e+03  2.2999018119325060e+06  5.6876726100350352e+03  2.1146117207556311e+06  2.1180638525165641e+03  1.4141191297246239e+06  1.6022744992933672e+03  1.9116229242164467e+07  1.2724403874317661e+04  4.4574781941207059e+07  5.2945240252522788e+04  5.8096796426264733e+07  1.5150665651334010e+05  7.8900397069820568e+07  2.9895967814555578e+05  8.6990231036359504e+07  4.5798726932605961e+05  9.9644537800313979e+07  7.0215754680225917e+05  1.1696854966877335e+08  1.0297890176888581e+06  1.1083740263324305e+08  1.6625460887341634e+06  1.2067380539794633e+08  2.3501492592206956e+06  1.2456721123380631e+08  1.9753142631117862e+06  1.1105192812773678e+08  1.2185594677275729e+06  1.2568820786829661e+08  1.9795403710218742e+07  1.5516988559070852e+08  4.2688985616232060e+07  1.2568704494654813e+08  5.8296823905781806e+07  1.0852269307966465e+08  7.7909756646262556e+07  1.2270047786337049e+08  8.9437374273902044e+07  1.2128482655273502e+08  9.9113802467613548e+07  1.1091445984233247e+08  1.1441445487061305e+08  1.1629377008618090e+08  1.1257885704416999e+08  1.0098428129148869e+08  1.2207833215782657e+08  8.6673442929540947e+07  1.2637944980487387e+08  8.0722166312099814e+07  1.0718843117601544e+08  5.7260692952821456e+07  1.2695122117237996e+08  4.3278474169271573e+07  1.5283002011629152e+08  1.7064028397606686e+07  1.2654278806294699e+08  1.4979952966684236e+06  1.1042508398074351e+08  1.7207926557421405e+06  1.2446518485273615e+08  2.1758601882301369e+06  1.2131279082792887e+08  1.7641674479280536e+06  1.1056123679743904e+08  1.0081485541553701e+06  1.1640678683110715e+08  7.2404814734789950e+05  9.8386622622270703e+07  4.4572923338010098e+05  8.8638201412566379e+07  2.9424720600950747e+05  7.8853902936000556e+07  1.5157022006055282e+05  5.7459135763333589e+07  4.5506583248861367e+04  4.2562878299355142e+07  8.9504823207892769e+03  1.8868522218219191e+07  4.4828345555380783e+03  5.0536527746791503e+05  1.9679266940612072e+03  2.0390939163248113e+06  5.6618711001150114e+03  2.4249579586046780e+06  4.9269049622861694e+03  1.6765607045317590e+06  3.0908180700505682e+03  1.0921496205823931e+06  1.9215668181678623e+03  7.2752834228087182e+05  6.9778969329033475e+02  4.7133503784282971e+05  2.1722490940156749e+02  2.8934213612457964e+05  6.5272017749298300e+01  1.5116940558953994e+05  1.0805173222147330e+02  5.4077106392422080e+04  8.5344324319389898e+01  6.6878521090789718e+03  9.1028339421876160e+02  2.9095347494419175e+03  4.4953531977798830e+03  2.2849216538794813e+03  9.6564390809673696e+03  5.7616382094130922e+03  3.7542560210132815e+03  4.3062778669275158e+03  4.4101288301653592e+04  3.6810073049425855e+03  2.5328671562060516e+05  1.7943856151110574e+03  6.0727967358050449e+05  7.9012968136555605e+02  1.9030111801900417e+06  2.2015717978618270e+02  1.5009543782992964e+06  2.4955325335324426e+02  4.4102685097029349e+06  1.9620122499796793e+01  2.7118755056519452e+07  9.8703504864487115e+02  2.9392517716363750e+07  4.3126618537670956e+03  2.4034762841341168e+07  1.0191824001171384e+04  1.8183865776146665e+07  2.8318156860088980e+03  1.3137388884004163e+07  4.6400319204503940e+04  7.3024146007361710e+06  2.7698331229833321e+05  2.3905015662246551e+06  5.5411228751248808e+05  1.3535124308752285e+06  1.9100598708396524e+06  5.9807871277459459e+06  1.9709113050532409e+06  1.2039163000813339e+07  4.6176550795121873e+06  1.7628441256399039e+07  2.9810673447010174e+07  2.3156820379616790e+07  2.8272120908891350e+07  2.5099021676274881e+07  2.4303824950444188e+07  2.8459996193148542e+07  1.9157591167795904e+07  2.8460796738499735e+07  1.3828794350298550e+07  3.3896891636889204e+07  7.2729210696033491e+06  3.9674801223081276e+07  1.9791527215966422e+06  4.9934557019471124e+07  1.0931450031718516e+06  4.7466826875546619e+07  5.8834044611274311e+06  4.5814553726081066e+07  1.1682155008926181e+07  5.6939729769505821e+07  1.7963597109244574e+07  5.5470079592794158e+07  2.2942008249751355e+07  5.3764741846045151e+07  2.5895639837423798e+07  4.6131658544570036e+07  2.8455318639572840e+07  4.2765135465015702e+07  2.8305930750318058e+07  4.5825618032141529e+07  3.2634486110933837e+07  4.6024916825963780e+07  4.1955811414654978e+07  4.3348100244653679e+07  4.7461860476262838e+07  3.8282420765787803e+07  4.8051498759255342e+07  3.3836712701112501e+07  4.6253511152374245e+07  2.9165669162946533e+07  5.7123634587680697e+07  2.2790713452823527e+07  5.7470813541180462e+07  2.1276056608389679e+07  5.4919533118454412e+07  1.6836622023483880e+07  4.5804912984354571e+07  1.3038690358857978e+07  4.3068006076877952e+07  9.1110523190071024e+06  4.6543639112031996e+07  2.5718217353287060e+06  4.5138010108960241e+07  6.7938395874678744e+06  4.2734941187036775e+07  2.6177122973393872e+07  3.8368846683903173e+07  1.7459850762553405e+07  3.3918739506611355e+07  5.8200926779964305e+06  2.8936058132557798e+07  3.0038698542432900e+05  2.3498067628818385e+07  2.9625942337808927e+05  2.0942778080524810e+07  9.9629009483223595e+05  1.6522365653779050e+07  1.6517415224039590e+06  1.2977811217637897e+07  1.2290249267915119e+06  8.8810498120837416e+06  9.9878353943555488e+05  2.4464237350897305e+06  5.5577449090431747e+05  7.2354893314483641e+06  3.6729669546714018e+05  2.6485762470880359e+07  9.8032964968585031e+04  1.7717680024344187e+07  1.3290240866511903e+05  5.4375264500602242e+06  3.3599348390659818e+05  1.0120193532830107e+06  3.6367954920961277e+05  4.0690819257750234e+05  1.8104585522418475e+05  1.1547937539524217e+06  -1.8040344748159150e+04  1.8466834712344923e+06  1.9150297289209976e+05  1.0685953809557632e+06  5.0123405350628140e+05  1.5305376827738953e+06  3.1038093519912090e+07  6.1942587751754433e+07  3.4531582459454402e+07  8.1078440914644271e+07  6.8367320502813190e+07  9.6676098930214405e+07  5.7629782542940274e+07  1.1023380463598588e+08  5.0906552025663145e+07  1.2906496452680494e+08  4.6918834486701861e+07  1.3968397327028126e+08  4.3423519380874492e+07  1.3075343939854218e+08  4.0207655728689514e+07  1.4239242638772568e+08  4.1002828799563818e+07  1.3553859187115011e+08  3.9289842517640300e+07  1.0895831320423828e+08  3.8370029979503103e+07  1.2296486969169132e+08  4.5840539754299797e+07  1.4279122451873365e+08  4.8417631050559148e+07  1.0582118382024817e+08  4.5015455799252629e+07  8.3190441095449895e+07  4.7406557678681798e+07  7.8767031582984582e+07  4.8862420924753860e+07  6.1929064020848535e+07  4.8834330872007936e+07  3.9729607887056947e+07  4.2313913220252901e+07  1.6516404874406468e+07  4.6938858531274773e+07  9.3576826960188393e+06  5.0762720114145942e+07  3.6993878910146013e+07  5.7163172661838457e+07  6.6423191130049117e+07  5.3812066234667495e+07  1.0312190022026218e+08  4.8095168856373221e+07  1.6059021105933452e+08  5.7495634422022842e+07  2.4213591372683305e+08  6.1955022058450289e+07  2.3573863424035487e+08  6.3844350475094661e+07  1.1991757804560830e+08  5.6184673934780955e+07  5.8965787369171992e+07  5.5875414472049303e+07  2.8135639623534638e+07  6.4894286583409071e+07  1.8638552552558117e+07  6.6306450336056456e+07  1.3667060059702532e+07  6.4198895963155448e+07  9.8472750832146145e+06  6.2816528478720963e+07  8.1515224087999845e+06  6.6277918673362650e+07  7.3583687116788272e+06  6.5019925720162317e+07  6.1726484672708232e+06  5.5415444248922229e+07  7.4034771170106595e+06  5.6618189132426210e+07  7.6342771529027224e+06  5.8821765637141019e+07  6.7004128188982140e+06  5.7753578436431758e+07  6.3818349426099742e+06  6.0417959226315849e+07  6.7108047785286354e+06  6.6374124414873041e+07  6.3620142127718022e+06  7.2035181102115363e+07  5.6079309396129921e+06  9.1078748494533807e+07  5.0433149690032518e+06  1.2855264606234048e+08  5.7612839574632412e+06  1.3502691778045148e+08  6.2414850881435974e+06  6.3786944110780820e+07  5.1164840972409220e+06  1.7963986257300671e+07  5.6604697422027942e+06  2.2862787136244415e+06  5.4880685252016140e+06  1.4908703030332219e+07  4.7832118392920438e+06  2.7762693557071596e+07  4.0073252555625387e+06  3.6780582573230192e+07  4.8838373356203940e+06  5.2801952670521878e+07  4.0158036900433199e+06  5.7715950992369369e+07  3.7009013227389166e+06  6.7693653224819034e+07  4.3249342011929993e+06  7.1983820195499450e+07  4.3150348986844262e+06  7.1182196627895966e+07  4.1078385645590476e+06  8.2261501493338421e+07  4.1271000456043333e+06  8.0454976887348756e+07  4.4136785742767835e+06  7.5552867397936404e+07  4.0879975448590145e+06  8.6058942565114260e+07  4.0139979759395514e+06  8.6215134559704497e+07  4.6593060278162630e+06  8.0150648910708144e+07  5.1655248695425680e+06  8.4313461810848966e+07  6.3247352500712667e+06  7.3768545593531266e+07  8.5461872074063048e+06  6.3278975091176338e+07  1.0779071428384557e+07  5.8530795256930836e+07  1.6265173748605724e+07  3.9831972094074160e+07  2.1142671519921567e+07  2.4355479769361138e+07  1.5200485774257472e+07  2.8047158804047521e+07  3.1545988237383209e+07  2.6954613262210976e+07  2.8783537088926051e+07  3.4355791059534349e+07  2.7666931855620075e+07  4.2327658440789536e+07  3.1760890658798508e+07  3.4275212977567367e+07  3.8099396263179295e+07  3.9087541682529226e+07  3.8032916327460617e+07  5.1127691914583609e+07  5.1048605114153005e+07  5.5471281030523084e+07  5.4485825419493683e+07  6.1766992058627069e+07  6.1310961983665697e+07  7.2191318664195836e+07  7.5607757609325230e+07  8.6743909937628329e+07  8.4261775626312271e+07  1.1543998137648539e+08  1.2068248295870030e+08  1.1572159137099001e+08  1.1907855251482148e+08  2.5179619057360969e+07  2.9734176712990042e+07  1.1581631210387498e+06  5.5408408999797609e+05  1.3611860460883183e+07  1.2479028854585361e+07  1.8586200654166993e+07  1.7373502781430457e+07  2.5102800265831117e+07  2.6188670202105775e+07  3.2155205510990907e+07  3.3144165056086559e+07  3.7042357087943107e+07  3.4689102211609334e+07  4.4859712031619161e+07  4.6016902939501889e+07  5.2847844281002946e+07  5.3200460971639022e+07  5.9150106681135193e+07  5.8555165269464076e+07  6.5949500668904729e+07  6.6522853661657840e+07  6.8273008371378854e+07  6.9400969453982785e+07  6.9416515044858873e+07  7.3207455016804352e+07  6.3420619319623515e+07  6.3619332483845279e+07  6.6607159592333205e+07  6.5976119164419472e+07  7.3140589771968275e+07  7.6330910920182556e+07  8.7554231865969375e+07  8.3559797226074174e+07  7.3785279789703906e+07  7.4506340029192016e+07  5.1580815144521721e+07  4.7773664428325005e+07  4.7798548523299254e+07  4.8192425722960711e+07  3.8148151412953556e+07  4.0048267693353258e+07  2.9966772043199278e+07  3.0320025834221903e+07  1.6164491272514921e+07  1.6185613151778005e+07  5.3717908763153180e+06  5.2742123915535389e+06  1.2862046838420976e+06  2.0988601009294097e+06  7.3168456706765806e+06  6.6829386890688622e+06  1.1852864010545850e+07  1.2835208110157460e+07  2.2209845331112925e+07  2.1591317163070392e+07  3.3735259056078367e+07  3.3853209051775001e+07  4.0973036266787469e+07  4.2283062362382770e+07  4.4999641129638821e+07  4.3975293680862084e+07  5.5230296645789914e+07  5.5046512028203525e+07  6.2184220650653124e+07  6.2493130880872771e+07  7.4349467025884539e+07  7.4387952781360045e+07  9.0452910099915251e+07  9.1854565228708908e+07  1.0938007883094664e+08  1.1135918860596083e+08  1.5485043219785184e+08  1.4788687835513145e+08  2.3153668324294886e+08  2.3953663591165811e+08  1.2387439896799339e+08  1.2238525554524250e+08  4.3397126745551907e+07  4.1973070243159898e+07  1.5915665196625335e+07  1.7757961958621163e+07  1.2774986593230752e+07  1.2363046719365928e+07  8.8307564897135720e+06  1.0089330957989940e+07  5.9432356629095059e+06  5.8181492721813479e+06  4.0275883641680484e+06  4.2450802350812564e+06  2.7209315969523191e+06  3.0900753460257398e+06  4.0242120422150772e+06  4.1088197472618790e+06  3.9590042560093403e+06  3.7689469555433025e+06  4.3318746046147607e+06  4.7268492020686325e+06  5.6913888862881111e+06  6.6495156219536066e+07  1.6078565157352697e+07  1.2347128331560190e+08  1.6447062654941792e+06  1.2775748280823605e+08  1.5790485012816451e+07  9.0676240305272594e+07  2.6792612720192920e+07  7.2599112105944440e+07  3.8523132611741625e+07  6.5270919595719613e+07  5.3075375936592422e+07  6.0801057975386731e+07  5.5993419096198216e+07  5.7898168826677471e+07  6.7408794646876886e+07  5.8455375205149047e+07  7.2197176227524549e+07  5.6858899299433582e+07  6.6984419093249060e+07  5.5176912446121134e+07  8.0581783746112972e+07  6.5130216178150803e+07  1.0160257109165730e+08  6.8259950159565598e+07  8.4770106177856058e+07  6.2205824573023699e+07  7.6012683095465779e+07  6.4568353606763661e+07  8.7825564208094552e+07  6.5527826499819629e+07  8.6967845752594635e+07  6.4566009804146193e+07  7.8800637509587020e+07  5.4708703167953998e+07  8.3713079622184888e+07  5.8420966943096727e+07  7.2958219152874589e+07  6.0400514097522840e+07  6.5043040575962476e+07  6.7554154882039234e+07  5.4152926974066257e+07  5.9349123698441170e+07  4.7278185621531330e+07  4.8220997366389036e+07  3.3171542813548740e+07  5.2087569697336696e+07  1.6552920845925944e+07  5.2504241557393737e+07  1.3127019910277121e+07  5.3440062942606889e+07  2.2776908745339997e+07 