<?xml version="1.0"?>
<VTKFile type="UnstructuredGrid"  version="0.1"  >
<UnstructuredGrid>
<Piece  NumberOfPoints="11925" NumberOfCells="22284">
<Points>
<DataArray  type="Float64"  NumberOfComponents="3"  format="ascii">0.009106770432969287 0.0084582340381214 0  0.009141919339108864 0.008441218550270694 0  0.009203598740601114 0.008393845335784609 0  0.009248431083532146 0.008349860421943302 0  0.009296575788899144 0.008291876136114247 0  0.00934265184641383 0.008225659869648794 0  0.009393578065451109 0.008122249398276498 0  0.009424875532860347 0.008002512562814071 0  0.009449530416649156 0.007942856790653622 0  0.009467776063564975 0.007776381909547738 0  0.009496347239411999 0.007611274617662952 0  0.009499145002853376 0.007525125628140703 0  0.009496347239411999 0.007464102266759158 0  0.009467776063564975 0.007298994974874372 0  0.009449530416649156 0.007132520093768488 0  0.009424875532860347 0.00707286432160804 0  0.009393578065451109 0.006953127486145613 0  0.00934265184641383 0.006849717014773317 0  0.009296575788899144 0.006783500748307864 0  0.009248431083532146 0.006725516462478808 0  0.009203598740601114 0.006681531548637502 0  0.009141919338909114 0.006634158334151417 0  0.009106770432902705 0.006617142873950686 0  0.009057788944723618 0.006598443490950575 0  0.009035429646949504 0.006603784476015589 0  0.009003273865471631 0.006637537337391888 0  0.008992706568800921 0.006658843167954558 0  0.008972489432160457 0.006721105527638192 0  0.008943689764150664 0.006775124298212487 0  0.008927575292032289 0.006821608040201005 0  0.008858421521121648 0.006940476521074617 0  0.008818283204798657 0.006994423939357116 0  0.008742251619928807 0.007081030046222233 0  0.008689386069399707 0.007127977288024682 0  0.00865169762718865 0.007155237400276061 0  0.008598593426450953 0.007187519986677493 0  0.008503029036046951 0.007258952469496642 0  0.008441469295249169 0.007286330637148408 0  0.008404275359722921 0.007310151607682054 0  0.008340789248380142 0.007336567990292792 0  0.008278894472361808 0.007370606062816746 0  0.008227853892241668 0.007385785667750049 0  0.008178391959798996 0.007406751625964 0  0.008013447788775593 0.00743563391875675 0  0.007952261306532662 0.007456731513377061 0  0.007902010050251256 0.007466988976395871 0  0.007550251256281408 0.00748107426496475 0  0.007173366834170854 0.007466988976395871 0  0.007123115577889447 0.007456731513377061 0  0.007061929095646517 0.00743563391875675 0  0.006896984924623115 0.007406751625964 0  0.006771663215364072 0.00735919225436318 0  0.006734587636041969 0.007336567990292792 0  0.006695979899497487 0.00732259899495977 0  0.006633907589172942 0.007286330637148408 0  0.00657234784837516 0.007258952469496642 0  0.006476783457971159 0.007187519986677493 0  0.006385990815022405 0.007127977288024682 0  0.006333125264493302 0.007081030046222233 0  0.006244530865553103 0.006978164963285671 0  0.006205048905315104 0.00692211055276382 0  0.006159330552520386 0.006845248264868939 0  0.006131687120271447 0.006775124298212487 0  0.006102887452261655 0.006721105527638192 0  0.006082670315621189 0.006658843167954558 0  0.006072103018950479 0.006637537337391888 0  0.006039947237472605 0.006603784476015589 0  0.006017587939698492 0.006598443490950575 0  0.005933457545512996 0.006634158334151417 0  0.005871778143820997 0.006681531548637502 0  0.005826945800889965 0.006725516462478808 0  0.005778801095522966 0.006783500748307864 0  0.005732725038008282 0.006849717014773317 0  0.005681798818971001 0.006953127486145613 0  0.005650501351561765 0.00707286432160804 0  0.005625846467772956 0.007132520093768488 0  0.005607600820857134 0.007298994974874372 0  0.005577737985543962 0.00747666508082951 0  0.005579029645010113 0.007611274617662952 0  0.005607600820857134 0.007776381909547738 0  0.005625846467772956 0.007942856790653622 0  0.005650501351561765 0.008002512562814071 0  0.005676707781126685 0.008109686584206147 0  0.005732725038008282 0.008225659869648794 0  0.005778801095522966 0.008291876136114247 0  0.00583916892901236 0.008362423236013654 0  0.005871778143820997 0.008393845335784609 0  0.005933457545313248 0.008441218550270694 0  0.005968606451452823 0.0084582340381214 0  0.006017587939698492 0.008476935349731016 0  0.006039947427631444 0.008471594355449344 0  0.006059540775356642 0.008452005488667369 0  0.006077635869842498 0.008429097268812035 0  0.006102887452261655 0.00835427135678392 0  0.006131687120271447 0.008300252586209624 0  0.006159330552520386 0.008230128619553171 0  0.006216955363300465 0.008134900363347493 0  0.006257093679623455 0.008080952945064994 0  0.006333125264493302 0.007994346838199877 0  0.006370813706704358 0.007959962410467781 0  0.00642367925723346 0.007920139484146049 0  0.006476783457971159 0.007887856897744617 0  0.00657234784837516 0.007816424414925468 0  0.006633907589172942 0.007789046247273704 0  0.006671101524699189 0.007765225276740057 0  0.006734587636041969 0.007738808894129319 0  0.006796482412060302 0.007704770821605365 0  0.00692211055276382 0.00766245157494053 0  0.007061929095646517 0.007639742965665362 0  0.007123115577889447 0.007618645371045051 0  0.007173366834170854 0.00760838790802624 0  0.007525125628140703 0.00759430261945736 0  0.007902010050251256 0.00760838790802624 0  0.007952261306532662 0.007618645371045051 0  0.008013447788775593 0.007639742965665362 0  0.00815326633165829 0.00766245157494053 0  0.008278894472361808 0.007704770821605365 0  0.008340789248380142 0.007738808894129319 0  0.008404275359722921 0.007765225276740057 0  0.008441469295249169 0.007789046247273704 0  0.008503029036046951 0.007816424414925468 0  0.008598593426450953 0.007887856897744617 0  0.00865169762718865 0.007920139484146049 0  0.008704563177717754 0.007959962410467781 0  0.008742251619928807 0.007994346838199877 0  0.008818283204798657 0.008080952945064994 0  0.008858421521121648 0.008134900363347493 0  0.008916046331901725 0.008230128619553171 0  0.008943689764150664 0.008300252586209624 0  0.008972489432160457 0.00835427135678392 0  0.008997741014579612 0.008429097268812035 0  0.009015836109065469 0.008452005488667369 0  0.009035429456790667 0.008471594355449344 0  0.009057788944723618 0.008476935349731016 0  0.000584560956065443 0.0006566731908302978 0  0.0004648241206030151 0.0006253757234210605 0  0.0006879714274377391 0.0007075994098675775 0  0.0004051683484425679 0.0006007208396322515 0  0.0007541876939031931 0.0007536754673822622 0  0.0002386934673366834 0.0005824751927164302 0  0.0008121719797322475 0.0008018201727492608 0  7.895734593675217e-05 0.0005538767054284305 0  0.000856156893573553 0.0008466525156802934 0  0 0.0005480494466900812 0  0.0009035301080596382 0.0009083319171725436 0  0 0 0  0.000939246867973806 0.0009924623115577891 0  0.01 0 0  0.0009339058736921331 0.001014821772831462 0  0.01 0.0005571664569146784 0  0.0008914087205285403 0.001052510215042517 0  0.009937185929648241 0.0005602048678154705 0  0.0008165829145728644 0.00107776182261448 0  0.009811557788944724 0.0005824755727250804 0  0.0007625641439985681 0.001106561492130742 0  0.00964508290783884 0.0006007208396322515 0  0.0006924401773421158 0.001134204924379682 0  0.009585427135678391 0.0006253757234210605 0  0.000597211921136439 0.001191829735159762 0  0.009478253114286317 0.0006515821529859823 0  0.0005055760606428836 0.00126320124586456 0  0.00937484264291402 0.0007001169347433132 0  0.0004537270030180498 0.001310933582424631 0  0.009296063562378215 0.0007536754673822622 0  0.0004097111541863734 0.001360865186881701 0  0.00923807927654916 0.0008018201727492608 0  0.0003501684555335619 0.001451657829830455 0  0.009194094362707853 0.0008466525156802934 0  0.0002787359727144142 0.001547222220234457 0  0.009146721148221768 0.0009083319171725436 0  0.0002513578050626486 0.001608781961032239 0  0.0091110043883076 0.0009924623115577891 0  0.0002275368345290006 0.001645975896558485 0  0.009116345382589274 0.001014821785907898 0  0.0002011204519182638 0.001709462007901265 0  0.009158842483081762 0.001052510228118953 0  0.0001670823793943093 0.001771356783919598 0  0.009233668341708544 0.001077761824120951 0  0.0001247631327294741 0.001896984924623115 0  0.009287687112282839 0.001106561492130742 0  0.0001020545234543062 0.002036803467505815 0  0.009357811078939291 0.001134204924379682 0  8.096507571907495e-05 0.002097989949748744 0  0.009453039335144969 0.001191829735159762 0  7.071342713566267e-05 0.002148241206030151 0  0.009544675195638523 0.00126320124586456 0  5.669507456120024e-05 0.0025 0  0.009596524253263357 0.001310933582424631 0  7.071342713566267e-05 0.002876884422110553 0  0.009640540102095033 0.001360865186881701 0  8.096507571907495e-05 0.00292713567839196 0  0.009700082800747845 0.001451657829830455 0  0.0001020545234543062 0.002988322160634889 0  0.009771515283566994 0.001547222220234457 0  0.0001247631327294741 0.003128140703517588 0  0.009798893451218758 0.001608781961032239 0  0.0001670823793943093 0.003253768844221106 0  0.009822714421752407 0.001645975896558485 0  0.0002011204519182638 0.003315663620239438 0  0.009849130804363143 0.001709462007901265 0  0.0002275368345290006 0.003379149731582219 0  0.009883168876887099 0.001771356783919598 0  0.0002513578050626486 0.003416343667108464 0  0.009925488123551932 0.001896984924623115 0  0.0002787359727144142 0.003477903407906247 0  0.009948196732827102 0.002036803467505815 0  0.0003501684555335619 0.003573467798310248 0  0.009969286180562333 0.002097989949748744 0  0.0004097111541863734 0.003664260441259002 0  0.009979537829145744 0.002148241206030151 0  0.0004537270030180498 0.003714192045716073 0  0.009993556181720207 0.0025 0  0.0005055760606428836 0.003761924382276144 0  0.009979537829145744 0.002876884422110553 0  0.000597211921136439 0.003833295892980942 0  0.009969286180562333 0.00292713567839196 0  0.0006924401773421158 0.003890920703761021 0  0.009948196732827102 0.002988322160634889 0  0.0007625641439985681 0.003918564136009961 0  0.009925488123551932 0.0031281407035175
[...]
<PointData  Tensors="$\sigma$"> 
<DataArray  type="Float64"  Name="$\sigma$"  NumberOfComponents="9" format="ascii">7.3889437950555105e+06 -4.2324634542037370e+06 0.0000000000000000e+00 -4.2324634542037370e+06 2.7458962831290495e+06 0.0000000000000000e+00 0.0000000000000000e+00 0.0000000000000000e+00 0.0000000000000000e+00  7.9754328234308157e+06 -5.8098622874758979e+06 0.0000000000000000e+00 -5.8098622874758979e+06 4.8946671258265208e+06 0.0000000000000000e+00 0.0000000000000000e+00 0.0000000000000000e+00 0.0000000000000000e+00  8.3905813285958022e+06 -7.6493581953549143e+06 0.0000000000000000e+00 -7.6493581953549143e+06 7.3688135968566630e+06 0.0000000000000000e+00 0.0000000000000000e+00 0.0000000000000000e+00 0.0000000000000000e+00  8.1753521651282357e+06 -8.9687062392896824e+06 0.0000000000000000e+00 -8.9687062392896824e+06 1.0586633349292416e+07 0.0000000000000000e+00 0.0000000000000000e+00 0.0000000000000000e+00 0.0000000000000000e+00  6.5656796060289415e+06 -8.2750851557040066e+06 0.0000000000000000e+00 -8.2750851557040066e+06 1.3038583708672902e+07 0.0000000000000000e+00 0.0000000000000000e+00 0.0000000000000000e+00 0.0000000000000000e+00  5.7472581858909056e+06 -9.7849822191075534e+06 0.0000000000000000e+00 -9.7849822191075534e+06 1.7626889412025083e+07 0.0000000000000000e+00 0.0000000000000000e+00 0.0000000000000000e+00 0.0000000000000000e+00  3.4091158147416268e+06 -6.9617059740367075e+06 0.0000000000000000e+00 -6.9617059740367075e+06 1.8468918010869157e+07 0.0000000000000000e+00 0.0000000000000000e+00 0.0000000000000000e+00 0.0000000000000000e+00  1.1369137484565252e+06 -5.7789721166091170e+06 0.0000000000000000e+00 -5.7789721166091170e+06 2.2695778572431345e+07 0.0000000000000000e+00 0.0000000000000000e+00 0.0000000000000000e+00 0.0000000000000000e+00  1.1384865014581748e+06 -5.2577773393966518e+06 0.0000000000000000e+00 -5.2577773393966518e+06 2.2712400887876637e+07 0.0000000000000000e+00 0.0000000000000000e+00 0.0000000000000000e+00 0.0000000000000000e+00  1.2817424078561072e+05 -2.8463661096393447e+06 0.0000000000000000e+00 -2.8463661096393447e+06 2.0019710088560052e+07 0.0000000000000000e+00 0.0000000000000000e+00 0.0000000000000000e+00 0.0000000000000000e+00  3.2170816551917134e+05 -1.8867803123710041e+06 0.0000000000000000e+00 -1.8867803123710041e+06 2.2293393788315445e+07 0.0000000000000000e+00 0.0000000000000000e+00 0.0000000000000000e+00 0.0000000000000000e+00  8.7981985116096016e+05 -9.0291727789299639e+03 0.0000000000000000e+00 -9.0291727789299639e+03 2.6530183432991680e+07 0.0000000000000000e+00 0.0000000000000000e+00 0.0000000000000000e+00 0.0000000000000000e+00  1.7303294687018584e+05 1.2885727294034234e+06 0.0000000000000000e+00 1.2885727294034234e+06 2.1529821569671903e+07 0.0000000000000000e+00 0.0000000000000000e+00 0.0000000000000000e+00 0.0000000000000000e+00  -1.0176282458768804e+05 2.1080223546294319e+06 0.0000000000000000e+00 2.1080223546294319e+06 1.7890236766779274e+07 0.0000000000000000e+00 0.0000000000000000e+00 0.0000000000000000e+00 0.0000000000000000e+00  8.9447373259565141e+05 3.3403085801267098e+06 0.0000000000000000e+00 3.3403085801267098e+06 1.8519921495112550e+07 0.0000000000000000e+00 0.0000000000000000e+00 0.0000000000000000e+00 0.0000000000000000e+00  1.0308256626935309e+06 4.6183105358774327e+06 0.0000000000000000e+00 4.6183105358774327e+06 1.7444757330614045e+07 0.0000000000000000e+00 0.0000000000000000e+00 0.0000000000000000e+00 0.0000000000000000e+00  2.1055181348983762e+06 4.8745335386657650e+06 0.0000000000000000e+00 4.8745335386657650e+06 1.3901011009282559e+07 0.0000000000000000e+00 0.0000000000000000e+00 0.0000000000000000e+00 0.0000000000000000e+00  3.2914155693938695e+06 6.0219931642765459e+06 0.0000000000000000e+00 6.0219931642765459e+06 1.1468541818987649e+07 0.0000000000000000e+00 0.0000000000000000e+00 0.0000000000000000e+00 0.0000000000000000e+00  3.0845969524152768e+06 4.3322775732604004e+06 0.0000000000000000e+00 4.3322775732604004e+06 7.6414677347622523e+06 0.0000000000000000e+00 0.0000000000000000e+00 0.0000000000000000e+00 0.0000000000000000e+00  3.4477043638393134e+06 4.0450164989802190e+06 0.0000000000000000e+00 4.0450164989802190e+06 5.2760163902376043e+06 0.0000000000000000e+00 0.0000000000000000e+00 0.0000000000000000e+00 0.0000000000000000e+00  2.0019461789928433e+06 2.3825222303866479e+06 0.0000000000000000e+00 2.3825222303866479e+06 2.6686174217478447e+06 0.0000000000000000e+00 0.0000000000000000e+00 0.0000000000000000e+00 0.0000000000000000e+00  -5.8057141432355224e+04 7.1605117086746125e+05 0.0000000000000000e+00 7.1605117086746125e+05 1.0002345428006651e+06 0.0000000000000000e+00 0.0000000000000000e+00 0.0000000000000000e+00 0.0000000000000000e+00  -5.4657035049836114e+06 -1.3286434997841278e+06 0.0000000000000000e+00 -1.3286434997841278e+06 4.4575336231875763e+05 0.0000000000000000e+00 0.0000000000000000e+00 0.0000000000000000e+00 0.0000000000000000e+00  -1.7968824045934651e+07 2.4435565049648057e+06 0.0000000000000000e+00 2.4435565049648057e+06 -2.3497204439341808e+06 0.0000000000000000e+00 0.0000000000000000e+00 0.0000000000000000e+00 0.0000000000000000e+00  -2.4169679966333319e+07 1.3485325546909863e+07 0.0000000000000000e+00 1.3485325546909863e+07 -1.1526294956608193e+07 0.0000000000000000e+00 0.0000000000000000e+00 0.0000000000000000e+00 0.0000000000000000e+00  -1.1789548723892996e+07 1.4720862748720676e+07 0.0000000000000000e+00 1.4720862748720676e+07 -2.1477349273365308e+07 0.0000000000000000e+00 0.0000000000000000e+00 0.0000000000000000e+00 0.0000000000000000e+00  -4.8370397181887515e+06 9.2847760032257233e+06 0.0000000000000000e+00 9.2847760032257233e+06 -2.0206026560876895e+07 0.0000000000000000e+00 0.0000000000000000e+00 0.0000000000000000e+00 0.0000000000000000e+00  -2.9350411916361265e+06 7.2288537350002714e+06 0.0000000000000000e+00 7.2288537350002714e+06 -1.6095572812350715e+07 0.0000000000000000e+00 0.0000000000000000e+00 0.0000000000000000e+00 0.0000000000000000e+00  -2.9497571180402772e+06 6.6225357037960803e+06 0.0000000000000000e+00 6.6225357037960803e+06 -1.5169776747155540e+07 0.0000000000000000e+00 0.0000000000000000e+00 0.0000000000000000e+00 0.0000000000000000e+00  -3.0530795758492118e+06 7.2596875398145607e+06 0.0000000000000000e+00 7.2596875398145607e+06 -1.2707965098611070e+07 0.0000000000000000e+00 0.0000000000000000e+00 0.0000000000000000e+00 0.0000000000000000e+00  -4.0786016092944387e+06 7.2940527038090453e+06 0.0000000000000000e+00 7.2940527038090453e+06 -1.1628120500391640e+07 0.0000000000000000e+00 0.0000000000000000e+00 0.0000000000000000e+00 0.0000000000000000e+00  -6.4698430759104658e+06 8.3398107998685325e+06 0.0000000000000000e+00 8.3398107998685325e+06 -9.0427306536179651e+06 0.0000000000000000e+00 0.0000000000000000e+00 0.0000000000000000e+00 0.0000000000000000e+00  -7.1667712249454577e+06 8.0674562962244805e+06 0.0000000000000000e+00 8.0674562962244805e+06 -7.7995644908478819e+06 0.0000000000000000e+00 0.0000000000000000e+00 0.0000000000000000e+00 0.0000000000000000e+00  -9.2383197341454569e+06 7.7820280020239167e+06 0.0000000000000000e+00 7.7820280020239167e+06 -5.9666539158751154e+06 0.0000000000000000e+00 0.0000000000000000e+00 0.0000000000000000e+00 0.0000000000000000e+00  -1.1687366155433152e+07 8.7981250092042815e+06 0.0000000000000000e+00 8.7981250092042815e+06 -5.7825819452974712e+06 0.0000000000000000e+00 0.0000000000000000e+00 0.0000000000000000e+00 0.0000000000000000e+00  -1.2627352453690795e+07 8.6984386701995507e+06 0.0000000000000000e+00 8.6984386701995507e+06 -5.7698371639443468e+06 0.0000000000000000e+00 0.0000000000000000e+00 0.0000000000000000e+00 0.0000000000000000e+00  -1.1966411951461911e+07 8.0198631733420538e+06 0.0000000000000000e+00 8.0198631733420538e+06 -4.3309606227824772e+06 0.0000000000000000e+00 0.0000000000000000e+00 0.0000000000000000e+00 0.0000000000000000e+00  -1.3934679205270054e+07 7.3686143285713196e+06 0.0000000000000000e+00 7.3686143285713196e+06 -3.7794817062146179e+06 0.0000000000000000e+00 0.0000000000000000e+00 0.0000000000000000e+00 0.0000000000000000e+00  -1.4644276856809521e+07 7.1889957219298529e+06 0.0000000000000000e+00 7.1889957219298529e+06 -3.1315761354264333e+06 0.0000000000000000e+00 0.0000000000000000e+00 0.0000000000000000e+00 0.0000000000000000e+00  -1.3798280206786817e+07 6.5628145726140672e+06 0.0000000000000000e+00 6.5628145726140672e+06 -2.6606913589053834e+06 0.0000000000000000e+00 0.0000000000000000e+00 0.0000000000000000e+00 0.0000000000000000e+00  -1.3808387697893001e+07 5.6627826768925879e+06 0.0000000000000000e+00 5.6627826768925879e+06 -2.1574249679662250e+06 0.0000000000000000e+00 0.0000000000000000e+00 0.0000000000000000e+00 0.0000000000000000e+00  -1.3285201122831557e+07 5.4815251375937071e+06 0.0000000000000000e+00 5.4815251375937071e+06 -1.6905329028560538e+06 0.0000000000000000e+00 0.0000000000000000e+00 0.0000000000000000e+00 0.0000000000000000e+00  -1.5106239666067252e+07 3.4822293078313149e+06 0.0000000000000000e+00 3.4822293078313149e+06 -6.6368404651981301e+05 0.0000000000000000e+00 0.0000000000000000e+00 0.0000000000000000e+00 0.0000000000000000e+00  -1.5536183754150806e+07 3.6241069197188006e+06 0.0000000000000000e+00 3.6241069197188006e+06 8.8519246421788368e+04 0.0000000000000000e+00 0.0000000000000000e+00 0.0000000000000000e+00 0.0000000000000000e+00  -1.8809724945900258e+07 4.2946303812364563e+06 0.0000000000000000e+00 4.2946303812364563e+06 -1.1709860068612071e+06 0.0000000000000000e+00 0.0000000000000000e+00 0.0000000000000000e+00 0.0000000000000000e+00  -1.5383594768435795e+07 2.0168691292243823e+06 0.0000000000000000e+00 2.0168691292243823e+06 3.0664587728765984e+06 0.0000000000000000e+00 0.0000000000000000e+00 0.0000000000000000e+00 0.0000000000000000e+00  -1.2966314247323992e+07 -6.5580564324080609e+04 0.0000000000000000e+00 -6.5580564324080566e+04 1.0347959851980113e+06 0.0000000000000000e+00 0.0000000000000000e+00 0.0000000000000000e+00 0.0000000000000000e+00  -1.3766907833321616e+07 -2.1090859194124113e+06 0.0000000000000000e+00 -2.1090859194124117e+06 3.2048146025581290e+06 0.0000000000000000e+00 0.0000000000000000e+00 0.0000000000000000e+00 0.0000000000000000e+00  -1.6375423896371482e+07 -3.9750679834648455e+06 0.0000000000000000e+00 -3.9750679834648455e+06 -9.9315010101785872e+05 0.0000000000000000e+00 0.0000000000000000e+00 0.0000000000000000e+00 0.0000000000000000e+00  -1.3561901649183145e+07 -3.0322537648255704e+06 0.0000000000000000e+00 -3.0322537648255704e+06 -6.3519207522288700e+04 0.0000000000000000e+00 0.0000000000000000e+00 0.0000000000000000e+00 0.0000000000000000e+00  -1.1295567062313130e+07 -3.3463378293964863e+06 0.0000000000000000e+00 -3.3463378293964863e+06 -4.5933885834016593e+05 0.0000000000000000e+00 0.0000000000000000e+00 0.0000000000000000e+00 0.0000000000000000e+00  -1.0078162798106039e+07 -4.4357848832131019e+06 0.0000000000000000e+00 -4.4357848832131019e+06 -1.7352029930231986e+06 0.0000000000000000e+00 0.0000000000000000e+00 0.0000000000000000e+00 0.0000000000000000e+00  -1.0932991723930426e+07 -5.4306877709193071e+06 0.0000000000000000e+00 -5.4306877709193071e+06 -2.6839986916287886e+06 0.0000000000000000e+00 0.0000000000000000e+00 0.0000000000000000e+00 0.0000000000000000e+00  -1.0666121290810408e+07 -5.5517691762634618e+06 0.0000000000000000e+00 -5.5517691762634618e+06 -2.6712690159299350e+06 0.0000000000000000e+00 0.0000000000000000e+00 0.0000000000000000e+00 0.0000000000000000e+00  -1.0070421838526808e+07 -5.2810551668752488e+06 0.0000000000000000e+00 -5.2810551668752488e+06 -2.4587381119116759e+06 0.0000000000000000e+00 0.0000000000000000e+00 0.0000000000000000e+00 0.0000000000000000e+00  -8.8862260509092249e+06 -5.9699443080966240e+06 0.0000000000000000e+00 -5.9699443080966240e+06 -3.4511387845085319e+06 0.0000000000000000e+00 0.0000000000000000e+00 0.0000000000000000e+00 0.0000000000000000e+00  -8.1052665190194063e+06 -6.1441852574962219e+06 0.0000000000000000e+00 -6.1441852574962219e+06 -3.7965525747543150e+06 0.0000000000000000e+00 0.0000000000000000e+00 0.0000000000000000e+00 0.0000000000000000e+00  -7.5091816959444163e+06 -5.9383495580534702e+06 0.0000000000000000e+00 -5.9383495580534702e+06 -4.1833859429112324e+06 0.0000000000000000e+00 0.0000000000000000e+00 0.0000000000000000e+00 0.0000000000000000e+00  -4.8590243336316673e+06 -5.6281699088825602e+06 0.0000000000000000e+00 -5.6281699088825602e+06 -5.5083439405636704e+06 0.0000000000000000e+00 0.0000000000000000e+00 0.0000000000000000e+00 0.0000000000000000e+00  -4.1931147628396843e+06 -5.7449212289185151e+06 0.0000000000000000e+00 -5.7449212289185151e+06 -6.5303535489348937e+06 0.0000000000000000e+00 0.0000000000000000e+00 0.0000000000000000e+00 0.0000000000000000e+00  -3.0600916121884403e+06 -5.2783020096730897e+06 0.0000000000000000e+00 -5.2783020096730897e+06 -8.1139767809418105e+06 0.0000000000000000e+00 0.0000000000000000e+00 0.0000000000000000e+00 0.0000000000000000e+00  -2.2989099291972741e+06 -5.0111998303899905e+06 0.0000000000000000e+00 -5.0111998303899905e+06 -9.0265524586635493e+06 0.0000000000000000e+00 0.0000000000000000e+00 0.0000000000000000e+00 0.0000000000000000e+00  -2.3916843092854749e+06 -5.2255300374786910e+06 0.0000000000000000e+00 -5.2255300374786910e+06 -1.0576141404909689e+07 0.0000000000000000e+00 0.0000000000000000e+00 0.0000000000000000e+00 0.0000000000000000e+00  -1.8392494889080217e+06 -5.0007970708404006e+06 0.0000000000000000e+00 -5.0007970708404006e+06 -1.1535291281562278e+07 0.0000000000000000e+00 0.0000000000000000e+00 0.0000000000000000e+00 0.0000000000000000e+00  -3.3201723730183858e+06 -6.4810560051322598e+06 0.0000000000000000e+00 -6.4810560051322598e+06 -1.3755726214816693e+07 0.0000000000000000e+00 0.0000000000000000e+00 0.0000000000000000e+00 0.0000000000000000e+00  -5.4070863124737833e+06 -7.8954448910300080e+06 0.0000000000000000e+00 -7.8954448910300080e+06 -1.3793283285098020e+07 0.0000000000000000e+00 0.0000000000000000e+00 0.0000000000000000e+00 0.0000000000000000e+00  -2.9782434653145969e+06 -5.9648315728193270e+06 0.0000000000000000e+00 -5.9648315728193270e+06 -6.3154985504589453e+06 0.0000000000000000e+00 0.0000000000000000e+00 0.0000000000000000e+00 0.0000000000000000e+00  9.0858820076979604e+06 -6.3360958006553706e+06 0.0000000000000000e+00 -6.3360958006553706e+06 2.7626588201473895e+06 0.0000000000000000e+00 0.0000000000000000e+00 0.0000000000000000e+00 0.0000000000000000e+00  1.2307397641672064e+07 -8.8080289639379457e+06 0.0000000000000000e+00 -8.8080289639379457e+06 7.6456269211152196e+06 0.0000000000000000e+00 0.0000000000000000e+00 0.0000000000000000e+00 0.0000000000000000e+00  1.5179285706034660e+07 -1.3764921175932067e+07 0.0000000000000000e+00 -1.3764921175932067e+07 1.3178492560165927e+07 0.0000000000000000e+00 0.0000000000000000e+00 0.0000000000000000e+00 0.0000000000000000e+00  1.3824157421061790e+07 -1.5039602051411219e+07 0.0000000000000000e+00 -1.5039602051411219e+07 1.7984505764069185e+07 0.0000000000000000e+00 0.0000000000000000e+00 0.0000000000000000e+00 0.0000000000000000e+00  1.2384448423090920e+07 -1.6521490469622377e+07 0.0000000000000000e+00 -1.6521490469622377e+07 2.4002382062037461e+07 0.0000000000000000e+00 0.0000000000000000e+00 0.0000000000000000e+00 0.0000000000000000e+00  8.8751714126778226e+06 -1.5784692731682450e+07 0.0000000000000000e+00 -1.5784692731682450e+07 3.0481654983802091e+07 0.0000000000000000e+00 0.0000000000000000e+00 0.0000000000000000e+00 0.0000000000000000e+00  5.4757594446227858e+06 -1.1945933817201346e+07 0.0000000000000000e+00 -1.1945933817201346e+07 3.1115982012538034e+07 0.0000000000000000e+00 0.0000000000000000e+00 0.0000000000000000e+00 0.0000000000000000e+00  1.7379345840475236e+06 -9.4118638493484240e+06 0.0000000000000000e+00 -9.4118638493484240e+06 3.6643946875377715e+07 0.0000000000000000e+00 0.0000000000000000e+00 0.0000000000000000e+00 0.0000000000000000e+00  2.1661913175133769e+06 -8.7986683867671993e+06 0.0000000000000000e+00 -8.7986683867671993e+06 3.5302251531371608e+07 0.0000000000000000e+00 0.0000000000000000e+00 0.0000000000000000e+00 0.0000000000000000e+00  1.6769415400178666e+05 -4.3327695376582397e+06 0.0000000000000000e+00 -4.3327695376582397e+06 3.1800818459794924e+07 0.0000000000000000e+00 0.0000000000000000e+00 0.0000000000000000e+00 0.0000000000000000e+00  1.9026714902392388e+06 -1.9870966189904704e+06 0.0000000000000000e+00 -1.9870966189904704e+06 2.8894776825025484e+07 0.0000000000000000e+00 0.0000000000000000e+00 0.0000000000000000e+00 0.0000000000000000e+00  -2.8993617752445530e+05 2.3233063972511631e+06 0.0000000000000000e+00 2.3233063972511631e+06 3.0961850419222914e+07 0.0000000000000000e+00 0.0000000000000000e+00 0.0000000000000000e+00 0.0000000000000000e+00  1.0845937533562076e+05 2.0897950472185479e+06 0.0000000000000000e+00 2.0897950472185479e+06 2.2435233214581184e+07 0.0000000000000000e+00 0.0000000000000000e+00 0.0000000000000000e+00 0.0000000000000000e+00  9.5291165144532186e+05 4.1507135587637080e+06 0.0000000000000000e+00 4.1507135587637080e+06 2.1250048866571281e+07 0.0000000000000000e+00 0.0000000000000000e+00 0.0000000000000000e+00 0.0000000000000000e+00  8.3055031157732732e+05 3.9834463631385271e+06 0.0000000000000000e+00 3.9834463631385271e+06 1.7047843974379759e+07 0.0000000000000000e+00 0.0000000000000000e+00 0.0000000000000000e+00 0.0000000000000000e+00  7.4901084594432684e+05 3.2476454226364568e+06 0.0000000000000000e+00 3.2476454226364568e+06 1.1364805784807263e+07 0.0000000000000000e+00 0.0000000000000000e+00 0.0000000000000000e+00 0.0000000000000000e+00  -1.0145946485568448e+05 1.4444980283558602e+06 0.0000000000000000e+00 1.4444980283558602e+06 5.4814758933377275e+06 0.0000000000000000e+00 0.0000000000000000e+00 0.0000000000000000e+00 0.0000000000000000e+00  -2.2299923021294186e+06 -2.0181169124003095e+06 0.0000000000000000e+00 -2.0181169124003095e+06 -6.1111489551171882e+05 0.0000000000000000e+00 0.0000000000000000e+00 0.0000000000000000e+00 0.0000000000000000e+00  -6.1562658729484743e+06 -5.2894394299581284e+06 0.0000000000000000e+00 -5.2894394299581284e+06 -4.3688570176524762e+06 0.0000000000000000e+00 0.0000000000000000e+00 0.0000000000000000e+00 0.0000000000000000e+00  -1.3507531268413495e+07 -9.0161160214113053e+06 0.0000000000000000e+00 -9.0161160214113053e+06 -6.3923189949933300e+06 0.0000000000000000e+00 0.0000000000000000e+00 0.0000000000000000e+00 0.0000000000000000e+00  -2.2791761261452783e+07 -1.1670066391824055e+07 0.0000000000000000e+00 -1.1670066391824055e+07 -6.9004325155870225e+06 0.0000000000000000e+00 0.0000000000000000e+00 0.0000000000000000e+00 0.0000000000000000e+00  -3.8787694332232825e+07 -1.2488057489537528e+07 0.0000000000000000e+00 -1.2488057489537528e+07 -5.1578016315217959e+06 0.0000000000000000e+00 0.0000000000000000e+00 0.0000000000000000e+00 0.0000000000000000e+00  -6.6338944501437962e+07 5.7062905193189089e+05 0.0000000000000000e+00 5.7062905193189089e+05 -6.6687901410991475e+06 0.0000000000000000e+00 0.0000000000000000e+00 0.0000000000000000e+00 0.0000000000000000e+00  -6.2426106773066707e+07 2.2831115188690148e+07 0.0000000000000000e+00 2.2831115188690148e+07 -1.9128743072716620e+07 0.0000000000000000e+00 0.0000000000000000e+00 0.0000000000000000e+00 0.0000000000000000e+00  -2.5645970122834872e+07 2.0789807399938993e+07 0.0000000000000000e+00 2.0789807399938993e+07 -2.0229054979973719e+07 0.0000000000000000e+00 0.0000000000000000e+00 0.0000000000000000e+00 0.0000000000000000e+00  -7.7482295384786520e+06 8.9734014871615209e+06 0.0000000000000000e+00 8.9734014871615209e+06 -1.2523285431933496e+07 0.0000000000000000e+00 0.0000000000000000e+00 0.0000000000000000e+00 0.0000000000000000e+00  -1.9729282749757676e+06 4.1940264647411369e+06 0.0000000000000000e+00 4.1940264647411369e+06 -7.4847335895804511e+06 0.0000000000000000e+00 0.0000000000000000e+00 0.0000000000000000e+00 0.0000000000000000e+00  -9.5628849712057924e+05 1.9177317012819014e+06 0.0000000000000000e+00 1.9177317012819014e+06 -3.9280204420238459e+06 0.0000