<?xml version="1.0"?>
<VTKFile type="UnstructuredGrid"  version="0.1"  >
<UnstructuredGrid>
<Piece  NumberOfPoints="11925" NumberOfCells="22284">
<Points>
<DataArray  type="Float64"  NumberOfComponents="3"  format="ascii">0.009106770432969287 0.0084582340381214 0  0.009141919339108864 0.008441218550270694 0  0.009203598740601114 0.008393845335784609 0  0.009248431083532146 0.008349860421943302 0  0.009296575788899144 0.008291876136114247 0  0.00934265184641383 0.008225659869648794 0  0.009393578065451109 0.008122249398276498 0  0.009424875532860347 0.008002512562814071 0  0.009449530416649156 0.007942856790653622 0  0.009467776063564975 0.007776381909547738 0  0.009496347239411999 0.007611274617662952 0  0.009499145002853376 0.007525125628140703 0  0.009496347239411999 0.007464102266759158 0  0.009467776063564975 0.007298994974874372 0  0.009449530416649156 0.007132520093768488 0  0.009424875532860347 0.00707286432160804 0  0.009393578065451109 0.006953127486145613 0  0.00934265184641383 0.006849717014773317 0  0.009296575788899144 0.006783500748307864 0  0.009248431083532146 0.006725516462478808 0  0.009203598740601114 0.006681531548637502 0  0.009141919338909114 0.006634158334151417 0  0.009106770432902705 0.006617142873950686 0  0.009057788944723618 0.006598443490950575 0  0.009035429646949504 0.006603784476015589 0  0.009003273865471631 0.006637537337391888 0  0.008992706568800921 0.006658843167954558 0  0.008972489432160457 0.006721105527638192 0  0.008943689764150664 0.006775124298212487 0  0.008927575292032289 0.006821608040201005 0  0.008858421521121648 0.006940476521074617 0  0.008818283204798657 0.006994423939357116 0  0.008742251619928807 0.007081030046222233 0  0.008689386069399707 0.007127977288024682 0  0.00865169762718865 0.007155237400276061 0  0.008598593426450953 0.007187519986677493 0  0.008503029036046951 0.007258952469496642 0  0.008441469295249169 0.007286330637148408 0  0.008404275359722921 0.007310151607682054 0  0.008340789248380142 0.007336567990292792 0  0.008278894472361808 0.007370606062816746 0  0.008227853892241668 0.007385785667750049 0  0.008178391959798996 0.007406751625964 0  0.008013447788775593 0.00743563391875675 0  0.007952261306532662 0.007456731513377061 0  0.007902010050251256 0.007466988976395871 0  0.007550251256281408 0.00748107426496475 0  0.007173366834170854 0.007466988976395871 0  0.007123115577889447 0.007456731513377061 0  0.007061929095646517 0.00743563391875675 0  0.006896984924623115 0.007406751625964 0  0.006771663215364072 0.00735919225436318 0  0.006734587636041969 0.007336567990292792 0  0.006695979899497487 0.00732259899495977 0  0.006633907589172942 0.007286330637148408 0  0.00657234784837516 0.007258952469496642 0  0.006476783457971159 0.007187519986677493 0  0.006385990815022405 0.007127977288024682 0  0.006333125264493302 0.007081030046222233 0  0.006244530865553103 0.006978164963285671 0  0.006205048905315104 0.00692211055276382 0  0.006159330552520386 0.006845248264868939 0  0.006131687120271447 0.006775124298212487 0  0.006102887452261655 0.006721105527638192 0  0.006082670315621189 0.006658843167954558 0  0.006072103018950479 0.006637537337391888 0  0.006039947237472605 0.006603784476015589 0  0.006017587939698492 0.006598443490950575 0  0.005933457545512996 0.006634158334151417 0  0.005871778143820997 0.006681531548637502 0  0.005826945800889965 0.006725516462478808 0  0.005778801095522966 0.006783500748307864 0  0.005732725038008282 0.006849717014773317 0  0.005681798818971001 0.006953127486145613 0  0.005650501351561765 0.00707286432160804 0  0.005625846467772956 0.007132520093768488 0  0.005607600820857134 0.007298994974874372 0  0.005577737985543962 0.00747666508082951 0  0.005579029645010113 0.007611274617662952 0  0.005607600820857134 0.007776381909547738 0  0.005625846467772956 0.007942856790653622 0  0.005650501351561765 0.008002512562814071 0  0.005676707781126685 0.008109686584206147 0  0.005732725038008282 0.008225659869648794 0  0.005778801095522966 0.008291876136114247 0  0.00583916892901236 0.008362423236013654 0  0.005871778143820997 0.008393845335784609 0  0.005933457545313248 0.008441218550270694 0  0.005968606451452823 0.0084582340381214 0  0.006017587939698492 0.008476935349731016 0  0.006039947427631444 0.008471594355449344 0  0.006059540775356642 0.008452005488667369 0  0.006077635869842498 0.008429097268812035 0  0.006102887452261655 0.00835427135678392 0  0.006131687120271447 0.008300252586209624 0  0.006159330552520386 0.008230128619553171 0  0.006216955363300465 0.008134900363347493 0  0.006257093679623455 0.008080952945064994 0  0.006333125264493302 0.007994346838199877 0  0.006370813706704358 0.007959962410467781 0  0.00642367925723346 0.007920139484146049 0  0.006476783457971159 0.007887856897744617 0  0.00657234784837516 0.007816424414925468 0  0.006633907589172942 0.007789046247273704 0  0.006671101524699189 0.007765225276740057 0  0.006734587636041969 0.007738808894129319 0  0.006796482412060302 0.007704770821605365 0  0.00692211055276382 0.00766245157494053 0  0.007061929095646517 0.007639742965665362 0  0.007123115577889447 0.007618645371045051 0  0.007173366834170854 0.00760838790802624 0  0.007525125628140703 0.00759430261945736 0  0.007902010050251256 0.00760838790802624 0  0.007952261306532662 0.007618645371045051 0  0.008013447788775593 0.007639742965665362 0  0.00815326633165829 0.00766245157494053 0  0.008278894472361808 0.007704770821605365 0  0.008340789248380142 0.007738808894129319 0  0.008404275359722921 0.007765225276740057 0  0.008441469295249169 0.007789046247273704 0  0.008503029036046951 0.007816424414925468 0  0.008598593426450953 0.007887856897744617 0  0.00865169762718865 0.007920139484146049 0  0.008704563177717754 0.007959962410467781 0  0.008742251619928807 0.007994346838199877 0  0.008818283204798657 0.008080952945064994 0  0.008858421521121648 0.008134900363347493 0  0.008916046331901725 0.008230128619553171 0  0.008943689764150664 0.008300252586209624 0  0.008972489432160457 0.00835427135678392 0  0.008997741014579612 0.008429097268812035 0  0.009015836109065469 0.008452005488667369 0  0.009035429456790667 0.008471594355449344 0  0.009057788944723618 0.008476935349731016 0  0.000584560956065443 0.0006566731908302978 0  0.0004648241206030151 0.0006253757234210605 0  0.0006879714274377391 0.0007075994098675775 0  0.0004051683484425679 0.0006007208396322515 0  0.0007541876939031931 0.0007536754673822622 0  0.0002386934673366834 0.0005824751927164302 0  0.0008121719797322475 0.0008018201727492608 0  7.895734593675217e-05 0.0005538767054284305 0  0.000856156893573553 0.0008466525156802934 0  0 0.0005480494466900812 0  0.0009035301080596382 0.0009083319171725436 0  0 0 0  0.000939246867973806 0.0009924623115577891 0  0.01 0 0  0.0009339058736921331 0.001014821772831462 0  0.01 0.0005571664569146784 0  0.0008914087205285403 0.001052510215042517 0  0.009937185929648241 0.0005602048678154705 0  0.0008165829145728644 0.00107776182261448 0  0.009811557788944724 0.0005824755727250804 0  0.0007625641439985681 0.001106561492130742 0  0.00964508290783884 0.0006007208396322515 0  0.0006924401773421158 0.001134204924379682 0  0.009585427135678391 0.0006253757234210605 0  0.000597211921136439 0.001191829735159762 0  0.009478253114286317 0.0006515821529859823 0  0.0005055760606428836 0.00126320124586456 0  0.00937484264291402 0.0007001169347433132 0  0.0004537270030180498 0.001310933582424631 0  0.009296063562378215 0.0007536754673822622 0  0.0004097111541863734 0.001360865186881701 0  0.00923807927654916 0.0008018201727492608 0  0.0003501684555335619 0.001451657829830455 0  0.009194094362707853 0.0008466525156802934 0  0.0002787359727144142 0.001547222220234457 0  0.009146721148221768 0.0009083319171725436 0  0.0002513578050626486 0.001608781961032239 0  0.0091110043883076 0.0009924623115577891 0  0.0002275368345290006 0.001645975896558485 0  0.009116345382589274 0.001014821785907898 0  0.0002011204519182638 0.001709462007901265 0  0.009158842483081762 0.001052510228118953 0  0.0001670823793943093 0.001771356783919598 0  0.009233668341708544 0.001077761824120951 0  0.0001247631327294741 0.001896984924623115 0  0.009287687112282839 0.001106561492130742 0  0.0001020545234543062 0.002036803467505815 0  0.009357811078939291 0.001134204924379682 0  8.096507571907495e-05 0.002097989949748744 0  0.009453039335144969 0.001191829735159762 0  7.071342713566267e-05 0.002148241206030151 0  0.009544675195638523 0.00126320124586456 0  5.669507456120024e-05 0.0025 0  0.009596524253263357 0.001310933582424631 0  7.071342713566267e-05 0.002876884422110553 0  0.009640540102095033 0.001360865186881701 0  8.096507571907495e-05 0.00292713567839196 0  0.009700082800747845 0.001451657829830455 0  0.0001020545234543062 0.002988322160634889 0  0.009771515283566994 0.001547222220234457 0  0.0001247631327294741 0.003128140703517588 0  0.009798893451218758 0.001608781961032239 0  0.0001670823793943093 0.003253768844221106 0  0.009822714421752407 0.001645975896558485 0  0.0002011204519182638 0.003315663620239438 0  0.009849130804363143 0.001709462007901265 0  0.0002275368345290006 0.003379149731582219 0  0.009883168876887099 0.001771356783919598 0  0.0002513578050626486 0.003416343667108464 0  0.009925488123551932 0.001896984924623115 0  0.0002787359727144142 0.003477903407906247 0  0.009948196732827102 0.002036803467505815 0  0.0003501684555335619 0.003573467798310248 0  0.009969286180562333 0.002097989949748744 0  0.0004097111541863734 0.003664260441259002 0  0.009979537829145744 0.002148241206030151 0  0.0004537270030180498 0.003714192045716073 0  0.009993556181720207 0.0025 0  0.0005055760606428836 0.003761924382276144 0  0.009979537829145744 0.002876884422110553 0  0.000597211921136439 0.003833295892980942 0  0.009969286180562333 0.00292713567839196 0  0.0006924401773421158 0.003890920703761021 0  0.009948196732827102 0.002988322160634889 0  0.0007625641439985681 0.003918564136009961 0  0.009925488123551932 0.0031281407035175
[...]
<PointData  Tensors="$\sigma$"> 
<DataArray  type="Float64"  Name="$\sigma$"  NumberOfComponents="9" format="ascii">1.5286301848713048e+07 -8.0023635884924950e+06 0.0000000000000000e+00 -8.0023635884924950e+06 4.8346988728764979e+06 0.0000000000000000e+00 0.0000000000000000e+00 0.0000000000000000e+00 0.0000000000000000e+00  1.5990263137576634e+07 -1.1397360861664658e+07 0.0000000000000000e+00 -1.1397360861664658e+07 9.2090515516513344e+06 0.0000000000000000e+00 0.0000000000000000e+00 0.0000000000000000e+00 0.0000000000000000e+00  1.6937774926225644e+07 -1.5092123866376078e+07 0.0000000000000000e+00 -1.5092123866376078e+07 1.4059924193322936e+07 0.0000000000000000e+00 0.0000000000000000e+00 0.0000000000000000e+00 0.0000000000000000e+00  1.6438958368959488e+07 -1.7807458059525467e+07 0.0000000000000000e+00 -1.7807458059525467e+07 2.0398263826014202e+07 0.0000000000000000e+00 0.0000000000000000e+00 0.0000000000000000e+00 0.0000000000000000e+00  1.3368507111164503e+07 -1.6785859172200017e+07 0.0000000000000000e+00 -1.6785859172200017e+07 2.5550883922754679e+07 0.0000000000000000e+00 0.0000000000000000e+00 0.0000000000000000e+00 0.0000000000000000e+00  1.1478213419523697e+07 -1.9666874062571485e+07 0.0000000000000000e+00 -1.9666874062571485e+07 3.5090821379905954e+07 0.0000000000000000e+00 0.0000000000000000e+00 0.0000000000000000e+00 0.0000000000000000e+00  6.6188025221583499e+06 -1.3996378903248692e+07 0.0000000000000000e+00 -1.3996378903248692e+07 3.7044563649444491e+07 0.0000000000000000e+00 0.0000000000000000e+00 0.0000000000000000e+00 0.0000000000000000e+00  2.4929190503737824e+06 -1.1828159875693185e+07 0.0000000000000000e+00 -1.1828159875693185e+07 4.4462476065656029e+07 0.0000000000000000e+00 0.0000000000000000e+00 0.0000000000000000e+00 0.0000000000000000e+00  2.3550665109072430e+06 -1.0267359788792498e+07 0.0000000000000000e+00 -1.0267359788792498e+07 4.5520200089815818e+07 0.0000000000000000e+00 0.0000000000000000e+00 0.0000000000000000e+00 0.0000000000000000e+00  4.0940936160034960e+05 -5.7675749366458058e+06 0.0000000000000000e+00 -5.7675749366458058e+06 4.0613497193977937e+07 0.0000000000000000e+00 0.0000000000000000e+00 0.0000000000000000e+00 0.0000000000000000e+00  1.3446284434286719e+06 -4.5427627813288122e+06 0.0000000000000000e+00 -4.5427627813288122e+06 4.5035245216740541e+07 0.0000000000000000e+00 0.0000000000000000e+00 0.0000000000000000e+00 0.0000000000000000e+00  1.6224563467266927e+06 -2.1070432362506861e+04 0.0000000000000000e+00 -2.1070432362506861e+04 5.5287255918513149e+07 0.0000000000000000e+00 0.0000000000000000e+00 0.0000000000000000e+00 0.0000000000000000e+00  5.4832303673378180e+05 3.2797910397271626e+06 0.0000000000000000e+00 3.2797910397271626e+06 4.3293000244826891e+07 0.0000000000000000e+00 0.0000000000000000e+00 0.0000000000000000e+00 0.0000000000000000e+00  -1.2476356732978934e+05 4.3706488390661990e+06 0.0000000000000000e+00 4.3706488390661990e+06 3.5831202517460503e+07 0.0000000000000000e+00 0.0000000000000000e+00 0.0000000000000000e+00 0.0000000000000000e+00  1.8050730898862313e+06 6.8040075128439637e+06 0.0000000000000000e+00 6.8040075128439637e+06 3.6888190268189892e+07 0.0000000000000000e+00 0.0000000000000000e+00 0.0000000000000000e+00 0.0000000000000000e+00  2.2713342257700651e+06 9.3273233354846146e+06 0.0000000000000000e+00 9.3273233354846127e+06 3.3949813928911261e+07 0.0000000000000000e+00 0.0000000000000000e+00 0.0000000000000000e+00 0.0000000000000000e+00  4.1698662315145866e+06 9.7345698617525827e+06 0.0000000000000000e+00 9.7345698617525846e+06 2.7501722607469875e+07 0.0000000000000000e+00 0.0000000000000000e+00 0.0000000000000000e+00 0.0000000000000000e+00  6.7280910643848367e+06 1.2087052275575971e+07 0.0000000000000000e+00 1.2087052275575971e+07 2.2381836945906557e+07 0.0000000000000000e+00 0.0000000000000000e+00 0.0000000000000000e+00 0.0000000000000000e+00  6.2806355016261330e+06 8.6701329369584098e+06 0.0000000000000000e+00 8.6701329369584098e+06 1.4585912845842659e+07 0.0000000000000000e+00 0.0000000000000000e+00 0.0000000000000000e+00 0.0000000000000000e+00  7.0403925584559115e+06 7.8867616784506300e+06 0.0000000000000000e+00 7.8867616784506300e+06 9.8327552088073045e+06 0.0000000000000000e+00 0.0000000000000000e+00 0.0000000000000000e+00 0.0000000000000000e+00  4.1411201347660907e+06 4.4510325626958236e+06 0.0000000000000000e+00 4.4510325626958236e+06 4.6838207398752179e+06 0.0000000000000000e+00 0.0000000000000000e+00 0.0000000000000000e+00 0.0000000000000000e+00  7.3338439317604600e+04 1.0734153810455373e+06 0.0000000000000000e+00 1.0734153810455373e+06 1.4413379861675764e+06 0.0000000000000000e+00 0.0000000000000000e+00 0.0000000000000000e+00 0.0000000000000000e+00  -9.0593365154040810e+06 -3.5919280139249261e+06 0.0000000000000000e+00 -3.5919280139249275e+06 6.5460833301543142e+05 0.0000000000000000e+00 0.0000000000000000e+00 0.0000000000000000e+00 0.0000000000000000e+00  -3.6762189249664567e+07 3.4660154708669838e+06 0.0000000000000000e+00 3.4660154708669856e+06 -3.8365833465990024e+06 0.0000000000000000e+00 0.0000000000000000e+00 0.0000000000000000e+00 0.0000000000000000e+00  -4.8709644178883918e+07 2.7251417471721966e+07 0.0000000000000000e+00 2.7251417471721966e+07 -2.1736201097084325e+07 0.0000000000000000e+00 0.0000000000000000e+00 0.0000000000000000e+00 0.0000000000000000e+00  -2.2371877752208456e+07 2.9659116168928497e+07 0.0000000000000000e+00 2.9659116168928497e+07 -4.3275538852407314e+07 0.0000000000000000e+00 0.0000000000000000e+00 0.0000000000000000e+00 0.0000000000000000e+00  -8.8485056991825663e+06 1.7789251044554748e+07 0.0000000000000000e+00 1.7789251044554748e+07 -4.1034406433352903e+07 0.0000000000000000e+00 0.0000000000000000e+00 0.0000000000000000e+00 0.0000000000000000e+00  -5.5981142540306076e+06 1.3910359176955985e+07 0.0000000000000000e+00 1.3910359176955985e+07 -3.1508934690377817e+07 0.0000000000000000e+00 0.0000000000000000e+00 0.0000000000000000e+00 0.0000000000000000e+00  -5.8602084521039845e+06 1.3253120775737476e+07 0.0000000000000000e+00 1.3253120775737476e+07 -3.0166468263096306e+07 0.0000000000000000e+00 0.0000000000000000e+00 0.0000000000000000e+00 0.0000000000000000e+00  -6.1449177327613393e+06 1.4210449097651543e+07 0.0000000000000000e+00 1.4210449097651543e+07 -2.5666419691750187e+07 0.0000000000000000e+00 0.0000000000000000e+00 0.0000000000000000e+00 0.0000000000000000e+00  -8.4171440992870778e+06 1.4491465748467227e+07 0.0000000000000000e+00 1.4491465748467227e+07 -2.3003458150112018e+07 0.0000000000000000e+00 0.0000000000000000e+00 0.0000000000000000e+00 0.0000000000000000e+00  -1.2933249774346955e+07 1.6432140296856588e+07 0.0000000000000000e+00 1.6432140296856588e+07 -1.8236923153459590e+07 0.0000000000000000e+00 0.0000000000000000e+00 0.0000000000000000e+00 0.0000000000000000e+00  -1.4359072117912363e+07 1.5939458471573835e+07 0.0000000000000000e+00 1.5939458471573835e+07 -1.5652446412051860e+07 0.0000000000000000e+00 0.0000000000000000e+00 0.0000000000000000e+00 0.0000000000000000e+00  -1.8173160895921219e+07 1.5051317600349441e+07 0.0000000000000000e+00 1.5051317600349441e+07 -1.1532692324144602e+07 0.0000000000000000e+00 0.0000000000000000e+00 0.0000000000000000e+00 0.0000000000000000e+00  -2.3589237852032475e+07 1.7358170850034989e+07 0.0000000000000000e+00 1.7358170850034989e+07 -1.1273106175353134e+07 0.0000000000000000e+00 0.0000000000000000e+00 0.0000000000000000e+00 0.0000000000000000e+00  -2.5259346450646881e+07 1.7385080210969105e+07 0.0000000000000000e+00 1.7385080210969105e+07 -1.2101646930280047e+07 0.0000000000000000e+00 0.0000000000000000e+00 0.0000000000000000e+00 0.0000000000000000e+00  -2.3874250738600262e+07 1.5825647496934140e+07 0.0000000000000000e+00 1.5825647496934140e+07 -8.7360663413033001e+06 0.0000000000000000e+00 0.0000000000000000e+00 0.0000000000000000e+00 0.0000000000000000e+00  -2.7634537704475027e+07 1.4480852633116402e+07 0.0000000000000000e+00 1.4480852633116402e+07 -7.4380715916457297e+06 0.0000000000000000e+00 0.0000000000000000e+00 0.0000000000000000e+00 0.0000000000000000e+00  -2.9135590696775481e+07 1.4273412791887777e+07 0.0000000000000000e+00 1.4273412791887777e+07 -6.4758480886372672e+06 0.0000000000000000e+00 0.0000000000000000e+00 0.0000000000000000e+00 0.0000000000000000e+00  -2.7539066563167103e+07 1.3125730191494448e+07 0.0000000000000000e+00 1.3125730191494448e+07 -5.5780292853133865e+06 0.0000000000000000e+00 0.0000000000000000e+00 0.0000000000000000e+00 0.0000000000000000e+00  -2.7264656436537024e+07 1.1134077578384858e+07 0.0000000000000000e+00 1.1134077578384858e+07 -4.6514534441085933e+06 0.0000000000000000e+00 0.0000000000000000e+00 0.0000000000000000e+00 0.0000000000000000e+00  -2.5992120597702116e+07 1.0871517068529826e+07 0.0000000000000000e+00 1.0871517068529826e+07 -3.2854802763689421e+06 0.0000000000000000e+00 0.0000000000000000e+00 0.0000000000000000e+00 0.0000000000000000e+00  -3.0012380334133912e+07 6.8777372571565397e+06 0.0000000000000000e+00 6.8777372571565397e+06 -1.6175775476630826e+06 0.0000000000000000e+00 0.0000000000000000e+00 0.0000000000000000e+00 0.0000000000000000e+00  -3.1502809062578131e+07 6.7276782833577022e+06 0.0000000000000000e+00 6.7276782833577013e+06 -2.2148990118443922e+05 0.0000000000000000e+00 0.0000000000000000e+00 0.0000000000000000e+00 0.0000000000000000e+00  -3.5193371534214139e+07 8.8740430814192090e+06 0.0000000000000000e+00 8.8740430814192109e+06 -3.4236537018841789e+06 0.0000000000000000e+00 0.0000000000000000e+00 0.0000000000000000e+00 0.0000000000000000e+00  -3.1742643111114375e+07 4.1478393489592597e+06 0.0000000000000000e+00 4.1478393489592611e+06 5.8150518653020225e+06 0.0000000000000000e+00 0.0000000000000000e+00 0.0000000000000000e+00 0.0000000000000000e+00  -2.7169952075763505e+07 -1.0852601626638600e+05 0.0000000000000000e+00 -1.0852601626638614e+05 1.3144640579031887e+06 0.0000000000000000e+00 0.0000000000000000e+00 0.0000000000000000e+00 0.0000000000000000e+00  -2.8186653848731939e+07 -4.2709718012721511e+06 0.0000000000000000e+00 -4.2709718012721483e+06 6.0746397123119384e+06 0.0000000000000000e+00 0.0000000000000000e+00 0.0000000000000000e+00 0.0000000000000000e+00  -3.0368320423908796e+07 -7.8204023336277092e+06 0.0000000000000000e+00 -7.8204023336277120e+06 -2.7466886613894207e+06 0.0000000000000000e+00 0.0000000000000000e+00 0.0000000000000000e+00 0.0000000000000000e+00  -2.7138558999719638e+07 -5.5393012219833825e+06 0.0000000000000000e+00 -5.5393012219833797e+06 -3.8869134358911053e+05 0.0000000000000000e+00 0.0000000000000000e+00 0.0000000000000000e+00 0.0000000000000000e+00  -2.2567251264117319e+07 -6.4898620976619860e+06 0.0000000000000000e+00 -6.4898620976619814e+06 -1.0324130353082531e+06 0.0000000000000000e+00 0.0000000000000000e+00 0.0000000000000000e+00 0.0000000000000000e+00  -1.9712279222333111e+07 -8.8904544072013199e+06 0.0000000000000000e+00 -8.8904544072013237e+06 -3.7598327330549713e+06 0.0000000000000000e+00 0.0000000000000000e+00 0.0000000000000000e+00 0.0000000000000000e+00  -2.1823046794530358e+07 -1.0853746093318818e+07 0.0000000000000000e+00 -1.0853746093318818e+07 -5.2521852487433115e+06 0.0000000000000000e+00 0.0000000000000000e+00 0.0000000000000000e+00 0.0000000000000000e+00  -2.1146223110443708e+07 -1.0797560054435834e+07 0.0000000000000000e+00 -1.0797560054435834e+07 -5.3931529983631158e+06 0.0000000000000000e+00 0.0000000000000000e+00 0.0000000000000000e+00 0.0000000000000000e+00  -1.9922156590271708e+07 -1.0505005863364872e+07 0.0000000000000000e+00 -1.0505005863364872e+07 -4.8746972955830237e+06 0.0000000000000000e+00 0.0000000000000000e+00 0.0000000000000000e+00 0.0000000000000000e+00  -1.7715923316457987e+07 -1.1676085883179711e+07 0.0000000000000000e+00 -1.1676085883179711e+07 -6.9778421067396887e+06 0.0000000000000000e+00 0.0000000000000000e+00 0.0000000000000000e+00 0.0000000000000000e+00  -1.6295933719230695e+07 -1.2172177941450506e+07 0.0000000000000000e+00 -1.2172177941450506e+07 -7.7579968354215724e+06 0.0000000000000000e+00 0.0000000000000000e+00 0.0000000000000000e+00 0.0000000000000000e+00  -1.5042902704925148e+07 -1.1578142973719707e+07 0.0000000000000000e+00 -1.1578142973719707e+07 -8.1869994525555521e+06 0.0000000000000000e+00 0.0000000000000000e+00 0.0000000000000000e+00 0.0000000000000000e+00  -9.6752273084589317e+06 -1.1010620127147244e+07 0.0000000000000000e+00 -1.1010620127147244e+07 -1.0818710291345101e+07 0.0000000000000000e+00 0.0000000000000000e+00 0.0000000000000000e+00 0.0000000000000000e+00  -8.4060450171015635e+06 -1.1342699602365516e+07 0.0000000000000000e+00 -1.1342699602365516e+07 -1.3135525630981667e+07 0.0000000000000000e+00 0.0000000000000000e+00 0.0000000000000000e+00 0.0000000000000000e+00  -6.1197926825633068e+06 -1.0314108686586961e+07 0.0000000000000000e+00 -1.0314108686586961e+07 -1.6009855172089348e+07 0.0000000000000000e+00 0.0000000000000000e+00 0.0000000000000000e+00 0.0000000000000000e+00  -4.5357150463285511e+06 -9.8388062007902749e+06 0.0000000000000000e+00 -9.8388062007902749e+06 -1.8014193291915443e+07 0.0000000000000000e+00 0.0000000000000000e+00 0.0000000000000000e+00 0.0000000000000000e+00  -4.8168191990368133e+06 -1.0328043528115030e+07 0.0000000000000000e+00 -1.0328043528115030e+07 -2.1159090601911388e+07 0.0000000000000000e+00 0.0000000000000000e+00 0.0000000000000000e+00 0.0000000000000000e+00  -3.6011159373613778e+06 -9.7483255969420094e+06 0.0000000000000000e+00 -9.7483255969420094e+06 -2.2707122476170961e+07 0.0000000000000000e+00 0.0000000000000000e+00 0.0000000000000000e+00 0.0000000000000000e+00  -6.1554882786740419e+06 -1.2353185127229208e+07 0.0000000000000000e+00 -1.2353185127229208e+07 -2.7683499282897837e+07 0.0000000000000000e+00 0.0000000000000000e+00 0.0000000000000000e+00 0.0000000000000000e+00  -1.1460750355568890e+07 -1.6331895739544276e+07 0.0000000000000000e+00 -1.6331895739544276e+07 -2.7365841031760383e+07 0.0000000000000000e+00 0.0000000000000000e+00 0.0000000000000000e+00 0.0000000000000000e+00  -7.6454752741761664e+06 -1.1021647629753821e+07 0.0000000000000000e+00 -1.1021647629753821e+07 -1.2243729789591465e+07 0.0000000000000000e+00 0.0000000000000000e+00 0.0000000000000000e+00 0.0000000000000000e+00  1.7785505489335202e+07 -1.1281576333398202e+07 0.0000000000000000e+00 -1.1281576333398202e+07 4.6386942835678468e+06 0.0000000000000000e+00 0.0000000000000000e+00 0.0000000000000000e+00 0.0000000000000000e+00  2.5431627349854145e+07 -1.7388249841692060e+07 0.0000000000000000e+00 -1.7388249841692060e+07 1.4392482742576871e+07 0.0000000000000000e+00 0.0000000000000000e+00 0.0000000000000000e+00 0.0000000000000000e+00  3.0636955770684946e+07 -2.7606436968123075e+07 0.0000000000000000e+00 -2.7606436968123075e+07 2.5776115898243457e+07 0.0000000000000000e+00 0.0000000000000000e+00 0.0000000000000000e+00 0.0000000000000000e+00  2.7270150526318841e+07 -2.9701736417004984e+07 0.0000000000000000e+00 -2.9701736417004984e+07 3.5009285387224145e+07 0.0000000000000000e+00 0.0000000000000000e+00 0.0000000000000000e+00 0.0000000000000000e+00  2.4768546407348700e+07 -3.2714177547415957e+07 0.0000000000000000e+00 -3.2714177547415957e+07 4.6108198554582238e+07 0.0000000000000000e+00 0.0000000000000000e+00 0.0000000000000000e+00 0.0000000000000000e+00  1.8218900165926546e+07 -3.2002042309722695e+07 0.0000000000000000e+00 -3.2002042309722695e+07 6.0454801369697727e+07 0.0000000000000000e+00 0.0000000000000000e+00 0.0000000000000000e+00 0.0000000000000000e+00  1.0868862777608350e+07 -2.3733012079923596e+07 0.0000000000000000e+00 -2.3733012079923596e+07 6.2055658731235348e+07 0.0000000000000000e+00 0.0000000000000000e+00 0.0000000000000000e+00 0.0000000000000000e+00  3.8383611876624962e+06 -1.9029922247659974e+07 0.0000000000000000e+00 -1.9029922247659974e+07 7.1847271948393151e+07 0.0000000000000000e+00 0.0000000000000000e+00 0.0000000000000000e+00 0.0000000000000000e+00  4.2611098787267236e+06 -1.6848962225482274e+07 0.0000000000000000e+00 -1.6848962225482274e+07 7.0250777764046237e+07 0.0000000000000000e+00 0.0000000000000000e+00 0.0000000000000000e+00 0.0000000000000000e+00  5.0094099821546255e+05 -9.1677542380699646e+06 0.0000000000000000e+00 -9.1677542380699646e+06 6.3949144154996887e+07 0.0000000000000000e+00 0.0000000000000000e+00 0.0000000000000000e+00 0.0000000000000000e+00  3.5691587016820400e+06 -4.0322227596843769e+06 0.0000000000000000e+00 -4.0322227596843769e+06 5.9703534367720850e+07 0.0000000000000000e+00 0.0000000000000000e+00 0.0000000000000000e+00 0.0000000000000000e+00  -1.0279197715535083e+05 5.5861072837903183e+06 0.0000000000000000e+00 5.5861072837903183e+06 6.3416182681492120e+07 0.0000000000000000e+00 0.0000000000000000e+00 0.0000000000000000e+00 0.0000000000000000e+00  4.3440768744521023e+05 4.6422647613963513e+06 0.0000000000000000e+00 4.6422647613963513e+06 4.4623055574098155e+07 0.0000000000000000e+00 0.0000000000000000e+00 0.0000000000000000e+00 0.0000000000000000e+00  1.9077188868200891e+06 8.2042824195890743e+06 0.0000000000000000e+00 8.2042824195890743e+06 4.1505339484097585e+07 0.0000000000000000e+00 0.0000000000000000e+00 0.0000000000000000e+00 0.0000000000000000e+00  1.9275262099855980e+06 8.4441457024921048e+06 0.0000000000000000e+00 8.4441457024921048e+06 3.3330219103650205e+07 0.0000000000000000e+00 0.0000000000000000e+00 0.0000000000000000e+00 0.0000000000000000e+00  1.8793949555598439e+06 6.6177589976474214e+06 0.0000000000000000e+00 6.6177589976474214e+06 2.1756006070497546e+07 0.0000000000000000e+00 0.0000000000000000e+00 0.0000000000000000e+00 0.0000000000000000e+00  1.0035921593456861e+05 3.0410254318319745e+06 0.0000000000000000e+00 3.0410254318319745e+06 1.0044432577691644e+07 0.0000000000000000e+00 0.0000000000000000e+00 0.0000000000000000e+00 0.0000000000000000e+00  -4.0055944326648833e+06 -4.0865242156560351e+06 0.0000000000000000e+00 -4.0865242156560351e+06 -2.1432588974800357e+06 0.0000000000000000e+00 0.0000000000000000e+00 0.0000000000000000e+00 0.0000000000000000e+00  -1.1545328544546530e+07 -1.0777533279099990e+07 0.0000000000000000e+00 -1.0777533279099990e+07 -9.9476686613085400e+06 0.0000000000000000e+00 0.0000000000000000e+00 0.0000000000000000e+00 0.0000000000000000e+00  -2.5561978282104298e+07 -1.8118616590847742e+07 0.0000000000000000e+00 -1.8118616590847742e+07 -1.3174264846167361e+07 0.0000000000000000e+00 0.0000000000000000e+00 0.0000000000000000e+00 0.0000000000000000e+00  -4.4356601696240127e+07 -2.4091711317053463e+07 0.0000000000000000e+00 -2.4091711317053463e+07 -1.4879835988697898e+07 0.0000000000000000e+00 0.0000000000000000e+00 0.0000000000000000e+00 0.0000000000000000e+00  -7.5496888981044352e+07 -2.6710153796261713e+07 0.0000000000000000e+00 -2.6710153796261713e+07 -9.6936337720300686e+06 0.0000000000000000e+00 0.0000000000000000e+00 0.0000000000000000e+00 0.0000000000000000e+00  -1.3349662093662898e+08 -7.8216524256315501e+05 0.0000000000000000e+00 -7.8216524256315501e+05 -1.1754034782031860e+07 0.0000000000000000e+00 0.0000000000000000e+00 0.0000000000000000e+00 0.0000000000000000e+00  -1.2588798705629793e+08 4.9345839801596761e+07 0.0000000000000000e+00 4.9345839801596761e+07 -3.6921402536088459e+07 0.0000000000000000e+00 0.0000000000000000e+00 0.0000000000000000e+00 0.0000000000000000e+00  -4.6500178768804826e+07 4.2821527622600242e+07 0.0000000000000000e+00 4.2821527622600242e+07 -4.2525183480519839e+07 0.0000000000000000e+00 0.0000000000000000e+00 0.0000000000000000e+00 0.0000000000000000e+00  -1.3624346600176368e+07 1.7536452710686941e+07 0.0000000000000000e+00 1.7536452710686941e+07 -2.6271852573383261e+07 0.0000000000000000e+00 0.0000000000000000e+00 0.0000000000000000e+00 0.0000000000000000e+00  -2.8522830491875629e+06 7.5162255498649040e+06 0.0000000000000000e+00 7.5162255498649040e+06 -1.4656383859760990e+07 0.0000000000000000e+00 0.0000000000000000e+00 0.0000000000000000e+00 0.0000000000000000e+00  -1.7719709159835342e+06 3.7026554705140279e+06 0.0000000000000000e+00 3.7026554705140279e+06 -7.7930179611730045e+06 0.000