<?xml version="1.0"?>
<VTKFile type="UnstructuredGrid"  version="0.1"  >
<UnstructuredGrid>
<Piece  NumberOfPoints="1799" NumberOfCells="3156">
<Points>
<DataArray  type="Float64"  NumberOfComponents="3"  format="ascii">1.694065894508601e-21 0.008447317744001559 0  0 0.006243487017789186 0  0 0.01 0  0.01 0.01 0  0.01 0.004739447698251261 0  0.01 0.003038811340045742 0  0.01 0 0  0 0 0  0.00972274937591714 0.00446136709 0  0.009653726258356362 0.004545183154286949 0  0.009783606631901408 0.0043734488461064 0  0.009577812281436313 0.004624366443043088 0  0.009835143529851395 0.004282096254618384 0  0.009496374895431106 0.004698536913086191 0  0.009876351429728553 0.004188097333533943 0  0.009410843899527923 0.004767474310794485 0  0.009906389591104073 0.004092339945416686 0  0.009322680015752169 0.00483112308721043 0  0.009924603388293412 0.003995788691361544 0  0.009233342881914028 0.004889592860194898 0  0.009930538269388231 0.00389945963832429 0  0.009144259222736564 0.004943154406398476 0  0.009923949134101986 0.003804393533973133 0  0.009056791952980949 0.004992231280310688 0  0.009904804916195522 0.003711628202889073 0  0.00897221094262878 0.005037387269757166 0  0.009873288272257268 0.003622170840092915 0  0.008891666132610079 0.005079310004121139 0  0.009829790396922524 0.003536970921943865 0  0.008816163631214721 0.005118791130579932 0  0.009774901102315603 0.003456894440322572 0  0.008746545347644217 0.005156703562277342 0  0.009709394413691105 0.003382700134020289 0  0.008683472631978471 0.005193976378365099 0  0.009634210041128223 0.00331501834219343 0  0.008627414292309099 0.005231568017322153 0  0.009550431186043644 0.003254333039822774 0  0.008578639252366998 0.005270438450342868 0  0.009459259228807002 0.003200967535951617 0  0.008537213999305775 0.005311521049719365 0  0.00936198591772306 0.003155074224035663 0  0.008503004854204898 0.00535569487730484 0  0.009259963738278846 0.00311662867229655 0  0.008475684980220988 0.005403758110057852 0  0.009154575183414377 0.003085428233059718 0  0.008454745928046752 0.005456403293512485 0  0.009047201669650919 0.00306109523639258 0  0.008439513408278112 0.005514195070427174 0  0.008939192849631329 0.003043084717779311 0  0.008429166878152986 0.005577550971903466 0  0.008831837058876933 0.003030696514962359 0  0.008422762438422462 0.005646725783411865 0  0.008726333603687408 0.003023091458314896 0  0.008419258457098896 0.005721799910265017 0  0.008623767548895558 0.003019311274956418 0  0.008417543272430451 0.005802672068315741 0  0.008525087599857118 0.003018301731897273 0  0.008416464279248125 0.00588905651847861 0  0.008431087594226352 0.003018938460180701 0  0.008414857671986093 0.005980484950740676 0  0.008342392027717107 0.003020054832380215 0  0.008411578104923951 0.00607631300744762 0  0.008259445936461489 0.003020471211663848 0  0.008405527535824455 0.006175731319709577 0  0.008182509349292211 0.003019024853329008 0  0.008395682542970321 0.006277780817654691 0  0.008111656409014527 0.003014599720199745 0  0.008381119447013561 0.006381371967788657 0  0.008046779145346881 0.003006155472077048 0  0.008361036626979524 0.006485307491577932 0  0.007987595766591686 0.002992754906602592 0  0.008334773492744059 0.006588308031041598 0  0.007933663225123278 0.002973589164041123 0  0.008301825662481763 0.006689040151823762 0  0.007884393706229835 0.002948000060762873 0  0.008261855990795578 0.006786146013815808 0  0.007839074593337327 0.002915498984345503 0  0.00821470119903896 0.006878273995427361 0  0.00779689137756701 0.002875781865550529 0  0.008160373971076945 0.006964109531182152 0  0.007756952908035942 0.002828739836943341 0  0.008099060492600814 0.007042405414120494 0  0.007718318323066783 0.002774465292296384 0  0.008031113527237115 0.007112010824752832 0  0.007680024962909086 0.00271325317257295 0  0.00795704123519566 0.007171898376800313 0  0.007641116542652925 0.002645597420482335 0  0.007877492047271241 0.007221188515997342 0  0.007600670860259881 0.002572182663460059 0  0.007793236005976425 0.007259170670701667 0  0.007557826329114609 0.002493871301548735 0  0.007705143073969071 0.007285320630435001 0  0.007511806656826274 0.002411686289155665 0  0.007614158985545023 0.007299313718867113 0  0.007461943041351158 0.002326790005260706 0  0.007521279277912055 0.0073010334289404 0  0.007407693320609463 0.002240459702730237 0  0.007427522183731196 0.007290575297323677 0  0.007348657590981677 0.002154060111582997 0  0.007333901093897399 0.007268245910489354 0  0.007284589901391725 0.00206901384126507 0  0.007241397309057064 0.007234557052593699 0  0.007215405730813352 0.001986770281484875 0  0.007150933789699272 0.00719021512310135 0  0.007141185065425865 0.001908773738582196 0  0.007063350588039396 0.007136106066830752 0  0.007062171004568673 0.001836431563827099 0  0.006979382601016691 0.007073276167978721 0  0.006978763939261549 0.001771083030979474 0  0.006899640223662019 0.007002909160025809 0  0.006891511460488134 0.001713969702858609 0  0.006824593407373458 0.006926300192755933 0  0.006801094263833782 0.001666207991002947 0  0.006754559540147956 0.006844827273742502 0  0.006708308419676155 0.00162876455961884 0  0.006689695467758148 0.006759920862683462 0  0.006614044471369561 0.001602435156224392 0  0.006629993868701035 0.006673032341407502 0  0.006519263905397843 0.001587827368384263 0  0.006575284084148806 0.006585602109130518 0  0.006424973605244305 0.00158534771074889 0  0.006525237389907268 0.006499028060960921 0  0.006332198953034525 0.001595193341602671 0  0.006479376583406328 0.006414635197532647 0  0.006241956278528544 0.001617348595877673 0  0.006437089647876208 0.006333647085242707 0  0.006155225372873471 0.001651586404869184 0  0.006397647150892512 0.00625715984059454 0  0.00607292278421836 0.001697474554571888 0  0.006360222938045857 0.006186119249742206 0  0.005995876593836629 0.001754386617555196 0  0.006323917597038065 0.006121301557042314 0  0.005924803335248409 0.001821517280492992 0  0.006287784095183865 0.006063298366166584 0  0.005860287665879005 0.001897901683632007 0  0.0062508549359344 0.00601250599634399 0  0.00580276533234513 0.001982438292224905 0  0.006212170139093256 0.005969119527087292 0  0.005752509888229881 0.002073914735631396 0  0.006170805325914 0.005933131650016665 0  0.005709623529238961 0.002171035979469365 0  0.00612589918486164 0.005904336328960144 0  0.005674032307267846 0.002272454141595308 0  0.006076679606648487 0.005882337152288339 0  0.005645485874731519 0.002376799225137041 0  0.006022487807921907 0.005866560147323738 0  0.005623561796267508 0.002482710022195841 0  0.005962799810943057 0.005856270718467968 0  0.005607674349474454 0.002588864440638754 0  0.005897244710577686 0.005850594271079678 0  0.005597087622580383 0.002694008523617222 0  0.005825619238346946 0.005848539994562327 0  0.005590932607696336 0.002796983466621648 0  0.005747898224220681 0.005849027202760175 0  0.005588227886339777 0.002896749989114506 0  0.005664240658026499 0.005850913569457749 0  0.005587903411768036 0.002992409485755934 0  0.005574991161285845 0.005853024553003058 0  0.00558882681266186 0.003083221464236011 0  0.005480676794268173 0.0058541832778865 0  0.005589831576859201 0.003168616870700337 0  0.005381999239242995 0.005853240133126504 0  0.005589746423825433 0.003248207007348517 0  0.005279822516415462 0.005849101357707455 0  0.005587425141631403 0.00332178785741102 0  0.005175156500976945 0.005840755911796739 0  0.005581776149243588 0.003389339747608045 0  0.00506913661529584 0.005827299978297529 0  0.005571791048314209 0.003451022394501277 0  0.004963000166879053 0.005807958501303589 0  0.005556571450340227 0.003507165495970296 0  0.004858059887934908 0.005782103244641807 0  0.005535353404530312 0.003558255139524018 0  0.004755675304028876 0.005749266942985061 0  0.005507528808027482 0.003604916402549837 0  0.004657222615643685 0.005709153217746636 0  0.005472663251911699 0.003647892613343369 0  0.004564063816013228 0.005661642037623928 0  0.005430509841895833 0.003688021823527707 0  0.004477515790388595 0.00560679061654508 0  0.005381018629732107 0.003726211110241175 0  0.004398820145347423 0.005544829757060492 0  0.005324341397676651 0.003763409378575775 0  0.004329114501762111 0.00547615576202805 0  0.00526083165129817 0.003800579369906148 0  0.004269405951942947 0.005401318148896703 0  0.005191039792677943 0.00383866959910631 0  0.004220547331062618 0.005321003506214064 0  0.005115703563750334 0.003878586942798619 0  0.004183216886472467 0.005236015928541855 0  0.005035733965268281 0.003921170581761714 0  0.004157901847560569 0.005147254551350707 0  0.004952196967785547 0.00396716796394016 0  0.004144886305359802 0.005055688779556268 0  0.004866291434383562 0.004017213401087919 0  0.004144243707482425 0.004962331860358698 0  0.004779323768077839 0.004071809843297703 0  0.004155834162682716 0.004868213491542542 0  0.004692679877608203 0.004131314293258991 0  0.004179306633167043 0.004774352179382177 0  0.004607795121646793 0.004195927228129257 0  0.004214105974540842 0.0046817280652164 0  0.004526122941701917 0.004265686293763611 0  0.004259484665915422 0.004591256926493267 0  0.004449102926905492 0.004340464426324128 0  0.004314518959085191 0.004503766026986902 0  0.004378129068627031 0.004419972442741865 0  0.00593001182314166 0.006372403387971871 0  0.005939572443554628 0.006436360317137665 0  0.005925376372385204 0.006368751471385894 0  0.005946732308607814 0.006530898816930391 0  0.005866840669782601 0.00633199119654035 0  0.00594701266737181 0.006625814903473438 0  0.005804249765180952 0.006301600770407027 0  0.005940440295727538 0.006720641436504761 0  0.00573695820405656 0.00627701458488837 0  0.005927101959384199 0.006814914480349616 0  0.00566445506679863 0.006257506825568757 0  0.005907143630376305 0.006908179927508449 0  0.005586382222683439 0.006242212086839124 0  0.005880768731714959 0.007 0  0.005502548881191342 0.006230149145824911 0  0.00584823543546249 0.007089959498878739 0  0.0054129
[...]
<PointData  Tensors="$\sigma$"> 
<DataArray  type="Float64"  Name="$\sigma$"  NumberOfComponents="9" format="ascii">-5.4731778415635917e+06 1.2832727709685635e+07 0.0000000000000000e+00 1.2832727709685635e+07 1.1334974634732376e+08 0.0000000000000000e+00 0.0000000000000000e+00 0.0000000000000000e+00 0.0000000000000000e+00  -5.4357080461065909e+06 -1.0793852702525550e+07 0.0000000000000000e+00 -1.0793852702525550e+07 6.9180126615060717e+07 0.0000000000000000e+00 0.0000000000000000e+00 0.0000000000000000e+00 0.0000000000000000e+00  5.1151614441654915e+06 1.3772365388004079e+06 0.0000000000000000e+00 1.3772365388004079e+06 5.9572693946438864e+07 0.0000000000000000e+00 0.0000000000000000e+00 0.0000000000000000e+00 0.0000000000000000e+00  1.6543175380135817e+05 1.0084005719572761e+05 0.0000000000000000e+00 1.0084005719572761e+05 2.1304148322089974e+07 0.0000000000000000e+00 0.0000000000000000e+00 0.0000000000000000e+00 0.0000000000000000e+00  -3.7353272042770255e+06 -1.0030681774150686e+07 0.0000000000000000e+00 -1.0030681774150686e+07 6.0763636808729962e+07 0.0000000000000000e+00 0.0000000000000000e+00 0.0000000000000000e+00 0.0000000000000000e+00  -5.8716577072124248e+06 2.0297946825870719e+07 0.0000000000000000e+00 2.0297946825870719e+07 8.8617889565323696e+07 0.0000000000000000e+00 0.0000000000000000e+00 0.0000000000000000e+00 0.0000000000000000e+00  1.7259702919763674e+06 7.9961418153834922e+04 0.0000000000000000e+00 7.9961418153834922e+04 3.6393445418574244e+07 0.0000000000000000e+00 0.0000000000000000e+00 0.0000000000000000e+00 0.0000000000000000e+00  1.0719514039743047e+05 8.1910242216976703e+03 0.0000000000000000e+00 8.1910242216976412e+03 2.0724529270796545e+07 0.0000000000000000e+00 0.0000000000000000e+00 0.0000000000000000e+00 0.0000000000000000e+00  6.3130476509322813e+06 5.8768640566657465e+06 0.0000000000000000e+00 5.8768640566657465e+06 1.1823496294056971e+08 0.0000000000000000e+00 0.0000000000000000e+00 0.0000000000000000e+00 0.0000000000000000e+00  1.9898768698483385e+07 8.9591158723527305e+06 0.0000000000000000e+00 8.9591158723527305e+06 6.4326145357597135e+07 0.0000000000000000e+00 0.0000000000000000e+00 0.0000000000000000e+00 0.0000000000000000e+00  -6.8975725090696588e+06 -1.5025654057775395e+07 0.0000000000000000e+00 -1.5025654057775395e+07 1.6954636728843901e+08 0.0000000000000000e+00 0.0000000000000000e+00 0.0000000000000000e+00 0.0000000000000000e+00  2.4263412035293028e+07 -2.9621550121786748e+05 0.0000000000000000e+00 -2.9621550121786795e+05 3.5601937634581290e+07 0.0000000000000000e+00 0.0000000000000000e+00 0.0000000000000000e+00 0.0000000000000000e+00  -3.4020937572304215e+06 -3.9885448530760311e+07 0.0000000000000000e+00 -3.9885448530760311e+07 1.9931177948841786e+08 0.0000000000000000e+00 0.0000000000000000e+00 0.0000000000000000e+00 0.0000000000000000e+00  2.5631156672238585e+07 -6.5798942824562080e+05 0.0000000000000000e+00 -6.5798942824561917e+05 1.0756282175614662e+07 0.0000000000000000e+00 0.0000000000000000e+00 0.0000000000000000e+00 0.0000000000000000e+00  -6.0048316592139592e+06 -5.5624762126085639e+07 0.0000000000000000e+00 -5.5624762126085639e+07 2.1308006762532249e+08 0.0000000000000000e+00 0.0000000000000000e+00 0.0000000000000000e+00 0.0000000000000000e+00  1.8538257261477699e+05 -1.2410986847214323e+07 0.0000000000000000e+00 -1.2410986847214324e+07 1.6441403390595384e+07 0.0000000000000000e+00 0.0000000000000000e+00 0.0000000000000000e+00 0.0000000000000000e+00  2.1407807352237329e+07 -5.9279708237036169e+07 0.0000000000000000e+00 -5.9279708237036169e+07 2.0366850593473774e+08 0.0000000000000000e+00 0.0000000000000000e+00 0.0000000000000000e+00 0.0000000000000000e+00  3.0168679827513150e+06 2.0060654446556508e+06 0.0000000000000000e+00 2.0060654446556512e+06 1.2481785047182780e+07 0.0000000000000000e+00 0.0000000000000000e+00 0.0000000000000000e+00 0.0000000000000000e+00  3.5298464820682546e+06 1.2063794239216629e+08 0.0000000000000000e+00 1.2063794239216629e+08 3.3276322982615131e+08 0.0000000000000000e+00 0.0000000000000000e+00 0.0000000000000000e+00 0.0000000000000000e+00  -4.0052924870838062e+05 4.5548588712919047e+06 0.0000000000000000e+00 4.5548588712919047e+06 4.2670567455384377e+06 0.0000000000000000e+00 0.0000000000000000e+00 0.0000000000000000e+00 0.0000000000000000e+00  -1.0125045921524487e+08 2.1616859506415710e+07 0.0000000000000000e+00 2.1616859506415710e+07 5.4032138309569728e+08 0.0000000000000000e+00 0.0000000000000000e+00 0.0000000000000000e+00 0.0000000000000000e+00  -5.1556980057620211e+06 5.5370812811348261e+05 0.0000000000000000e+00 5.5370812811348261e+05 -4.7285585678508063e+05 0.0000000000000000e+00 0.0000000000000000e+00 0.0000000000000000e+00 0.0000000000000000e+00  -1.4978145859995430e+07 -9.4762700385223955e+07 0.0000000000000000e+00 -9.4762700385223955e+07 4.0696595747157460e+08 0.0000000000000000e+00 0.0000000000000000e+00 0.0000000000000000e+00 0.0000000000000000e+00  -5.5120833506222162e+06 2.7439515313639538e+06 0.0000000000000000e+00 2.7439515313639538e+06 -1.0953606929421483e+06 0.0000000000000000e+00 0.0000000000000000e+00 0.0000000000000000e+00 0.0000000000000000e+00  -2.0325702781560622e+07 4.3754106469508708e+07 0.0000000000000000e+00 4.3754106469508708e+07 2.1689291073735020e+08 0.0000000000000000e+00 0.0000000000000000e+00 0.0000000000000000e+00 0.0000000000000000e+00  -7.6524504853189886e+06 4.2964178291940447e+06 0.0000000000000000e+00 4.2964178291940447e+06 -2.0534259973124056e+06 0.0000000000000000e+00 0.0000000000000000e+00 0.0000000000000000e+00 0.0000000000000000e+00  -4.1442595112732515e+07 2.9232325843592044e+07 0.0000000000000000e+00 2.9232325843592044e+07 2.1665294639188007e+08 0.0000000000000000e+00 0.0000000000000000e+00 0.0000000000000000e+00 0.0000000000000000e+00  -6.9744821711850129e+06 3.3150153368625478e+06 0.0000000000000000e+00 3.3150153368625478e+06 -2.9595219976501577e+06 0.0000000000000000e+00 0.0000000000000000e+00 0.0000000000000000e+00 0.0000000000000000e+00  -5.1754273709903270e+07 4.0796977620579638e+06 0.0000000000000000e+00 4.0796977620579638e+06 1.9651604249399969e+08 0.0000000000000000e+00 0.0000000000000000e+00 0.0000000000000000e+00 0.0000000000000000e+00  -6.4548009596954063e+06 3.5229857000442473e+06 0.0000000000000000e+00 3.5229857000442478e+06 -2.0305312227474188e+06 0.0000000000000000e+00 0.0000000000000000e+00 0.0000000000000000e+00 0.0000000000000000e+00  -5.1903205845818803e+07 -3.1917912974331681e+07 0.0000000000000000e+00 -3.1917912974331681e+07 1.5318384614495069e+08 0.0000000000000000e+00 0.0000000000000000e+00 0.0000000000000000e+00 0.0000000000000000e+00  -5.6950436709900787e+06 3.6235534267723123e+06 0.0000000000000000e+00 3.6235534267723127e+06 -1.9782759986517243e+06 0.0000000000000000e+00 0.0000000000000000e+00 0.0000000000000000e+00 0.0000000000000000e+00  -4.6873561106002659e+07 -6.4589768699862376e+07 0.0000000000000000e+00 -6.4589768699862376e+07 1.0040082083214039e+08 0.0000000000000000e+00 0.0000000000000000e+00 0.0000000000000000e+00 0.0000000000000000e+00  -4.2059354503020672e+06 3.0791854653203888e+06 0.0000000000000000e+00 3.0791854653203888e+06 -1.9044302575436160e+06 0.0000000000000000e+00 0.0000000000000000e+00 0.0000000000000000e+00 0.0000000000000000e+00  -1.3076121148316215e+06 -6.6690679076301150e+07 0.0000000000000000e+00 -6.6690679076301150e+07 1.6436183794631021e+07 0.0000000000000000e+00 0.0000000000000000e+00 0.0000000000000000e+00 0.0000000000000000e+00  -3.3469577533797952e+06 2.7857775406172951e+06 0.0000000000000000e+00 2.7857775406172951e+06 -1.7808233978470839e+06 0.0000000000000000e+00 0.0000000000000000e+00 0.0000000000000000e+00 0.0000000000000000e+00  -1.2296827699112028e+08 -8.6754750458661746e+06 0.0000000000000000e+00 -8.6754750458661746e+06 -2.1339445265128523e+07 0.0000000000000000e+00 0.0000000000000000e+00 0.0000000000000000e+00 0.0000000000000000e+00  -2.3823917771673552e+06 2.3592962458086754e+06 0.0000000000000000e+00 2.3592962458086754e+06 -2.0197001656735616e+06 0.0000000000000000e+00 0.0000000000000000e+00 0.0000000000000000e+00 0.0000000000000000e+00  -7.5536050370917708e+07 -5.5310051458674319e+07 0.0000000000000000e+00 -5.5310051458674319e+07 -2.0663170406992231e+07 0.0000000000000000e+00 0.0000000000000000e+00 0.0000000000000000e+00 0.0000000000000000e+00  -1.7677365660042339e+06 2.0657245533369684e+06 0.0000000000000000e+00 2.0657245533369686e+06 -2.2996295752311521e+06 0.0000000000000000e+00 0.0000000000000000e+00 0.0000000000000000e+00 0.0000000000000000e+00  -6.8545068841194928e+07 -1.6605521987764301e+07 0.0000000000000000e+00 -1.6605521987764301e+07 -2.1450384808908343e+07 0.0000000000000000e+00 0.0000000000000000e+00 0.0000000000000000e+00 0.0000000000000000e+00  -1.1551386435738762e+06 1.8288323727735414e+06 0.0000000000000000e+00 1.8288323727735404e+06 -2.6761552744085710e+06 0.0000000000000000e+00 0.0000000000000000e+00 0.0000000000000000e+00 0.0000000000000000e+00  -4.6501505832005374e+07 -2.4210803439302996e+07 0.0000000000000000e+00 -2.4210803439302996e+07 -1.3233208060175270e+07 0.0000000000000000e+00 0.0000000000000000e+00 0.0000000000000000e+00 0.0000000000000000e+00  -6.2698852681785612e+05 1.5320681173008794e+06 0.0000000000000000e+00 1.5320681173008792e+06 -3.0453338044166365e+06 0.0000000000000000e+00 0.0000000000000000e+00 0.0000000000000000e+00 0.0000000000000000e+00  -7.6150024155727014e+07 -1.7335334156326983e+07 0.0000000000000000e+00 -1.7335334156326983e+07 1.1893452256964917e+05 0.0000000000000000e+00 0.0000000000000000e+00 0.0000000000000000e+00 0.0000000000000000e+00  -3.5954384857971838e+05 1.2193850052430772e+06 0.0000000000000000e+00 1.2193850052430774e+06 -3.6973593658412946e+06 0.0000000000000000e+00 0.0000000000000000e+00 0.0000000000000000e+00 0.0000000000000000e+00  -5.2503561264576837e+07 -1.2984782025063630e+07 0.0000000000000000e+00 -1.2984782025063630e+07 -1.3863316450490842e+06 0.0000000000000000e+00 0.0000000000000000e+00 0.0000000000000000e+00 0.0000000000000000e+00  -2.3032118609678032e+05 1.0445584908853958e+06 0.0000000000000000e+00 1.0445584908853956e+06 -4.3241824455970973e+06 0.0000000000000000e+00 0.0000000000000000e+00 0.0000000000000000e+00 0.0000000000000000e+00  -4.5766469178382047e+07 -8.3228352765560541e+06 0.0000000000000000e+00 -8.3228352765560541e+06 -1.9395048168712056e+06 0.0000000000000000e+00 0.0000000000000000e+00 0.0000000000000000e+00 0.0000000000000000e+00  -3.1504606781507906e+05 7.3520048470257677e+05 0.0000000000000000e+00 7.3520048470257677e+05 -4.9147755388162481e+06 0.0000000000000000e+00 0.0000000000000000e+00 0.0000000000000000e+00 0.0000000000000000e+00  -4.1956202535522446e+07 -3.4805401573163583e+06 0.0000000000000000e+00 -3.4805401573163583e+06 -7.0413719943036954e+05 0.0000000000000000e+00 0.0000000000000000e+00 0.0000000000000000e+00 0.0000000000000000e+00  1.3232261425961941e+05 7.4549919019454974e+05 0.0000000000000000e+00 7.4549919019454974e+05 -6.0418019049142925e+06 0.0000000000000000e+00 0.0000000000000000e+00 0.0000000000000000e+00 0.0000000000000000e+00  -3.5724826942182824e+07 -2.4023932898813114e+06 0.0000000000000000e+00 -2.4023932898813114e+06 7.1811903880768892e+04 0.0000000000000000e+00 0.0000000000000000e+00 0.0000000000000000e+00 0.0000000000000000e+00  -2.2715172424086754e+05 3.9121637615400570e+05 0.0000000000000000e+00 3.9121637615400570e+05 -6.7342757367802570e+06 0.0000000000000000e+00 0.0000000000000000e+00 0.0000000000000000e+00 0.0000000000000000e+00  -2.9448412820460599e+07 -2.0149080248383994e+06 0.0000000000000000e+00 -2.0149080248383994e+06 -7.7949397685012460e+04 0.0000000000000000e+00 0.0000000000000000e+00 0.0000000000000000e+00 0.0000000000000000e+00  -7.8176406564949325e+05 -2.8185839407094125e+04 0.0000000000000000e+00 -2.8185839407094125e+04 -7.2548956016349541e+06 0.0000000000000000e+00 0.0000000000000000e+00 0.0000000000000000e+00 0.0000000000000000e+00  -2.4253092214805830e+07 -8.9608247389790881e+05 0.0000000000000000e+00 -8.9608247389790881e+05 -1.9967406332827453e+04 0.0000000000000000e+00 0.0000000000000000e+00 0.0000000000000000e+00 0.0000000000000000e+00  -5.1780818397058715e+05 6.6647206273085170e+05 0.0000000000000000e+00 6.6647206273085170e+05 -8.3497689045734899e+06 0.0000000000000000e+00 0.0000000000000000e+00 0.0000000000000000e+00 0.0000000000000000e+00  -1.9760586204505291e+07 -3.4825139400919486e+05 0.0000000000000000e+00 -3.4825139400919486e+05 -7.0609349765948791e+04 0.0000000000000000e+00 0.0000000000000000e+00 0.0000000000000000e+00 0.0000000000000000e+00  -4.9371037142898480e+05 1.2429246656645534e+06 0.0000000000000000e+00 1.2429246656645534e+06 -8.9838339031120613e+06 0.0000000000000000e+00 0.0000000000000000e+00 0.0000000000000000e+00 0.0000000000000000e+00  -1.5490259167944407e+07 -5.2110461156896601e+05 0.0000000000000000e+00 -5.2110461156896601e+05 1.2410655823788261e+05 0.0000000000000000e+00 0.0000000000000000e+00 0.0000000000000000e+00 0.0000000000000000e+00  -1.1602265089519648e+06 1.0400186657962995e+06 0.0000000000000000e+00 1.0400186657962995e+06 -8.3385489838621682e+06 0.0000000000000000e+00 0.0000000000000000e+00 0.0000000000000000e+00 0.0000000000000000e+00  -1.1810971404054115e+07 -5.5875142196418415e+05 0.0000000000000000e+00 -5.5875142196418415e+05 -1.8358918791809825e+04 0.0000000000000000e+00 0.0000000000000000e+00 0.0000000000000000e+00 0.0000000000000000e+00  -1.1783138251838225e+06 1.9492887937201501e+06 0.0000000000000000e+00 1.9492887937201504e+06 -8.2788865033064773e+06 0.0000000000000000e+00 0.0000000000000000e+00 0.0000000000000000e+00 0.0000000000000000e+00  -9.3704268099822160e+06 -6.2973636714748235e+05 0.0000000000000000e+00 -6.2973636714748235e+05 9.3512604388219424e+03 0.0000000000000000e+00 0.0000000000000000e+00 0.0000000000000000e+00 0.0000000000000000e+00  7.3218531282995793e+05 2.1565262012184667e+06 0.0000000000000000e+00 2.1565262012184672e+06 -1.2461444137467138e+07 0.0000000000000000e+00 0.0000000000000000e+00 0.0000000000000000e+00 0.0000000000000000e+00  -6.6453102327729426e+06 -8.9043834344239475e+05 0.0000000000000000e+00 -8.9043834344239475e+05 5.8819816310275331e+04 0.0000000000000000e+00 0.0000000000000000e+00 0.0000000000000000e+00 0.0000000000000000e+00  -7.1136052920314705e+05 1.7965770582507171e+06 0.0000000000000000e+00 1.7965770582507174e+06 -8.8945631689702421e+06 0.0000000000000000e+00 0.0000000000000000e+00 0.0000000000000000e+00 0.0000000000000000e+00  -5.5686487589783575e+06 -1.1961505974750097e+06 0.0000000000000000e+00 -1.1961505974750097e+06 -2.7723609519454179e+05 0.0000000000000000e+00 0.0000000000000000e+00 0.0000000000000000e+00 0.0000000000000000e+00  5.7567421271985630e+04 1.2287961470599233e+06 0.0000000000000000e+00 1.2287961470599233e+06 -1.2662113363598378e+07 0.0000000000000000e+00 0.0000000000000000e+00 0.0000000000000000e+00 0.0000000000000000e+00  -4.1171772298392486e+06 -1.2448463290045010e+06 0.0000000000000000e+00 -1.2448463290045010e+06 -2.3212369610718466e+05 0.0000000000000000e+00 0.0000000000000000e+00 0.0000000000000000e+00 0.0000000000000000e+00  3.0746144784196408e+05 3.2414219825615799e+06 0.0000000000000000e+00 3.2414219825615799e+06 -8.3977240953611340e+06 0.0000000000000000e+00 0.0000000000000000e+00 0.0000000000000000e+00 0.0000000000000000e+00  -3.3292547293824186e+06 -1.5337715325946014e+06 0.0000000000000000e+00 -1.5337715325946014e+06 -5.7417185630675475e+05 0.0000000000000000e+00 0.0000000000000000e+00 0.0000000000000000e+00 0.0000000000000000e+00  -2.0068142387147418e+06 3.9423373892045598e+06 0.0000000000000000e+00 3.9423373892045598e+06 -8.7260350497461036e+06 0.0000000000000000e+00 0.0000000000000000e+00 0.0000000000000000e+00 0.0000000000000000e+00  -2.7514524651116608e+06 -1.9265741872463420e+06 0.0000000000000000e+00 -1.9265741872463420e+06 -1.1701315951709789e+06 0.0000000000000000e+00 0.0000000000000000e+00 0.0000000000000000e+00 0.0000000000000000e+00  -9.7385202834770968e+05 3.2751932080276627e+06 0.0000000000000000e+00 3.2751932080276627e+06 -7.3558180692352345e+06 0.0000000000000000e+00 0.0000000000000000e+00 0.0000000000000000e+00 0.0000000000000000e+00  -2.7015204161838926e+06 -2.0497879534432094e+06 0.0000000000000000e+00 -2.0497879534432094e+06 -1.4235287801005563e+06 0.0000000000000000e+00 0.0000000000000000e+00 0.0000000000000000e+00 0.0000000000000000e+00  -2.4791980269867382e+06 5.9408062279822761e+06 0.0000000000000000e+00 5.9408062279822761e+06 -9.5966144366392773e+06 0.0000000000000000e+00 0.0000000000000000e+00 0.0000000000000000e+00 0.0000000000000000e+00  -2.2740081555708633e+06 -2.3932797618916309e+06 0.0000000000000000e+00 -2.3932797618916309e+06 -2.2420311099354881e+06 0.0000000000000000e+00 0.0000000000000000e+00 0.0000000000000000e+00 0.0000000000000000e+00  -2.8490579895686847e+06 4.0107788911996610e+06 0.0000000000000000e+00 4.0107788911996610e+06 -6.2054414186982587e+06 0.0000000000000000e+00 0.0000000000000000e+00 0.0000000000000000e+00 0.0000000000000000e+00  -2.1577002197903837e+06 -2.6454966274288539e+06 0.0000000000000000e+00 -2.6454966274288539e+06 -3.1878057144227787e+06 0.0000000000000000e+00 0.0000000000000000e+00 0.0000000000000000e+00 0.0000000000000000e+00  -5.8006489533406505e+06 5.7483266387096578e+06 0.0000000000000000e+00 5.7483266387096578e+06 -7.0515199748067958e+06 0.0000000000000000e+00 0.0000000000000000e+00 0.0000000000000000e+00 0.0000000000000000e+00  -2.5937202772034490e+06 -3.6775340067587160e+06 0.0000000000000000e+00 -3.6775340067587160e+06 -4.8899600943715079e+06 0.0000000000000000e+00 0.0000000000000000e+00 0.0000000000000000e+00 0.0000000000000000e+00  -7.5976134090103488e+06 5.9085307001413265e+06 0.0000000000000000e+00 5.9085307001413265e+06 -5.1935530031426270e+06 0.0000000000000000e+00 0.0000000000000000e+00 0.0000000000000000e+00 0.0000000000000000e+00  -2.6646860023628301e+06 -4.1753822864499837e+06 0.0000000000000000e+00 -4.1753822864499837e+06 -6.4126573184694992e+06 0.0000000000000000e+00 0.0000000000000000e+00 0.0000000000000000e+00 0.0000000000000000e+00  -8.6872590113837998e+06 6.4290917090978734e+06 0.0000000000000000e+00 6.4290917090978734e+06 -5.2119918602895960e+06 0.0000000000000000e+00 0.0000000000000000e+00 0.0000000000000000e+00 0.0000000000000000e+00  -2.9787983943487075e+06 -5.0320575644097067e+06 0.0000000000000000e+00 -5.0320575644097067e+06 -8.2409570205552578e+06 0.0000000000000000e+00 0.0000000000000000e+00 0.0000000000000000e+00 0.0000000000000000e+00  -1.0805763237603880e+07 5.3661093553942889e+06 0.0000000000000000e+00 5.3661093553942889e+06 -3.1169598292930536e+06 0.0000000000000000e+00 0.0000000000000000e+00 0.0000000000000000e+00 0.0000000000000000e+00  -3.6017275716269379e+06 -6.1438146803934248e+06 0.0000000000000000e+00 -6.1438146803934239e+06 -1.0492535719565969e+07 0.0000000000000000e+00 0.0000000000000000e+00 0.0000000000000000e+00 0.0000000000000000e+00  -1.1021587229205456e+07 4.3058697262819270e+06 0.0000000000000000e+00 4.3058697262819270e+06 -1.8675247266630104e+06 0.0000000000000000e+00 0.0000000000000000e+00 0.0000000000000000e+00 0.0000000000000000e+00  -4.3251872956697363e+06 -7.2548600806032298e+06 0.0000000000000000e+00 -7.2548600806032317e+06 -1.2301634043413768e+07 0.0000000000000000e+00 0.0000000000000000e+00 0.0000000000000000e+00 0.0000000000000000e+00  -9.6586918421690036e+06 2.4883107052172571e+06 0.0000000000000000e+00 2.4883107052172571e+06 -1.1218343864342093e+06 0.0000000000000000e+00 0.0000000000000000e+00 0.0000000000000000e+00 0.0000000000000000e+00  -5.3182155052270852e+06 -8.6196586686648875e+06 0.0000000000000000e+00 -8.6196586686648857e+06 -1.4238003858636219e+07 0.0000000000000000e+00 0.0000000000000000e+00 0.0000000000000000e+00 0.0000000000000000e+00  -8.5444189310602564e+06 1.0847362617880765e+06 0.0000000000000000e+00 1.0847362617880765e+06 -4.6376694417326583e+05 0.0000000000000000e+00 0.0000000000000000e+00 0.0000000000000000e+00 0.0000000000000000e+00  -6.3896301068255538e+06 -9.8160287767034229e+06 0.0000000000000000e+00 -9.8160287767034248e+06 -1.552013660