<?xml version="1.0"?>
<VTKFile type="UnstructuredGrid"  version="0.1"  >
<UnstructuredGrid>
<Piece  NumberOfPoints="2165" NumberOfCells="4161">
<Points>
<DataArray  type="Float64"  NumberOfComponents="3"  format="ascii">-3.598637933768527e-16 0.3500000000000001 0  0.05 0.4 0  -3.537405593811159e-16 0.45 0  0 1 0  1 1 0  0.9999999999999997 0.65 0  0.9999999999999997 0.5499999999999999 0  1 0 0  0 0 0  0.0191341716182545 0.3538060233744357 0  0.03535533905932737 0.3646446609406727 0  0.04619397662556433 0.3808658283817455 0  0.04619397662556434 0.4191341716182545 0  0.03535533905932738 0.4353553390593274 0  0.01913417161825449 0.4461939766255644 0  0 0.975 0  0 0.95 0  0 0.9249999999999999 0  0 0.8999999999999998 0  0 0.8749999999999998 0  0 0.8499999999999998 0  0 0.8249999999999997 0  0 0.7999999999999996 0  0 0.7749999999999996 0  0 0.7499999999999996 0  0 0.7249999999999996 0  0 0.6999999999999997 0  0 0.6749999999999998 0  0 0.6499999999999999 0  0 0.6249999999999999 0  0 0.6 0  0 0.575 0  0 0.5499999999999998 0  0 0.5249999999999999 0  0 0.4999999999999998 0  0 0.4749999999999999 0  0.975 1 0  0.95 1 0  0.925 1 0  0.9 1 0  0.875 1 0  0.85 1 0  0.825 1 0  0.8 1 0  0.775 1 0  0.75 1 0  0.725 1 0  0.7 1 0  0.675 1 0  0.65 1 0  0.625 1 0  0.6 1 0  0.575 1 0  0.55 1 0  0.525 1 0  0.5 1 0  0.475 1 0  0.45 1 0  0.425 1 0  0.4 1 0  0.375 1 0  0.35 1 0  0.325 1 0  0.3 1 0  0.275 1 0  0.25 1 0  0.225 1 0  0.2 1 0  0.175 1 0  0.15 1 0  0.125 1 0  0.09999999999999998 1 0  0.07499999999999996 1 0  0.05000000000000004 1 0  0.02500000000000002 1 0  1 0.675 0  1 0.7000000000000001 0  1 0.7250000000000001 0  1 0.7500000000000001 0  1 0.7750000000000001 0  1 0.8000000000000002 0  1 0.8250000000000002 0  1 0.8500000000000002 0  1 0.8750000000000003 0  1 0.9000000000000001 0  1 0.9250000000000002 0  1 0.9500000000000001 0  1 0.9750000000000001 0  0.9783058130441221 0.6450484433951209 0  0.9609084258765985 0.6311744900929367 0  0.9512536043909088 0.6111260466978157 0  0.9512536043909088 0.5888739533021843 0  0.9609084258765985 0.5688255099070633 0  0.9783058130441221 0.554951556604879 0  1 0.02500000000000002 0  1 0.05000000000000004 0  1 0.07500000000000008 0  1 0.1000000000000001 0  1 0.1250000000000001 0  1 0.1500000000000002 0  1 0.1750000000000002 0  1 0.2000000000000003 0  1 0.2250000000000003 0  1 0.2500000000000004 0  1 0.2750000000000004 0  1 0.3000000000000003 0  1 0.3250000000000002 0  1 0.3500000000000001 0  1 0.3750000000000001 0  1 0.3999999999999999 0  1 0.425 0  1 0.45 0  1 0.475 0  1 0.5000000000000001 0  1 0.5249999999999999 0  0.025 0 0  0.05 0 0  0.075 0 0  0.1 0 0  0.125 0 0  0.15 0 0  0.175 0 0  0.2 0 0  0.225 0 0  0.25 0 0  0.275 0 0  0.3 0 0  0.325 0 0  0.35 0 0  0.375 0 0  0.4 0 0  0.425 0 0  0.45 0 0  0.475 0 0  0.5 0 0  0.525 0 0  0.55 0 0  0.575 0 0  0.6 0 0  0.625 0 0  0.65 0 0  0.675 0 0  0.7 0 0  0.725 0 0  0.75 0 0  0.775 0 0  0.8 0 0  0.825 0 0  0.85 0 0  0.875 0 0  0.9 0 0  0.925 0 0  0.95 0 0  0.975 0 0  0 0.3250000000000001 0  0 0.3 0  0 0.275 0  0 0.2499999999999999 0  0 0.2249999999999999 0  0 0.1999999999999998 0  0 0.1749999999999998 0  0 0.1499999999999998 0  0 0.1249999999999998 0  0 0.09999999999999987 0  0 0.07499999999999984 0  0 0.04999999999999993 0  0 0.02500000000000002 0  0.06453325334544308 0.4134708543086404 0  0.5146839915088474 0.02134387884913819 0  0.4875871001393628 0.9784117024331356 0  0.9386300160094723 0.5701776715936071 0  0.0216506350946109 0.6124999999999999 0  0.9764205887290853 0.3596067946540696 0  0.3876261045932067 0.02156097490657183 0  0.6125 0.978349364905389 0  0.3612127461797463 0.9792371404802113 0  0.6374786650398092 0.02079982608537345 0  0.9387185538472446 0.6295115890709873 0  0.05482260092545593 0.3633687091864355 0  0.02445354803948679 0.7343198207875321 0  0.2624888813627476 0.02091671348578122 0  0.7375212991274043 0.9794996488945376 0  0.9793010831723812 0.2648509348664836 0  0.2625026480689301 0.9795699185263282 0  0.7362840788105066 0.02225211062275217 0  0.02159327910297104 0.2128861809896528 0  0.9786837570973538 0.7867241244631172 0  0.02419728000065929 0.8365600234152764 0  0.980043283615984 0.1624097203408714 0  0.1645857434226354 0.0205513501962844 0  0.8339481359352011 0.9784483546369231 0  0.1637584777222821 0.9774556328160621 0  0.8374916614314967 0.02165097219510076 0  0.02171915379676059 0.5370700005916152 0  0.9795335762511281 0.4365726939225819 0  0.02319480745007968 0.1370197632171214 0  0.9774462976085161 0.8592616917551974 0  0.9786941241076723 0.7122511101067891 0  0.9797883857882621 0.08781864217752949 0  0.01966314788989931 0.9125801876811624 0  0.02051815350151098 0.2882126194470174 0  0.09063226699593246 0.0214884092697174 0  0.9124408843562394 0.9818463395009377 0  0.03872465516591678 0.452731089005145 0  0.08969424365256845 0.978412979507602 0  0.9124999999999999 0.02165063509461096 0  0.02158104789437187 0.6619299176372371 0  0.9796602354625652 0.4859004208706154 0  0.3127517983598529 0.02417963694738812 0  0.4375629605000894 0.02158039900821679 0  0.5643674594196073 0.01968996000301126 0  0.5368361594956101 0.9790428840407062 0  0.4376176251051295 0.9783667484208922 0  0.6874072695660477 0.978435143102373 0  0.310604317388614 0.979558305560928 0  0.2125577044121564 0.02066685543111635 0  0.6875 0.0216506350946109 0  0.02224009810917643 0.08811420611559456 0  0.790876428529276 0.978633065284896 0  0.2125 0.978349364905389 0  0.9788033534786624 0.2116925349935155 0  0.9769441169344462 0.3150381335760689 0  0.9804648376981185 0.9123186437266726 0  0.7874999988222203 0.02127957051165741 0  0.02109233852270731 0.786866823287435 0  0.9483709287873718 0.5504073206521916 0  0.9259842326464427 0.5519702047534598 0  0.9163209045278007 0.5719292915927929 0  0.9035374059862284 0.5537291796040291 0  0.8938951918780048 0.5738949757882954 0  0.8807940177559743 0.5546750869516996 0  0.8712661812741653 0.5757142549099102 0  0.8580668865514332 0.5563902430113601 0  0.848508161986991 0.5779004013072002 0  0.8354274200119249 0.5591176379057713 0  0.8256349826905482 0.5800610629400762 0  0.8124123591208572 0.5604454546391737 0  0.802603410938817 0.5819653950592523 0  0.7892876429890218 0.562234610648543 0  0.7794355871850538 0.583896242519796 0  0.7661469824381839 0.5648243426306435 0  0.7562387679604726 0.5860005456930413 0  0.7429651600512166 0.5669367633461588 0  0.7330846968880171 0.5879590907760761 0  0.7198577999459205 0.5688986880627463 0  0.7297050500533544 0.5479561801187277 0  0.7066243396993471 0.5499068108517552 0  0.6968285086900206 0.5707989520567972 0  0.6836266810714333 0.5519088927359967 0  0.6738604685766018 0.5727655091567184 0  0.6607284761452521 0.5538781923028128 0  0.6697149783704412 0.5321140554135094 0  0.6473436039782401 0.5350050604671006 0  0.6378867365666199 0.5557804038095817 0  0.6246915360243652 0.5362124690568238 0  0.6151175309583405 0.5575933164645619 0  0.6019784180102355 0.5380659376543677 0  0.5924099113505394 0.5593739656462906 0  0.5794110962027638 0.541110021814312 0  0.5697985396917309 0.5614600003719357 0  0.5568468707330213 0.5433212932327446 0  0.5472634011377896 0.5635652141280936 0  0.5343236363495072 0.5451361960661517 0  0.5247877773262166 0.565493591892781 0  0.5118927934227436 0.5470665328397559 0  0.5023398230005425 0.5674381114577953 0  0.5213991904098014 0.5267047787870831 0  0.4990390504096661 0.528649139287786 0  0.6328887517229864 0.5131744321062524 0  0.5085133205790763 0.5083322037773296 0  0.4861972978925295 0.5102540920324363 0  0.4956914791804768 0.4899605513008993 0  0.4734139980312694 0.4918582759645476 0  0.4826986629698439 0.4717164019717278 0  0.460570567761715 0.473509155475794 0  0.4699344541058981 0.4533140529328089 0  0.4477087341565655 0.4550973130597117 0  0.4381733274019614 0.4752901381741884 0  0.4570222843287571 0.4349938694701042 0  0.4348599018247688 0.436728068420533 0  0.5604623134382263 0.581815997002507 0  0.4443612964408632 0.416499823314016 0  0.422056299386984 0.4183730429856528 0  0.4688721528228815 0.4135009841763965 0  0.4315584877924544 0.398120546824229 0  0.4092288692044618 0.3999974286008185 0  0.7463210599443056 0.6070829843371945 0  0.4187270626688335 0.3797365044773463 0  0.3964262302393312 0.3817184136470017 0  0.3869780036193907 0.4018498778543814 0  0.3742423843122406 0.3837055716372927 0  0.3648701490102072 0.4037049758807119 0  0.3518115403926748 0.3858985036587403 0  0.3426146276710081 0.4056777495658291 0  0.3614541441355358 0.3656396497906528 0  0.339026673715919 0.3678724679736439 0  0.3485566370135618 0.3476560889674916 0  0.3264681821394378 0.3496422822523857 0  0.8219942777991693 0.5379143061758643 0  0.3358297439968608 0.3295117748868035 0  0.3137050884585635 0.3314921667582986 0  0.3229980644152205 0.3113561769498422 0  0.3007986024336577 0.3133063832007756 0  0.3441851868720173 0.3085211458266175 0  0.3101966551534752 0.2930273704914169 0  0.287793053707373 0.2950088132226583 0  0.2914417217227097 0.3337427541189321 0  0.2975120686695638 0.2743682539701985 0  0.274864585256681 0.2764253296978281 0  0.816026571618698 0.6006851919544112 0  0.2844672854128698 0.2557011565880619 0  0.2617267434509338 0.2577713002235077 0  0.3072711221189672 0.2536790056475094 0  0.2521588568690318 0.2785072139143895 0  0.2389277409161178 0.2598761196336353 0  0.248448076747058 0.2389478879785275 0  0.5053822153261678 0.4716915524631118 0  0.229548765875869 0.2806542761043101 0  0.2254561407802683 0.2411354049374563 0  0.2350621310805047 0.2199181955146378 0  0.2117782450160163 0.222165061041625 0  0.2214249125635323 0.2008136877065064 0  0.2448758256083499 0.1985732693215908 0  0.197966291680556 0.2031211006951591 0  0.1883147493074436 0.2245564097761413 0  0.8910637266939049 0.5322898364209732 0  0.1748136087708587 0.2051141748992724 0  0.1842088801696792 0.1837087814679069 0  0.1656574100807746 0.2269812054689968 0  0.3554582346764377 0.4236292557112198 0  0.3328979939923831 0.425459320867588 0  0.3460368767112177 0.4435398346083328 0  0.3238464003
[...]
<PointData  Tensors="$\sigma$"> 
<DataArray  type="Float64"  Name="$\sigma$"  NumberOfComponents="9" format="ascii">7.2691115220142889e+05 -9.1503659909620434e+06 0.0000000000000000e+00 -9.1503659909620434e+06 -1.8125964182177216e+07 0.0000000000000000e+00 0.0000000000000000e+00 0.0000000000000000e+00 0.0000000000000000e+00  8.4770335299794897e+07 -1.3934754194686815e+05 0.0000000000000000e+00 -1.3934754194686815e+05 5.4778088443837583e+08 0.0000000000000000e+00 0.0000000000000000e+00 0.0000000000000000e+00 0.0000000000000000e+00  1.2089173292731051e+06 1.0489910931485945e+07 0.0000000000000000e+00 1.0489910931485945e+07 -1.9210368854709774e+07 0.0000000000000000e+00 0.0000000000000000e+00 0.0000000000000000e+00 0.0000000000000000e+00  -5.6686779301426495e+03 2.0408614336205486e+04 0.0000000000000000e+00 2.0408614336205486e+04 1.8760931292095652e+08 0.0000000000000000e+00 0.0000000000000000e+00 0.0000000000000000e+00 0.0000000000000000e+00  -4.4245195895183489e+04 -7.6209628861804003e+03 0.0000000000000000e+00 -7.6209628861804003e+03 1.8227448112330166e+08 0.0000000000000000e+00 0.0000000000000000e+00 0.0000000000000000e+00 0.0000000000000000e+00  3.4726986643182705e+06 -1.0059102362457097e+07 0.0000000000000000e+00 -1.0059102362457097e+07 1.9458962336280427e+06 0.0000000000000000e+00 0.0000000000000000e+00 0.0000000000000000e+00 0.0000000000000000e+00  9.9424996185266413e+06 -7.4831787871972620e+06 0.0000000000000000e+00 -7.4831787871972620e+06 7.5005443450626368e+06 0.0000000000000000e+00 0.0000000000000000e+00 0.0000000000000000e+00 0.0000000000000000e+00  -2.0523075613007830e+04 -7.0242963521857143e+02 0.0000000000000000e+00 -7.0242963521857143e+02 1.8783043874601355e+08 0.0000000000000000e+00 0.0000000000000000e+00 0.0000000000000000e+00 0.0000000000000000e+00  -3.5585921354702361e+04 -4.6397268659434667e+04 0.0000000000000000e+00 -4.6397268659434667e+04 1.8182040319515881e+08 0.0000000000000000e+00 0.0000000000000000e+00 0.0000000000000000e+00 0.0000000000000000e+00  2.8616372974980664e+07 3.3794958397651933e+07 0.0000000000000000e+00 3.3794958397651933e+07 3.9438415235405281e+07 0.0000000000000000e+00 0.0000000000000000e+00 0.0000000000000000e+00 0.0000000000000000e+00  8.3003510124329582e+07 1.1109630898149756e+08 0.0000000000000000e+00 1.1109630898149756e+08 1.8731582036868063e+08 0.0000000000000000e+00 0.0000000000000000e+00 0.0000000000000000e+00 0.0000000000000000e+00  8.5418507600741640e+07 1.2069473369078371e+08 0.0000000000000000e+00 1.2069473369078371e+08 4.3663557700959140e+08 0.0000000000000000e+00 0.0000000000000000e+00 0.0000000000000000e+00 0.0000000000000000e+00  8.4945446555522755e+07 -1.2332825066755037e+08 0.0000000000000000e+00 -1.2332825066755037e+08 4.3619819220124477e+08 0.0000000000000000e+00 0.0000000000000000e+00 0.0000000000000000e+00 0.0000000000000000e+00  8.3557486127402171e+07 -1.0933776697065277e+08 0.0000000000000000e+00 -1.0933776697065277e+08 1.9523216266502687e+08 0.0000000000000000e+00 0.0000000000000000e+00 0.0000000000000000e+00 0.0000000000000000e+00  2.8418395462081030e+07 -3.4020934615837336e+07 0.0000000000000000e+00 -3.4020934615837336e+07 3.9391671608533092e+07 0.0000000000000000e+00 0.0000000000000000e+00 0.0000000000000000e+00 0.0000000000000000e+00  -2.5633561702283573e+03 -2.3656475329171590e+04 0.0000000000000000e+00 -2.3656475329171590e+04 1.8752766208912638e+08 0.0000000000000000e+00 0.0000000000000000e+00 0.0000000000000000e+00 0.0000000000000000e+00  2.0135853643649289e+03 -4.6215131514904853e+04 0.0000000000000000e+00 -4.6215131514904853e+04 1.8740491226092178e+08 0.0000000000000000e+00 0.0000000000000000e+00 0.0000000000000000e+00 0.0000000000000000e+00  5.8068998403975638e+02 -4.4433107590200721e+04 0.0000000000000000e+00 -4.4433107590200721e+04 1.8714515965331328e+08 0.0000000000000000e+00 0.0000000000000000e+00 0.0000000000000000e+00 0.0000000000000000e+00  -1.0913647452705366e+03 -6.7095026472934696e+04 0.0000000000000000e+00 -6.7095026472934696e+04 1.8676867923354962e+08 0.0000000000000000e+00 0.0000000000000000e+00 0.0000000000000000e+00 0.0000000000000000e+00  -4.0706557980364073e+03 -9.8357493553874461e+04 0.0000000000000000e+00 -9.8357493553874461e+04 1.8631287938012972e+08 0.0000000000000000e+00 0.0000000000000000e+00 0.0000000000000000e+00 0.0000000000000000e+00  6.3494233912578939e+03 -1.4765230599274018e+05 0.0000000000000000e+00 -1.4765230599274018e+05 1.8577120989145392e+08 0.0000000000000000e+00 0.0000000000000000e+00 0.0000000000000000e+00 0.0000000000000000e+00  7.1669991065937274e+03 -1.4048940765879897e+05 0.0000000000000000e+00 -1.4048940765879897e+05 1.8484757562284571e+08 0.0000000000000000e+00 0.0000000000000000e+00 0.0000000000000000e+00 0.0000000000000000e+00  1.0078243133665197e+04 -2.0601904811933625e+05 0.0000000000000000e+00 -2.0601904811933625e+05 1.8400399141333863e+08 0.0000000000000000e+00 0.0000000000000000e+00 0.0000000000000000e+00 0.0000000000000000e+00  -5.0383331653143468e+03 -2.7139213928629021e+05 0.0000000000000000e+00 -2.7139213928629021e+05 1.8278912613375473e+08 0.0000000000000000e+00 0.0000000000000000e+00 0.0000000000000000e+00 0.0000000000000000e+00  3.0960680766764326e+04 -2.6311140043783153e+05 0.0000000000000000e+00 -2.6311140043783153e+05 1.8156957047146425e+08 0.0000000000000000e+00 0.0000000000000000e+00 0.0000000000000000e+00 0.0000000000000000e+00  -1.2206521234024323e+04 -3.7988160636808240e+05 0.0000000000000000e+00 -3.7988160636808240e+05 1.7910575547114336e+08 0.0000000000000000e+00 0.0000000000000000e+00 0.0000000000000000e+00 0.0000000000000000e+00  -2.7669178209491172e+04 -5.9620138402359711e+05 0.0000000000000000e+00 -5.9620138402359711e+05 1.7767168179272887e+08 0.0000000000000000e+00 0.0000000000000000e+00 0.0000000000000000e+00 0.0000000000000000e+00  6.9615826655514302e+03 -5.3287105770462332e+05 0.0000000000000000e+00 -5.3287105770462332e+05 1.7418222950754634e+08 0.0000000000000000e+00 0.0000000000000000e+00 0.0000000000000000e+00 0.0000000000000000e+00  5.6710252547371703e+04 -7.9085965863206610e+05 0.0000000000000000e+00 -7.9085965863206610e+05 1.7065332713509589e+08 0.0000000000000000e+00 0.0000000000000000e+00 0.0000000000000000e+00 0.0000000000000000e+00  7.9469610689191395e+04 -7.9041465502377576e+05 0.0000000000000000e+00 -7.9041465502377576e+05 1.6537986075480452e+08 0.0000000000000000e+00 0.0000000000000000e+00 0.0000000000000000e+00 0.0000000000000000e+00  -7.1499159089978653e+04 -1.3821341413040373e+06 0.0000000000000000e+00 -1.3821341413040373e+06 1.5872200280567816e+08 0.0000000000000000e+00 0.0000000000000000e+00 0.0000000000000000e+00 0.0000000000000000e+00  6.4127357193790078e+04 -2.6807391937597394e+06 0.0000000000000000e+00 -2.6807391937597394e+06 1.4861734992055976e+08 0.0000000000000000e+00 0.0000000000000000e+00 0.0000000000000000e+00 0.0000000000000000e+00  2.7904267585590369e+04 -3.2266931162197939e+06 0.0000000000000000e+00 -3.2266931162197939e+06 1.3308934144616036e+08 0.0000000000000000e+00 0.0000000000000000e+00 0.0000000000000000e+00 0.0000000000000000e+00  -5.3692765682549763e+05 -6.7160678785991706e+06 0.0000000000000000e+00 -6.7160678785991706e+06 1.1094178632007004e+08 0.0000000000000000e+00 0.0000000000000000e+00 0.0000000000000000e+00 0.0000000000000000e+00  -1.3673116094759330e+06 -9.9534992117285337e+06 0.0000000000000000e+00 -9.9534992117285337e+06 7.5170555779646561e+07 0.0000000000000000e+00 0.0000000000000000e+00 0.0000000000000000e+00 0.0000000000000000e+00  5.8227397280843640e+06 -7.7616865365780480e+06 0.0000000000000000e+00 -7.7616865365780480e+06 3.2539064654935207e+07 0.0000000000000000e+00 0.0000000000000000e+00 0.0000000000000000e+00 0.0000000000000000e+00  -1.4894253430999295e+05 1.4269571315854822e+04 0.0000000000000000e+00 1.4269571315854822e+04 1.8271938763171953e+08 0.0000000000000000e+00 0.0000000000000000e+00 0.0000000000000000e+00 0.0000000000000000e+00  -7.7221425893997459e+05 3.3296084577361275e+04 0.0000000000000000e+00 3.3296084577361275e+04 1.8387052401919332e+08 0.0000000000000000e+00 0.0000000000000000e+00 0.0000000000000000e+00 0.0000000000000000e+00  -1.6910700392278908e+06 7.1167810235314682e+04 0.0000000000000000e+00 7.1167810235314682e+04 1.8559800909656411e+08 0.0000000000000000e+00 0.0000000000000000e+00 0.0000000000000000e+00 0.0000000000000000e+00  -2.8037204858231372e+06 6.6739172215705359e+04 0.0000000000000000e+00 6.6739172215705359e+04 1.8752872042181632e+08 0.0000000000000000e+00 0.0000000000000000e+00 0.0000000000000000e+00 0.0000000000000000e+00  -3.7109906638401807e+06 1.2769905358894690e+05 0.0000000000000000e+00 1.2769905358894690e+05 1.9008386789291698e+08 0.0000000000000000e+00 0.0000000000000000e+00 0.0000000000000000e+00 0.0000000000000000e+00  -4.7303322974917768e+06 1.6290558341977669e+04 0.0000000000000000e+00 1.6290558341977669e+04 1.9257909891602227e+08 0.0000000000000000e+00 0.0000000000000000e+00 0.0000000000000000e+00 0.0000000000000000e+00  -5.6583235499356128e+06 -1.2032595273927122e+04 0.0000000000000000e+00 -1.2032595273927122e+04 1.9459442660966966e+08 0.0000000000000000e+00 0.0000000000000000e+00 0.0000000000000000e+00 0.0000000000000000e+00  -6.0546495115052480e+06 -1.9997867726320717e+04 0.0000000000000000e+00 -1.9997867726320717e+04 1.9685456457827649e+08 0.0000000000000000e+00 0.0000000000000000e+00 0.0000000000000000e+00 0.0000000000000000e+00  -6.5412975688322419e+06 -4.3225267776730234e+03 0.0000000000000000e+00 -4.3225267776730234e+03 1.9823915802894810e+08 0.0000000000000000e+00 0.0000000000000000e+00 0.0000000000000000e+00 0.0000000000000000e+00  -6.8303594247311577e+06 -3.9919637254426561e+04 0.0000000000000000e+00 -3.9919637254426561e+04 1.9961855868043375e+08 0.0000000000000000e+00 0.0000000000000000e+00 0.0000000000000000e+00 0.0000000000000000e+00  -6.8822861147926915e+06 -6.1086261841876825e+04 0.0000000000000000e+00 -6.1086261841876825e+04 2.0071612446791238e+08 0.0000000000000000e+00 0.0000000000000000e+00 0.0000000000000000e+00 0.0000000000000000e+00  -6.7938814454951342e+06 -5.7857456146568067e+04 0.0000000000000000e+00 -5.7857456146568067e+04 2.0142667393186319e+08 0.0000000000000000e+00 0.0000000000000000e+00 0.0000000000000000e+00 0.0000000000000000e+00  -6.6347312744968962e+06 -4.6798163760938653e+04 0.0000000000000000e+00 -4.6798163760938653e+04 2.0194213187776819e+08 0.0000000000000000e+00 0.0000000000000000e+00 0.0000000000000000e+00 0.0000000000000000e+00  -6.4247773439578507e+06 -4.8445072190306135e+04 0.0000000000000000e+00 -4.8445072190306135e+04 2.0225839959820810e+08 0.0000000000000000e+00 0.0000000000000000e+00 0.0000000000000000e+00 0.0000000000000000e+00  -6.1545171354483236e+06 -4.6593692578566850e+04 0.0000000000000000e+00 -4.6593692578566850e+04 2.0238298550019836e+08 0.0000000000000000e+00 0.0000000000000000e+00 0.0000000000000000e+00 0.0000000000000000e+00  -5.8820326291735703e+06 -4.1443204883167651e+04 0.0000000000000000e+00 -4.1443204883167651e+04 2.0238541374261698e+08 0.0000000000000000e+00 0.0000000000000000e+00 0.0000000000000000e+00 0.0000000000000000e+00  -5.6104449423472025e+06 -3.4664794964324668e+04 0.0000000000000000e+00 -3.4664794964324668e+04 2.0227283445540860e+08 0.0000000000000000e+00 0.0000000000000000e+00 0.0000000000000000e+00 0.0000000000000000e+00  -5.3534828145768065e+06 -2.8432725943327114e+04 0.0000000000000000e+00 -2.8432725943327114e+04 2.0207897453965354e+08 0.0000000000000000e+00 0.0000000000000000e+00 0.0000000000000000e+00 0.0000000000000000e+00  -5.1097596854289798e+06 -2.0822016121717756e+04 0.0000000000000000e+00 -2.0822016121717756e+04 2.0181061179468775e+08 0.0000000000000000e+00 0.0000000000000000e+00 0.0000000000000000e+00 0.0000000000000000e+00  -4.8902785720696831e+06 -1.3448013559549720e+04 0.0000000000000000e+00 -1.3448013559549720e+04 2.0147552109118345e+08 0.0000000000000000e+00 0.0000000000000000e+00 0.0000000000000000e+00 0.0000000000000000e+00  -4.6881805689538093e+06 -7.8056446207138806e+03 0.0000000000000000e+00 -7.8056446207138806e+03 2.0109063473486274e+08 0.0000000000000000e+00 0.0000000000000000e+00 0.0000000000000000e+00 0.0000000000000000e+00  -4.4979850041060271e+06 -2.4121601144954961e+03 0.0000000000000000e+00 -2.4121601144954961e+03 2.0064875725263488e+08 0.0000000000000000e+00 0.0000000000000000e+00 0.0000000000000000e+00 0.0000000000000000e+00  -4.3213974332259344e+06 2.4571867005935551e+03 0.0000000000000000e+00 2.4571867005935551e+03 2.0015161478917277e+08 0.0000000000000000e+00 0.0000000000000000e+00 0.0000000000000000e+00 0.0000000000000000e+00  -4.1405623607799299e+06 -5.3294136199931006e+02 0.0000000000000000e+00 -5.3294136199931006e+02 1.9959587360369217e+08 0.0000000000000000e+00 0.0000000000000000e+00 0.0000000000000000e+00 0.0000000000000000e+00  -3.9595615924435435e+06 2.8936230080683217e+03 0.0000000000000000e+00 2.8936230080683217e+03 1.9900422624922341e+08 0.0000000000000000e+00 0.0000000000000000e+00 0.0000000000000000e+00 0.0000000000000000e+00  -3.7555320781630571e+06 5.2756300291788257e+03 0.0000000000000000e+00 5.2756300291788257e+03 1.9832319432975364e+08 0.0000000000000000e+00 0.0000000000000000e+00 0.0000000000000000e+00 0.0000000000000000e+00  -3.5442938819672354e+06 8.2149143781679941e+03 0.0000000000000000e+00 8.2149143781679941e+03 1.9757519820389798e+08 0.0000000000000000e+00 0.0000000000000000e+00 0.0000000000000000e+00 0.0000000000000000e+00  -3.3053302448961907e+06 4.0681990645344922e+03 0.0000000000000000e+00 4.0681990645344922e+03 1.9680102397647041e+08 0.0000000000000000e+00 0.0000000000000000e+00 0.0000000000000000e+00 0.0000000000000000e+00  -3.0354330166538241e+06 7.1234767613047325e+03 0.0000000000000000e+00 7.1234767613047325e+03 1.9597227415382457e+08 0.0000000000000000e+00 0.0000000000000000e+00 0.0000000000000000e+00 0.0000000000000000e+00  -2.7543589221776794e+06 5.8782329256547064e+03 0.0000000000000000e+00 5.8782329256547064e+03 1.9505863578440005e+08 0.0000000000000000e+00 0.0000000000000000e+00 0.0000000000000000e+00 0.0000000000000000e+00  -2.4113417807477522e+06 5.9269715559000879e+03 0.0000000000000000e+00 5.9269715559000879e+03 1.9414833107071060e+08 0.0000000000000000e+00 0.0000000000000000e+00 0.0000000000000000e+00 0.0000000000000000e+00  -2.0943168142097474e+06 -4.2373870222529740e+03 0.0000000000000000e+00 -4.2373870222529740e+03 1.9316639385312963e+08 0.0000000000000000e+00 0.0000000000000000e+00 0.0000000000000000e+00 0.0000000000000000e+00  -1.7121003236170546e+06 -7.0785092039440706e+03 0.0000000000000000e+00 -7.0785092039440706e+03 1.9220034787927333e+08 0.0000000000000000e+00 0.0000000000000000e+00 0.0000000000000000e+00 0.0000000000000000e+00  -1.3498179311470124e+06 -1.2263014660610897e+04 0.0000000000000000e+00 -1.2263014660610897e+04 1.9130303040418500e+08 0.0000000000000000e+00 0.0000000000000000e+00 0.0000000000000000e+00 0.0000000000000000e+00  -9.9227794075343094e+05 -3.8290330358719348e+03 0.0000000000000000e+00 -3.8290330358719348e+03 1.9042017624275696e+08 0.0000000000000000e+00 0.0000000000000000e+00 0.0000000000000000e+00 0.0000000000000000e+00  -6.6889350023463543e+05 -1.5969695912475042e+03 0.0000000000000000e+00 -1.5969695912475042e+03 1.8957554537439847e+08 0.0000000000000000e+00 0.0000000000000000e+00 0.0000000000000000e+00 0.0000000000000000e+00  -3.9448709357565461e+05 -1.9163179320151312e+03 0.0000000000000000e+00 -1.9163179320151312e+03 1.8886006381285295e+08 0.0000000000000000e+00 0.0000000000000000e+00 0.0000000000000000e+00 0.0000000000000000e+00  -1.7964190481067827e+05 1.6203853579452025e+03 0.0000000000000000e+00 1.6203853579452025e+03 1.8825299270219553e+08 0.0000000000000000e+00 0.0000000000000000e+00 0.0000000000000000e+00 0.0000000000000000e+00  -2.9191433713675564e+04 1.3539471747277881e+04 0.0000000000000000e+00 1.3539471747277881e+04 1.8785618558903667e+08 0.0000000000000000e+00 0.0000000000000000e+00 0.0000000000000000e+00 0.0000000000000000e+00  7.0672224086893415e+06 7.4034626940935971e+06 0.0000000000000000e+00 7.4034626940935971e+06 2.5857709388327274e+07 0.0000000000000000e+00 0.0000000000000000e+00 0.0000000000000000e+00 0.0000000000000000e+00  1.6391866815403812e+06 8.4603300472613368e+06 0.0000000000000000e+00 8.4603300472613368e+06 7.9204549139145598e+07 0.0000000000000000e+00 0.0000000000000000e+00 0.0000000000000000e+00 0.0000000000000000e+00  2.4826554921598965e+05 5.0614919007562362e+06 0.0000000000000000e+00 5.0614919007562362e+06 1.1343713893444626e+08 0.0000000000000000e+00 0.0000000000000000e+00 0.0000000000000000e+00 0.0000000000000000e+00  3.2923042475898965e+05 3.1256052826895365e+06 0.0000000000000000e+00 3.1256052826895365e+06 1.3683658343879256e+08 0.0000000000000000e+00 0.0000000000000000e+00 0.0000000000000000e+00 0.0000000000000000e+00  6.1643920373352252e+04 1.7274082434942299e+06 0.0000000000000000e+00 1.7274082434942299e+06 1.5099098250280386e+08 0.0000000000000000e+00 0.0000000000000000e+00 0.0000000000000000e+00 0.0000000000000000e+00  1.4630098688915643e+05 1.1606205760256839e+06 0.0000000000000000e+00 1.1606205760256839e+06 1.6047090001273549e+08 0.0000000000000000e+00 0.0000000000000000e+00 0.0000000000000000e+00 0.0000000000000000e+00  -2.0104806233934298e+04 1.2582791032556307e+06 0.0000000000000000e+00 1.2582791032556307e+06 1.6802018606947622e+08 0.0000000000000000e+00 0.0000000000000000e+00 0.0000000000000000e+00 0.0000000000000000e+00  -1.1938852131848231e+05 8.0518237913493265e+05 0.0000000000000000e+00 8.0518237913493265e+05 1.7163290159377572e+08 0.0000000000000000e+00 0.0000000000000000e+00 0.0000000000000000e+00 0.0000000000000000e+00  2.1329699283797519e+04 5.2885244163173425e+05 0.0000000000000000e+00 5.2885244163173425e+05 1.7610477683817047e+08 0.0000000000000000e+00 0.0000000000000000e+00 0.0000000000000000e+00 0.0000000000000000e+00  -1.1019802845773675e+04 4.2918062036863569e+05 0.0000000000000000e+00 4.2918062036863569e+05 1.7848626119912082e+08 0.0000000000000000e+00 0.0000000000000000e+00 0.0000000000000000e+00 0.0000000000000000e+00  -2.7413764311210402e+04 1.8563995600897237e+05 0.0000000000000000e+00 1.8563995600897237e+05 1.8020709808558187e+08 0.0000000000000000e+00 0.0000000000000000e+00 0.0000000000000000e+00 0.0000000000000000e+00  3.9497467584934544e+04 1.1841319819027335e+05 0.0000000000000000e+00 1.1841319819027335e+05 1.8134261879057863e+08 0.0000000000000000e+00 0.0000000000000000e+00 0.0000000000000000e+00 0.0000000000000000e+00  -1.4026992212423786e+04 7.6251847929510332e+04 0.0000000000000000e+00 7.6251847929510332e+04 1.8213856656802291e+08 0.0000000000000000e+00 0.0000000000000000e+00 0.0000000000000000e+00 0.0000000000000000e+00  3.8857865079069063e+07 4.7812091302082635e+07 0.0000000000000000e+00 4.7812091302082635e+07 5.4579319895764634e+07 0.0000000000000000e+00 0.0000000000000000e+00 0.0000000000000000e+00 0.0000000000000000e+00  9.3931327532843605e+07 1.2723686879357021e+08 0.0000000000000000e+00 1.2723686879357021e+08 2.8147618555803174e+08 0.0000000000000000e+00 0.0000000000000000e+00 0.0000000000000000e+00 0.0000000000000000e+00  6.3427808949354358e+07 8.2901861840170071e+07 0.0000000000000000e+00 8.2901861840170071e+07 5.1342883657313228e+08 0.0000000000000000e+00 0.0000000000000000e+00 0.0000000000000000e+00 0.0000000000000000e+00  8.5230620373718843e+07 -5.2780437658924364e+07 0.0000000000000000e+00 -5.2780437658924364e+07 4.7929991243183041e+08 0.0000000000000000e+00 0.0000000000000000e+00 0.0000000000000000e+00 0.0000000000000000e+00  6.5920204811784647e+07 -1.3104251898209000e+08 0.0000000000000000e+00 -1.3104251898209000e+08 2.9134268906273526e+08 0.0000000000000000e+00 0.0000000000000000e+00 0.0000000000000000e+00 0.0000000000000000e+00  3.1500122293054070e+07 -4.7434573126499817e+07 0.0000000000000000e+00 -4.7434573126499817e+07 7.0017109930946469e+07 0.0000000000000000e+00 0.0000000000000000e+00 0.0000000000000000e+00 0.0000000000000000e+00  3.5038026029655839e+03 -3.0824316589011887e+04 0.0000000000000000e+00 -3.0824316589011887e+04 1.8777232583471277e+08 0.0000000000000000e+00 0.0000000000000000e