<?xml version="1.0"?>
<VTKFile type="UnstructuredGrid"  version="0.1"  >
<UnstructuredGrid>
<Piece  NumberOfPoints="5141" NumberOfCells="9304">
<Points>
<DataArray  type="Float64"  NumberOfComponents="3"  format="ascii">0.9476327378085243 0.7988228867615637 0  0.9476115146135203 0.7988001129104622 0  0.9345693061074938 0.7209340625833551 0  0.9345566744502156 0.7209625145346901 0  0.9333862954187113 0.7201057864023985 0  0.946784732026529 0.799991757337116 0  0.0618468020742647 0.213930934384848 0  0.06186247902383124 0.2139578287253789 0  0.06293175572583505 0.212977905160721 0  0.158369025721101 0.2556912367506757 0  0.05837877843665449 0.2938515887163985 0  0.05742623390131404 0.2927578306404189 0  0.05740763740873758 0.292782795470964 0  6.483528991463317e-16 0.265365493184371 0  7.459310946700271e-16 0.3456542763767605 0  0.07461633027979973 0.40024353221236 0  0.05030628083775676 0.4470818696020011 0  0.04910970159389212 0.4479016158549809 0  0.04913234927998476 0.447922973631431 0  0.02867769559437251 0.5656017850104672 0  0.0286491692894798 0.5656142478443963 0  0.02949894470856802 0.566789680033019 0  0.03993746196723949 0.5997564677876399 0  -7.788908407135864e-16 0.6543457236232394 0  1.606353938754523e-15 0.7344239329170577 0  0.06529421053338916 0.7206287471839454 0  0.06530697495441459 0.7206571398213035 0  0.06647330963749762 0.7197949754911515 0  0.1572115049386334 0.7662813636804969 0  0.05344819286102279 0.7997426242857022 0  0.05261586344741824 0.798554869321682 0  0.05259474686260271 0.7985777420597353 0  -1.594210874422686e-15 0.7655760670829423 0  0 1 0  1 1 0  0.9999999999999984 0.7655903249069222 0  1.000000000000001 0.7344096750930778 0  1.000000000000001 0.6583621951012031 0  0.961619209373342 0.5621124669676856 0  0.9626221463379498 0.5610647236690844 0  0.9625955989869535 0.5610484660414853 0  0.9847234188347511 0.5034932915966953 0  0.9584746992396332 0.4416763014039359 0  0.9585000622538518 0.4416582517554621 0  0.9574272312006396 0.4406821393090162 0  0.9999999999999993 0.341637804898797 0  0.9999999999999993 0.2658220872858857 0  0.9328907404956941 0.2749469779722237 0  0.9328798999167551 0.274917796571494 0  0.9316586174038015 0.2757001752665144 0  0.9499916074555625 0.1968003240498661 0  0.9507428161844673 0.1980410328843414 0  0.9507654125503071 0.1980196208187942 0  1.000000000000001 0.2341779127141143 0  1 0 0  0 0 0  -6.626643678231403e-16 0.234634506815629 0  0.2973486174897626 0.3055801644054703 0  0.3191559387173366 0.3505529571389162 0  0.2961984971238197 0.3046964650106722 0  0.2169062412953961 0.3150833931027285 0  0.2962222747281988 0.304676372777592 0  0.2178187731368865 0.3139560244132483 0  0.2822090318401551 0.1860579739992322 0  0.2177909681598449 0.3139420260007678 0  0.2821812268631148 0.1860439755867515 0  0.2353623870463633 0.261879042593817 0  0.2830937587046076 0.1849166068972667 0  0.2037777252717997 0.1953236272224073 0  0.2953978535297026 0.1494470428610838 0  0.2038015028761813 0.1953035349893268 0  0.2026513825102488 0.1944198355945386 0  0.4490455617586836 0.3002956225200079 0  0.4490236980860156 0.300273462824213 0  0.5662325485684281 0.2771892245438148 0  0.4482312014032922 0.3014882092683895 0  0.5662443641569277 0.2771604241242239 0  0.4325613429272398 0.222016573425318 0  0.567438657072768 0.2779834265746872 0  0.433755635843073 0.2228395758757777 0  0.6566164436412409 0.230412679067805 0  0.4337674514315719 0.2228107754561852 0  0.5517687985967077 0.1985117907316108 0  0.5509544382413163 0.1997043774799921 0  0.5509763019139839 0.199726537175788 0  0.8006448052301793 0.3025942134774227 0  0.8252561119293602 0.3496431464845096 0  0.7994430065252162 0.3017821738333828 0  0.7209302808034995 0.3169775599339791 0  0.7994655166918582 0.3017606711661543 0  0.7217724681256767 0.3157967390183379 0  0.778256137566059 0.1842155405052907 0  0.7217438624339407 0.3157844594947095 0  0.778227531874325 0.1842032609816605 0  0.7362721977007698 0.2679792158058406 0  0.7790697191964995 0.1830224400660222 0  0.7005344833081418 0.1982393288338456 0  0.789297680317679 0.1503568535154904 0  0.7005569934747847 0.1982178261666166 0  0.6993551947698187 0.1974057865225759 0  0.1824582181989471 0.5237510448675895 0  0.1824478976514783 0.5237216755196173 0  0.2983035426098439 0.5528466857286441 0  0.1812129450350813 0.524482218042327 0  0.2983265157329613 0.5528256783986276 0  0.2009444315995423 0.4459204655455269 0  0.2990555683995293 0.5540795344529219 0  0.2016734842670408 0.4471743216013713 0  0.4054791148366402 0.5246644092194976 0  0.2016964573901561 0.4471533142713559 0  0.3187870549649255 0.4755177819576689 0  0.3175417818010529 0.4762489551324105 0  0.3175521023485217 0.4762783244803807 0  0.5410637357326427 0.5603722910529645 0  0.5582179071231952 0.6012478312885017 0  0.5400158811701466 0.5593694675345835 0  0.4600654963461033 0.5611250804935861 0  0.5400416911760204 0.5593520630553622 0  0.4610945118094734 0.5601029733858482 0  0.5389316172290113 0.4399139483648929 0  0.4610683827709888 0.5600860516351069 0  0.538905488190528 0.439897026614152 0  0.4846675128967777 0.5009410109996756 0  0.5399345036538893 0.4388749195064213 0  0.4599583088239795 0.4406479369446378 0  0.556335885123844 0.3987521687114983 0  0.459984118829856 0.4406305324654163 0  0.4589362642673527 0.439627708947031 0  0.3017247182946839 0.8015324963879367 0  0.3273188812929756 0.8492488169843536 0  0.3005063530880772 0.8007455684656871 0  0.222325663989502 0.8175660847379717 0  0.3005284124391702 0.800723603554363 0  0.2231431894118844 0.8163680355758496 0  0.2768856648086229 0.683643648013463 0  0.2231143351913761 0.8163563519865381 0  0.2768568105881175 0.6836319644241509 0  0.2366665272009257 0.770041985169456 0  0.2776743360104982 0.682433915262028 0  0.199471587560829 0.6992763964456365 0  0.2872349109540636 0.6507511830156464 0  0.1994936469119252 0.6992544315343123 0  0.1982752817053159 0.6984675036120631 0  0.4459533675888314 0.7969570649229157 0  0.4459329558101416 0.7969335610595998 0  0.5643715262570747 0.7813418414981953 0  0.4450649021698902 0.7980954946528214 0  0.5643851475754132 0.7813138498568182 0  0.4344753082199702 0.7177889817967881 0  0.5655246917861612 0.7822110182079146 0  0.4356148524245862 0.718686150143181 0  0.6576601094839207 0.7367629566078144 0  0.4356284737429254 0.7186581585018047 0  0.5549350978301094 0.7019045053471793 0  0.5540466324111709 0.70304293507708 0  0.5540670441898599 0.7030664389404016 0  0.6892222496472227 0.5378426939212655 0  0.6892058014246901 0.5378162642357618 0  0.8086209752208249 0.5411045701269703 0  0.6881653005558807 0.5388267151023892 0  0.8086388419079158 0.5410790778969242 0  0.6903774021525699 0.4578551956353895 0  0.8096225978474301 0.5421448043646105 0  0.6913611580920832 0.4589209221030764 0  0.9084913372109991 0.5027650963230186 0  0.6913790247791751 0.4588954298730298 0  0.8118346994441392 0.461173284897592 0  0.8107777503527773 0.4621573060787346 0  0.8107941985753089 0.4621837357642382 0  0.7744814103617961 0.8187873421450129 0  0.7826113340383554 0.8482019291528905 0  0.7737208824746565 0.8175523808298919 0  0.6959198898264494 0.799054933412556 0  0.7737502519437853 0.8175420606272121 0  0.6971737542648517 0.7983258955705205 0  0.8028472527954682 0.7016970777992169 0  0.6971527472045318 0.798302922200783 0  0.8028262457351503 0.7016741044294812 0  0.737713415032389 0.7253344379148358 0  0.8040801101719848 0.7009450665883812 0  0.7262497480562142 0.6824579393727874 0  0.8319424582086838 0.6517980708471095 0  0.7262791175253431 0.682447619170108 0  0.7255185896420708 0.6812126578614481 0  0.9365913176528594 0.8109308925527983 0  0.9239139789739759 0.8188590360858817 0  0.9096166556262831 0.8232358980841418 0  0.8946736865185626 0.8237632026507853 0  0.8801034102489073 0.8204050148528488 0  0.8668987670157011 0.8133901896273685 0  0.8559596313874777 0.8031967756964214 0  0.8480314873413294 0.7905194373383979 0  0.8436546247644423 0.7762221141678413 0  0.8431273195930417 0.7612791450814613 0  0.8464855068013044 0.7467088686758967 0  0.8535003314923794 0.7335042251587934 0  0.8636937449806085 0.7225650891180323 0  0.876371083017772 0.7146369445588193 0  0.8906684060111927 0.710260081403305 0  0.9056113750762319 0.7097327756271473 0  0.9201816516177057 0.7130909622457362 0  0.07496804709400194 0.2047189389518651 0  0.08870113808095567 0.1997707024293786 0  0.1032390431577038 0.1984545912190775 0  0.1176375028736478 0.2008560887824238 0  0.130961314970342 0.2068192141333119 0  0.1423450772165925 0.2159566530446951 0  0.1510493966236818 0.2276749147074925 0  0.1565089141651352 0.2412128798778194 0  0.156710383832437 0.2693752648641888 0  0.1518305210853889 0.2822667604289485 0  0.1440120625979703 0.2936190916964353 0  0.1337078269979241 0.3027747700997536 0  0.1215146007018901 0.3092035297639463 0  0.108138574067982 0.3125330387090057 0  0.09435444124272076 0.3125704630567466 0  0.08096053250062332 0.3093136353157362 0  0.06873257765933477 0.3029511799150552 0  0.01289016370214403 0.2672102011285304 0  0.02535349389543435 0.2709817615695571 0  0.03710369531531922 0.2765935379602765 0  0.04787085398440412 0.2839166221371825 0  0 0.3322728125113622 0  0 0.318891348645964 0  0 0.3055098847805657 0  0 0.2921284209151674 0  0 0.2787469570497692 0  0.01317554373796049 0.3431181889212367 0  0.02657958276125344 0.3437168793545933 0  0.03947656463848739 0.3474174942806905 0  0.05115876191818759 0.3540169608569466 0  0.06098510897840544 0.3631531305042934 0  0.06841638077963699 0.3743246519668863 0  0.07304478307178833 0.3869184831788314 0  0.07298317157682305 0.4138235659169621 0  0.06817682926283039 0.426629173920019 0  0.06047139360146496 0.437930093530201 0  0.02150884995743906 0.5528183951102575 0  0.01661708755154345 0.5390025322826514 0  0.01414476351098347 0.5245562518290041 0  0.01416382491569027 0.5098999548284036 0  0.01667371705989487 0.4954601540496039 0  0.02160139959461588 0.481657062006733 0  0.02880347207420596 0.46889236235
[...]
<PointData  Tensors="$\sigma$"> 
<DataArray  type="Float64"  Name="$\sigma$"  NumberOfComponents="9" format="ascii">1.4410849113913318e+06 -1.0936899520863860e+06 0.0000000000000000e+00 -1.0936899520863860e+06 8.0757678213172371e+05 0.0000000000000000e+00 0.0000000000000000e+00 0.0000000000000000e+00 0.0000000000000000e+00  1.5739771553769321e+06 -1.7268470757179263e+06 0.0000000000000000e+00 -1.7268470757179263e+06 2.9882831026244531e+06 0.0000000000000000e+00 0.0000000000000000e+00 0.0000000000000000e+00 0.0000000000000000e+00  -7.3359721231690096e+06 -3.1443099597195238e+06 0.0000000000000000e+00 -3.1443099597195238e+06 -7.0805184741238982e+05 0.0000000000000000e+00 0.0000000000000000e+00 0.0000000000000000e+00 0.0000000000000000e+00  -4.9672085384510541e+06 -4.6088093571569500e+06 0.0000000000000000e+00 -4.6088093571569500e+06 -5.6895886336949086e+06 0.0000000000000000e+00 0.0000000000000000e+00 0.0000000000000000e+00 0.0000000000000000e+00  -9.3710084936222769e+06 -7.3011519363521012e+06 0.0000000000000000e+00 -7.3011519363521012e+06 -3.3194880478529125e+06 0.0000000000000000e+00 0.0000000000000000e+00 0.0000000000000000e+00 0.0000000000000000e+00  -1.5637283253960736e+05 -1.2622345405610451e+06 0.0000000000000000e+00 -1.2622345405610451e+06 1.5399826954116561e+06 0.0000000000000000e+00 0.0000000000000000e+00 0.0000000000000000e+00 0.0000000000000000e+00  1.2052068483986433e+06 -3.8194820347282209e+05 0.0000000000000000e+00 -3.8194820347282209e+05 -1.0396502918652706e+05 0.0000000000000000e+00 0.0000000000000000e+00 0.0000000000000000e+00 0.0000000000000000e+00  9.5014410943930671e+06 -4.7102265518565672e+06 0.0000000000000000e+00 -4.7102265518565672e+06 2.7171207119890223e+06 0.0000000000000000e+00 0.0000000000000000e+00 0.0000000000000000e+00 0.0000000000000000e+00  -8.0236311831411235e+06 2.3009714122603661e+06 0.0000000000000000e+00 2.3009714122603661e+06 -2.8353319907633952e+04 0.0000000000000000e+00 0.0000000000000000e+00 0.0000000000000000e+00 0.0000000000000000e+00  3.7777644209340662e+07 -1.3056544199534275e+07 0.0000000000000000e+00 -1.3056544199534275e+07 4.4236937445185786e+08 0.0000000000000000e+00 0.0000000000000000e+00 0.0000000000000000e+00 0.0000000000000000e+00  -1.6231303118340999e+06 -2.1795982773787440e+06 0.0000000000000000e+00 -2.1795982773787440e+06 -1.6330535639958985e+06 0.0000000000000000e+00 0.0000000000000000e+00 0.0000000000000000e+00 0.0000000000000000e+00  7.8683776265474409e+05 6.9539208887383784e+05 0.0000000000000000e+00 6.9539208887383784e+05 -1.6331712108843483e+05 0.0000000000000000e+00 0.0000000000000000e+00 0.0000000000000000e+00 0.0000000000000000e+00  -9.3872610949457926e+05 -6.7371439386774856e+05 0.0000000000000000e+00 -6.7371439386774856e+05 -3.3551704354916577e+05 0.0000000000000000e+00 0.0000000000000000e+00 0.0000000000000000e+00 0.0000000000000000e+00  4.2606314003618490e+03 -1.4310109732021440e+03 0.0000000000000000e+00 -1.4310109732021440e+03 5.1287986143641656e+03 0.0000000000000000e+00 0.0000000000000000e+00 0.0000000000000000e+00 0.0000000000000000e+00  4.8469852434112305e+04 -2.3716192033979831e+04 0.0000000000000000e+00 -2.3716192033979831e+04 -3.7862373569685653e+04 0.0000000000000000e+00 0.0000000000000000e+00 0.0000000000000000e+00 0.0000000000000000e+00  -1.2846439244821619e+06 -1.5479594930909071e+07 0.0000000000000000e+00 -1.5479594930909071e+07 2.6074363645337221e+08 0.0000000000000000e+00 0.0000000000000000e+00 0.0000000000000000e+00 0.0000000000000000e+00  -1.9548279194763848e+08 9.5548962683575541e+07 0.0000000000000000e+00 9.5548962683575541e+07 -3.6653804770076908e+07 0.0000000000000000e+00 0.0000000000000000e+00 0.0000000000000000e+00 0.0000000000000000e+00  -1.8791897859569728e+08 1.3470712174001518e+08 0.0000000000000000e+00 1.3470712174001518e+08 -1.2533135625976722e+08 0.0000000000000000e+00 0.0000000000000000e+00 0.0000000000000000e+00 0.0000000000000000e+00  -6.1463943775771201e+07 9.0453866897619069e+07 0.0000000000000000e+00 9.0453866897619069e+07 -5.9334823143704772e+07 0.0000000000000000e+00 0.0000000000000000e+00 0.0000000000000000e+00 0.0000000000000000e+00  -2.9926967627896467e+05 1.5130598119375743e+06 0.0000000000000000e+00 1.5130598119375743e+06 5.2048681194773475e+06 0.0000000000000000e+00 0.0000000000000000e+00 0.0000000000000000e+00 0.0000000000000000e+00  8.7384901839676779e+06 6.2549154738821900e+06 0.0000000000000000e+00 6.2549154738821900e+06 -5.1664287457980998e+06 0.0000000000000000e+00 0.0000000000000000e+00 0.0000000000000000e+00 0.0000000000000000e+00  3.7828184208282428e+06 1.1869159291150250e+07 0.0000000000000000e+00 1.1869159291150250e+07 3.1713987017533958e+07 0.0000000000000000e+00 0.0000000000000000e+00 0.0000000000000000e+00 0.0000000000000000e+00  4.4997139005106715e+06 5.4715098147537801e+06 0.0000000000000000e+00 5.4715098147537801e+06 7.9136323910876825e+07 0.0000000000000000e+00 0.0000000000000000e+00 0.0000000000000000e+00 0.0000000000000000e+00  -1.5350015872838208e+06 1.5421575958111400e+06 0.0000000000000000e+00 1.5421575958111400e+06 -1.7936772585063144e+06 0.0000000000000000e+00 0.0000000000000000e+00 0.0000000000000000e+00 0.0000000000000000e+00  -8.0055057973899820e+04 -6.7927804436119368e+03 0.0000000000000000e+00 -6.7927804436119368e+03 -7.0357454352899003e+04 0.0000000000000000e+00 0.0000000000000000e+00 0.0000000000000000e+00 0.0000000000000000e+00  -7.4098638227486322e+06 3.5149471017112825e+06 0.0000000000000000e+00 3.5149471017112825e+06 -8.0396057425292581e+05 0.0000000000000000e+00 0.0000000000000000e+00 0.0000000000000000e+00 0.0000000000000000e+00  -5.9457004740839694e+06 4.8290854054016937e+06 0.0000000000000000e+00 4.8290854054016937e+06 -5.7843023018525988e+06 0.0000000000000000e+00 0.0000000000000000e+00 0.0000000000000000e+00 0.0000000000000000e+00  -8.2768660316713601e+06 6.9311490713972850e+06 0.0000000000000000e+00 6.9311490713972850e+06 -3.4843830094382335e+06 0.0000000000000000e+00 0.0000000000000000e+00 0.0000000000000000e+00 0.0000000000000000e+00  2.8191143659978751e+07 2.6381144924083121e+07 0.0000000000000000e+00 2.6381144924083121e+07 3.5038892531832832e+08 0.0000000000000000e+00 0.0000000000000000e+00 0.0000000000000000e+00 0.0000000000000000e+00  -5.7215222049661206e+04 1.3580360025355963e+06 0.0000000000000000e+00 1.3580360025355963e+06 1.8126502781184982e+06 0.0000000000000000e+00 0.0000000000000000e+00 0.0000000000000000e+00 0.0000000000000000e+00  1.7429802756480838e+06 1.8935582322855098e+06 0.0000000000000000e+00 1.8935582322855098e+06 3.3520224541773293e+06 0.0000000000000000e+00 0.0000000000000000e+00 0.0000000000000000e+00 0.0000000000000000e+00  1.4852989483807385e+06 1.2472097912609286e+06 0.0000000000000000e+00 1.2472097912609286e+06 6.7251762575227953e+05 0.0000000000000000e+00 0.0000000000000000e+00 0.0000000000000000e+00 0.0000000000000000e+00  -1.9619152628836619e+04 -1.0381141874070661e+03 0.0000000000000000e+00 -1.0381141874070661e+03 9.5383999813459141e+03 0.0000000000000000e+00 0.0000000000000000e+00 0.0000000000000000e+00 0.0000000000000000e+00  -2.6486318873962766e+05 3.5127283495794510e+05 0.0000000000000000e+00 3.5127283495794510e+05 -4.8212011124995440e+07 0.0000000000000000e+00 0.0000000000000000e+00 0.0000000000000000e+00 0.0000000000000000e+00  -2.4828472140400382e+05 -3.8108878383702383e+05 0.0000000000000000e+00 -3.8108878383702383e+05 -4.5620473336231247e+07 0.0000000000000000e+00 0.0000000000000000e+00 0.0000000000000000e+00 0.0000000000000000e+00  -2.0028652642702975e+04 1.2292498127364288e+03 0.0000000000000000e+00 1.2292498127364288e+03 -1.3202770303862728e+03 0.0000000000000000e+00 0.0000000000000000e+00 0.0000000000000000e+00 0.0000000000000000e+00  -5.0838260367755727e+04 1.2527094602572684e+04 0.0000000000000000e+00 1.2527094602572684e+04 -3.7943364186675892e+04 0.0000000000000000e+00 0.0000000000000000e+00 0.0000000000000000e+00 0.0000000000000000e+00  -5.1603779278055328e+05 -5.0637253938649269e+05 0.0000000000000000e+00 -5.0637253938649269e+05 -6.8328521796901687e+05 0.0000000000000000e+00 0.0000000000000000e+00 0.0000000000000000e+00 0.0000000000000000e+00  -4.6172851155010037e+07 4.6657904503102414e+07 0.0000000000000000e+00 4.6657904503102414e+07 -3.2428028335056785e+07 0.0000000000000000e+00 0.0000000000000000e+00 0.0000000000000000e+00 0.0000000000000000e+00  -8.4547505622913733e+07 8.3849320686743349e+07 0.0000000000000000e+00 8.3849320686743349e+07 -1.0114346093393281e+08 0.0000000000000000e+00 0.0000000000000000e+00 0.0000000000000000e+00 0.0000000000000000e+00  -3.9369181849261679e+07 5.7778857918069601e+07 0.0000000000000000e+00 5.7778857918069601e+07 -7.1471919061563969e+07 0.0000000000000000e+00 0.0000000000000000e+00 0.0000000000000000e+00 0.0000000000000000e+00  8.3018081225373009e+06 -9.4731052352231427e+05 0.0000000000000000e+00 -9.4731052352231427e+05 -1.2128332316328414e+08 0.0000000000000000e+00 0.0000000000000000e+00 0.0000000000000000e+00 0.0000000000000000e+00  -4.3469257483553171e+07 -6.0438451917454764e+07 0.0000000000000000e+00 -6.0438451917454764e+07 -5.9981568094713323e+07 0.0000000000000000e+00 0.0000000000000000e+00 0.0000000000000000e+00 0.0000000000000000e+00  -8.5549967481550217e+07 -7.4148276930676848e+07 0.0000000000000000e+00 -7.4148276930676848e+07 -8.4330862445464626e+07 0.0000000000000000e+00 0.0000000000000000e+00 0.0000000000000000e+00 0.0000000000000000e+00  -5.0846471506332181e+07 -3.8515834662112579e+07 0.0000000000000000e+00 -3.8515834662112579e+07 -1.8339843353968255e+07 0.0000000000000000e+00 0.0000000000000000e+00 0.0000000000000000e+00 0.0000000000000000e+00  -3.8555707299592014e+05 2.7802108460676484e+05 0.0000000000000000e+00 2.7802108460676484e+05 -6.3379535539356049e+05 0.0000000000000000e+00 0.0000000000000000e+00 0.0000000000000000e+00 0.0000000000000000e+00  -1.0310781754830442e+05 -2.8741171581355222e+04 0.0000000000000000e+00 -2.8741171581355222e+04 -1.0838668961444592e+05 0.0000000000000000e+00 0.0000000000000000e+00 0.0000000000000000e+00 0.0000000000000000e+00  -9.0601724552521780e+06 3.2717126840890790e+06 0.0000000000000000e+00 3.2717126840890790e+06 -3.3552597160369018e+05 0.0000000000000000e+00 0.0000000000000000e+00 0.0000000000000000e+00 0.0000000000000000e+00  -7.6020687211262928e+06 6.1953234896972887e+06 0.0000000000000000e+00 6.1953234896972887e+06 -5.6180839014881505e+06 0.0000000000000000e+00 0.0000000000000000e+00 0.0000000000000000e+00 0.0000000000000000e+00  -1.1103543897881210e+07 7.2236205103295734e+06 0.0000000000000000e+00 7.2236205103295734e+06 -3.6178351394526483e+06 0.0000000000000000e+00 0.0000000000000000e+00 0.0000000000000000e+00 0.0000000000000000e+00  1.4681637859517682e+05 6.3505793665822071e+05 0.0000000000000000e+00 6.3505793665822071e+05 1.5095447700061249e+06 0.0000000000000000e+00 0.0000000000000000e+00 0.0000000000000000e+00 0.0000000000000000e+00  7.2722445223289693e+05 1.3612547457759972e+06 0.0000000000000000e+00 1.3612547457759972e+06 2.3802272407503803e+06 0.0000000000000000e+00 0.0000000000000000e+00 0.0000000000000000e+00 0.0000000000000000e+00  9.8633177956772712e+05 8.6127873239026172e+05 0.0000000000000000e+00 8.6127873239026172e+05 5.3928276848217309e+05 0.0000000000000000e+00 0.0000000000000000e+00 0.0000000000000000e+00 0.0000000000000000e+00  -1.5280266051338962e+04 1.8377216589056732e+03 0.0000000000000000e+00 1.8377216589056732e+03 -9.7902441608571974e+02 0.0000000000000000e+00 0.0000000000000000e+00 0.0000000000000000e+00 0.0000000000000000e+00  -2.7757573122964613e+05 4.1520536705031642e+05 0.0000000000000000e+00 4.1520536705031642e+05 -4.1135703498716109e+07 0.0000000000000000e+00 0.0000000000000000e+00 0.0000000000000000e+00 0.0000000000000000e+00  -1.5370586197174920e+07 -3.9963119182193722e+06 0.0000000000000000e+00 -3.9963119182193722e+06 -7.3169103347137049e+07 0.0000000000000000e+00 0.0000000000000000e+00 0.0000000000000000e+00 0.0000000000000000e+00  2.0278799481895342e+05 1.7233062160123372e+05 0.0000000000000000e+00 1.7233062160123372e+05 2.6907708867742732e+05 0.0000000000000000e+00 0.0000000000000000e+00 0.0000000000000000e+00 0.0000000000000000e+00  -8.1405168221750811e+07 -4.3439964982884690e+07 0.0000000000000000e+00 -4.3439964982884690e+07 -1.7338921698928226e+07 0.0000000000000000e+00 0.0000000000000000e+00 0.0000000000000000e+00 0.0000000000000000e+00  2.5767848036311142e+07 -2.0822862237992869e+06 0.0000000000000000e+00 -2.0822862237992869e+06 2.7715109692831075e+08 0.0000000000000000e+00 0.0000000000000000e+00 0.0000000000000000e+00 0.0000000000000000e+00  -1.2077235432649998e+08 -9.3107910343974188e+07 0.0000000000000000e+00 -9.3107910343974188e+07 -8.9104542552720398e+07 0.0000000000000000e+00 0.0000000000000000e+00 0.0000000000000000e+00 0.0000000000000000e+00  -8.4132995312907666e+07 1.1235589912234989e+08 0.0000000000000000e+00 1.1235589912234989e+08 -1.4845693740822452e+08 0.0000000000000000e+00 0.0000000000000000e+00 0.0000000000000000e+00 0.0000000000000000e+00  -4.9777745733926624e+07 -6.7732348462354302e+07 0.0000000000000000e+00 -6.7732348462354302e+07 -5.4498797334905975e+07 0.0000000000000000e+00 0.0000000000000000e+00 0.0000000000000000e+00 0.0000000000000000e+00  -1.2421637409926066e+08 1.2703285830509265e+08 0.0000000000000000e+00 1.2703285830509265e+08 -1.4009766153051725e+08 0.0000000000000000e+00 0.0000000000000000e+00 0.0000000000000000e+00 0.0000000000000000e+00  3.6249123424076918e+06 -1.5098276052955496e+06 0.0000000000000000e+00 -1.5098276052955496e+06 -8.4638465503399931e+06 0.0000000000000000e+00 0.0000000000000000e+00 0.0000000000000000e+00 0.0000000000000000e+00  -4.3165397638959907e+07 9.5663926264460385e+07 0.0000000000000000e+00 9.5663926264460385e+07 -1.5218990541962901e+08 0.0000000000000000e+00 0.0000000000000000e+00 0.0000000000000000e+00 0.0000000000000000e+00  7.5262758063506437e+06 -3.3860472870056028e+06 0.0000000000000000e+00 -3.3860472870056028e+06 -8.7538123473123591e+06 0.0000000000000000e+00 0.0000000000000000e+00 0.0000000000000000e+00 0.0000000000000000e+00  5.7662760300923586e+06 2.2690304228776539e+05 0.0000000000000000e+00 2.2690304228776539e+05 -1.2525915723878503e+08 0.0000000000000000e+00 0.0000000000000000e+00 0.0000000000000000e+00 0.0000000000000000e+00  7.8652791028162306e+06 -2.1372925610370472e+07 0.0000000000000000e+00 -2.1372925610370472e+07 5.3029739614220925e+07 0.0000000000000000e+00 0.0000000000000000e+00 0.0000000000000000e+00 0.0000000000000000e+00  -2.8281638677228045e+07 -3.2129715481435761e+07 0.0000000000000000e+00 -3.2129715481435761e+07 -2.8894829664989658e+07 0.0000000000000000e+00 0.0000000000000000e+00 0.0000000000000000e+00 0.0000000000000000e+00  3.2642963855899670e+06 -4.5631007976594232e+06 0.0000000000000000e+00 -4.5631007976594232e+06 2.2341201817069557e+08 0.0000000000000000e+00 0.0000000000000000e+00 0.0000000000000000e+00 0.0000000000000000e+00  -4.4168208875287831e+07 -4.7179043442543976e+07 0.0000000000000000e+00 -4.7179043442543976e+07 -4.7809009086375467e+07 0.0000000000000000e+00 0.0000000000000000e+00 0.0000000000000000e+00 0.0000000000000000e+00  -3.3164119721204153e+05 2.3507257902606785e+07 0.0000000000000000e+00 2.3507257902606785e+07 3.0427162276798919e+07 0.0000000000000000e+00 0.0000000000000000e+00 0.0000000000000000e+00 0.0000000000000000e+00  -4.8503996915292069e+07 4.9118474433178134e+07 0.0000000000000000e+00 4.9118474433178134e+07 -4.6568606122343071e+07 0.0000000000000000e+00 0.0000000000000000e+00 0.0000000000000000e+00 0.0000000000000000e+00  -2.2826773513665888e+06 3.6224719501080014e+07 0.0000000000000000e+00 3.6224719501080014e+07 -1.0364710166101322e+08 0.0000000000000000e+00 0.0000000000000000e+00 0.0000000000000000e+00 0.0000000000000000e+00  -4.5687969344689205e+07 -2.3776584670654260e+07 0.0000000000000000e+00 -2.3776584670654260e+07 -9.5691878008693084e+06 0.0000000000000000e+00 0.0000000000000000e+00 0.0000000000000000e+00 0.0000000000000000e+00  -7.3142339363238409e+07 8.8946381253746942e+07 0.0000000000000000e+00 8.8946381253746942e+07 -9.1771574496604234e+07 0.0000000000000000e+00 0.0000000000000000e+00 0.0000000000000000e+00 0.0000000000000000e+00  -3.3959228315134317e+07 -3.1944990896229286e+07 0.0000000000000000e+00 -3.1944990896229286e+07 -3.1558721303926129e+07 0.0000000000000000e+00 0.0000000000000000e+00 0.0000000000000000e+00 0.0000000000000000e+00  -3.8212644890024208e+07 -1.9756208913600210e+07 0.0000000000000000e+00 -1.9756208913600210e+07 -7.0468508820386454e+06 0.0000000000000000e+00 0.0000000000000000e+00 0.0000000000000000e+00 0.0000000000000000e+00  -6.3733305786824390e+07 -3.6600950730293803e+07 0.0000000000000000e+00 -3.6600950730293803e+07 -1.6672103660141515e+07 0.0000000000000000e+00 0.0000000000000000e+00 0.0000000000000000e+00 0.0000000000000000e+00  -7.8855721425599605e+06 -1.3312586402282966e+07 0.0000000000000000e+00 -1.3312586402282966e+07 -1.6116199266693201e+07 0.0000000000000000e+00 0.0000000000000000e+00 0.0000000000000000e+00 0.0000000000000000e+00  3.9485638563986853e+07 -1.5087264323549753e+06 0.0000000000000000e+00 -1.5087264323549753e+06 4.2711696647340256e+08 0.0000000000000000e+00 0.0000000000000000e+00 0.0000000000000000e+00 0.0000000000000000e+00  -2.3240231193360381e+07 -1.0771417174992934e+07 0.0000000000000000e+00 -1.0771417174992934e+07 -3.5842767710247315e+06 0.0000000000000000e+00 0.0000000000000000e+00 0.0000000000000000e+00 0.0000000000000000e+00  -1.6708674591461638e+07 2.0099203230712608e+07 0.0000000000000000e+00 2.0099203230712608e+07 -2.0331784311954387e+07 0.0000000000000000e+00 0.0000000000000000e+00 0.0000000000000000e+00 0.0000000000000000e+00  -9.8619029076797869e+06 1.1395691973491639e+07 0.0000000000000000e+00 1.1395691973491639e+07 -1.1600701043164700e+07 0.0000000000000000e+00 0.0000000000000000e+00 0.0000000000000000e+00 0.0000000000000000e+00  -3.0050308322605939e+05 6.6762815218823887e+06 0.0000000000000000e+00 6.6762815218823887e+06 -2.1091569018639117e+07 0.0000000000000000e+00 0.0000000000000000e+00 0.0000000000000000e+00 0.0000000000000000e+00  -7.2325606869834229e+07 -5.0047728709047146e+07 0.0000000000000000e+00 -5.0047728709047146e+07 -2.1160770132644374e+07 0.0000000000000000e+00 0.0000000000000000e+00 0.0000000000000000e+00 0.0000000000000000e+00  1.1267458381838722e+07 6.2453738095993386e+05 0.0000000000000000e+00 6.2453738095993386e+05 1.4707900163171360e+08 0.0000000000000000e+00 0.0000000000000000e+00 0.0000000000000000e+00 0.0000000000000000e+00  -1.1545406397251813e+08 -6.6105450953143284e+07 0.0000000000000000e+00 -6.6105450953143284e+07 -5.3033049142056197e+07 0.0000000000000000e+00 0.0000000000000000e+00 0.0000000000000000e+00 0.0000000000000000e+00  -1.2968035484108040e+07 2.1821740847560007e+07 0.0000000000000000e+00 2.1821740847560007e+07 -2.5854577235411026e+07 0.0000000000000000e+00 0.0000000000000000e+00 0.0000000000000000e+00 0.0000000000000000e+00  -5.2672754959363803e+07 -5.8846553173170753e+07 0.0000000000000000e+00 -5.8846553173170753e+07 -4.8974402364734724e+07 0.0000000000000000e+00 0.0000000000000000e+00 0.0000000000000000e+00 0.0000000000000000e+00  -2.6512484870778728e+07 3.0835624125827894e+07 0.0000000000000000e+00 3.0835624125827894e+07 -4.5330303136183590e+07 0.0000000000000000e+00 0.0000000000000000e+00 0.0000000000000000e+00 0.0000000000000000e+00  -4.4681304941651272e+06 1.5071879920056304e+07 0.0000000000000000e+00 1.5071879920056304e+07 -2.1857713062993877e+07 0.0000000000000000e+00 0.0000000000000000e+00 0.0000000000000000e+00 0.0000000000000000e+00  -1.0359492326402513e+07 2.2545275787080336e+07 0.0000000000000000e+00 2.2545275787080336e+07 -4.0212374855689310e+07 0.0000000000000000e+00 0.0000000000000000e+00 0.0000000000000000e+00 0.0000000000000000e+00  -5.2549019955932489e+06 1.5026435420301072e+07 0.0000000000000000e+00 1.5026435420301072e+07 -5.3169884925366558e+07 0.0000000000000000e+00 0.0000000000000000e+00 0.0000000000000000e+00 0.0000000000000000e+00  5.8120945752146896e+06 4.0873367324553122e+05 0.0000000000000000e+00 4.0873367324553122e+05 -7.2516577665805