<?xml version="1.0"?>
<VTKFile type="UnstructuredGrid"  version="0.1"  >
<UnstructuredGrid>
<Piece  NumberOfPoints="1527" NumberOfCells="2894">
<Points>
<DataArray  type="Float64"  NumberOfComponents="3"  format="ascii">0.625 0.5 0  0 0 0  1 0 0  0 1 0  1 1 0  0.6234610425743923 0.5195543081300289 0  0.6188820645368942 0.5386271242968684 0  0.611375815523546 0.5567488124674433 0  0.6011271242968684 0.5734731565365591 0  0.5883883476483185 0.5883883476483184 0  0.5734731565365592 0.6011271242968684 0  0.5567488124674435 0.6113758155235459 0  0.5386271242968685 0.6188820645368942 0  0.5195543081300289 0.6234610425743922 0  0.5000000000000001 0.625 0  0.4804456918699712 0.6234610425743923 0  0.4613728757031317 0.6188820645368942 0  0.4432511875325567 0.611375815523546 0  0.4265268434634409 0.6011271242968684 0  0.4116116523516816 0.5883883476483185 0  0.3988728757031316 0.5734731565365593 0  0.3886241844764541 0.5567488124674435 0  0.3811179354631059 0.5386271242968685 0  0.3765389574256078 0.5195543081300291 0  0.375 0.5000000000000002 0  0.3765389574256077 0.4804456918699713 0  0.3811179354631057 0.4613728757031319 0  0.3886241844764539 0.4432511875325569 0  0.3988728757031313 0.4265268434634412 0  0.4116116523516813 0.4116116523516818 0  0.4265268434634406 0.3988728757031318 0  0.4432511875325562 0.3886241844764542 0  0.461372875703131 0.381117935463106 0  0.4804456918699705 0.3765389574256079 0  0.4999999999999993 0.375 0  0.5195543081300281 0.3765389574256077 0  0.5386271242968677 0.3811179354631056 0  0.5567488124674427 0.3886241844764536 0  0.5734731565365586 0.3988728757031312 0  0.588388347648318 0.4116116523516812 0  0.6011271242968682 0.4265268434634406 0  0.6113758155235458 0.4432511875325563 0  0.6188820645368941 0.4613728757031313 0  0.6234610425743922 0.480445691869971 0  0.03333333333333333 0 0  0.06666666666666667 0 0  0.1 0 0  0.1333333333333333 0 0  0.1666666666666667 0 0  0.2 0 0  0.2333333333333333 0 0  0.2666666666666667 0 0  0.3 0 0  0.3333333333333333 0 0  0.3666666666666666 0 0  0.4 0 0  0.4333333333333333 0 0  0.4666666666666667 0 0  0.5 0 0  0.5333333333333333 0 0  0.5666666666666667 0 0  0.6 0 0  0.6333333333333333 0 0  0.6666666666666666 0 0  0.7 0 0  0.7333333333333333 0 0  0.7666666666666667 0 0  0.8 0 0  0.8333333333333334 0 0  0.8666666666666667 0 0  0.9 0 0  0.9333333333333333 0 0  0.9666666666666667 0 0  0 0.9666666666666667 0  0 0.9333333333333333 0  0 0.9 0  0 0.8666666666666667 0  0 0.8333333333333334 0  0 0.8 0  0 0.7666666666666666 0  0 0.7333333333333334 0  0 0.7 0  0 0.6666666666666667 0  0 0.6333333333333333 0  0 0.6 0  0 0.5666666666666667 0  0 0.5333333333333333 0  0 0.5 0  0 0.4666666666666667 0  0 0.4333333333333333 0  0 0.4 0  0 0.3666666666666667 0  0 0.3333333333333334 0  0 0.3 0  0 0.2666666666666667 0  0 0.2333333333333333 0  0 0.2 0  0 0.1666666666666666 0  0 0.1333333333333333 0  0 0.09999999999999998 0  0 0.06666666666666665 0  0 0.03333333333333333 0  1 0.03333333333333333 0  1 0.06666666666666667 0  1 0.1 0  1 0.1333333333333333 0  1 0.1666666666666667 0  1 0.2 0  1 0.2333333333333333 0  1 0.2666666666666667 0  1 0.3 0  1 0.3333333333333333 0  1 0.3666666666666666 0  1 0.4 0  1 0.4333333333333333 0  1 0.4666666666666667 0  1 0.5 0  1 0.5333333333333333 0  1 0.5666666666666667 0  1 0.6 0  1 0.6333333333333333 0  1 0.6666666666666666 0  1 0.7 0  1 0.7333333333333333 0  1 0.7666666666666667 0  1 0.8 0  1 0.8333333333333334 0  1 0.8666666666666667 0  1 0.9 0  1 0.9333333333333333 0  1 0.9666666666666667 0  0.9666666666666667 1 0  0.9333333333333333 1 0  0.9 1 0  0.8666666666666667 1 0  0.8333333333333334 1 0  0.8 1 0  0.7666666666666666 1 0  0.7333333333333334 1 0  0.7 1 0  0.6666666666666667 1 0  0.6333333333333333 1 0  0.6 1 0  0.5666666666666667 1 0  0.5333333333333333 1 0  0.5 1 0  0.4666666666666667 1 0  0.4333333333333333 1 0  0.4 1 0  0.3666666666666667 1 0  0.3333333333333334 1 0  0.3 1 0  0.2666666666666667 1 0  0.2333333333333333 1 0  0.2 1 0  0.1666666666666666 1 0  0.1333333333333333 1 0  0.09999999999999998 1 0  0.06666666666666665 1 0  0.03333333333333333 1 0  0.3930431054308514 0.5928179580798466 0  0.5905278901346811 0.6094382742266491 0  0.4078781305295169 0.3932266811114852 0  0.6072689759213495 0.4076980698988689 0  0.3690363551635615 0.4463366778122712 0  0.6288460036241182 0.5558255386055079 0  0.4460007267053666 0.6303663883732731 0  0.5532315372000588 0.3692430606935564 0  0.3621507834984008 0.53532424174864 0  0.4669437724827065 0.3623109031221634 0  0.5319427356128351 0.6339900108624597 0  0.638202150167439 0.4682240936719599 0  0.25 0.9711324865405186 0  0.03062416889770314 0.245553011651033 0  0.972348905176698 0.7460899667003036 0  0.7501836212135571 0.02841355087176689 0  0.02850358917784462 0.7170179611077369 0  0.7117484280466959 0.9737155210628314 0  0.2838781512078721 0.02877353855122422 0  0.9723074812140426 0.2850280809669129 0  0.02718012680619741 0.3850412602699783 0  0.9744864601533538 0.6188997163057689 0  0.3875920514971418 0.9732700854974269 0  0.6174915513378305 0.02569415158594224 0  0.02784746110533443 0.5822193051564793 0  0.4166465987971089 0.02782368678694247 0  0.5823240223356406 0.9718726776512605 0  0.9718795677752488 0.4154473029624743 0  0.5169994670875634 0.028439021615492 0  0.02774076921228302 0.4851609562476463 0  0.9731888581856518 0.5149736581722757 0  0.483274380986912 0.9761632048441868 0  0.184486043297192 0.02990831689927892 0  0.9783932581879555 0.1821530598243376 0  0.8172916297710544 0.9729382080838186 0  0.02809994958145418 0.8154677730396758 0  0.6413485001250074 0.5098428116036816 0  0.3557427056480481 0.489063918856501 0  0.509343409416361 0.3554928990062298 0  0.4882178719956244 0.6404375643336139 0  0.02993744798946668 0.1509068221171908 0  0.9720986024002268 0.8483172859750581 0  0.1501965296729159 0.9712181484152003 0  0.8527228458646663 0.03216021598929991 0  0.03360323003356819 0.6472821388644339 0  0.652735056527019 0.9682402772587329 0  0.03311149257453838 0.3164597263507081 0  0.3155971364973545 0.9714547702413403 0  0.6835311310125218 0.02852389426523327 0  0.9714899478940546 0.6855611855056886 0  0.3506561746865798 0.02893302269530718 0  0.9710671502911232 0.3506470406298688 0  0.03003265325832183 0.8835342308895741 0  0.1166666666666666 0.0288675134594813 0  0.8822093422069299 0.9720392681752781 0  0.9728457489390638 0.1164183764811033 0  0.02874387090013159 0.08164918029599227 0  0.08408285874008337 0.9711561284652312 0  0.9210414692111545 0.02731354143118531 0  0.9724333365013981 0.9165194875152239 0  0.0307264367475214 0.9468218388454345 0  0.05015080906624514 0.02821996865622811 0  0.9481499648766628 0.9684387396730882 0  0.9735470878113801 0.04810117289318094 0  0.6199159573548145 0.4251904664671427 0  0.6275477494076541 0.4050366716385101 0  0.6135655389965169 0.3884963013558518 0  0.6344026544092539 0.3844911766128957 0  0.6484053041907322 0.4016076734062252 0  0.6555959848589374 0.38032148712249 0  0.6698791327517419 0.3973931668880951 0  0.6773840291919345 0.3758734953340177 0  0.6625850953825516 0.358868557676484 0  0.6848862582165962 0.3542606697579689 0  0.6693690625961768 0.336424119556812 0  0.6931123790910747 0.331995772163264 0  0.6920328370065365 0.392924951316143 0  0.6767406934503711 0.3134952293264378 0  0.7010587394414225 0.3087815487731508 0  0.7174779601073022 0.3277012309711392 0  0.7257835658969809 0.3038630795313629 0  0.6841107732339473 0.2905536627205562 0  0.7423937167263011 0.3233527831373453 0  0.7511352177529549 0.2988161246165138 0  0.6601694627895158 0.2953520730150848 0  0.6674041344738992 0.2717946079029681 0  0.6430641262775927 0.2766254212613884 0  0.6503894384766008 0.2528559682969524 0  0.6265170056986418 0.2570373660309377 0  0.6759400372517917 0.2461640940511778 0  0.6333384306790902 0.2335118619692841 0  0.608493602811671 0.238474315554329 0  0.768391306482485 0.319084060319106 0  0.777246646140041 0.2936745742958833 0  0.6165285073924154 0.2136055733186042 0  0.5914139851977019 0.2182811002341773 0  0.7947548726393827 0.3141537258826975 0  0.785697798539284 0.3398442655894621 0  0.8038741613822676 0.2883860484289115 0  0.7859017230245094 0.26753422277139 0  0.8132091058506823 0.261894245269084 0  0.7940496095093057 0.240231662310037 0  0.5983062292182124 0.1940658924858011 0  0.5727135386912594 0.1992384358941889 0  0.6277337658452942 0.1864366980688272 0  0.5652706468461877 0.2226232602118486 0  0.5468030805844766 0.2047626475731174 0  0.5385963315873958 0.2286133721291543 0  0.5210652603559467 0.2108004408639962 0  0.5129870341209254 0.2343714549793104 0  0.4957362363083698 0.216658223098785 0  0.4878064955570092 0.2398660730049763 0  0.470798718556337 0.2222902657082584 0  0.4632284468944473 0.2461877993482809 0  0.4464194169302688 0.2273039090465198 0  0.4386427250978295 0.2516669528816416 0  0.4217074764134515 0.2326354306353944 0  0.4138908863358343 0.2573496091675749 0  0.3968950653226423 0.2386110139677914 0  0.3891970964935039 0.26275724455882 0  0.372219388005121 0.2442076901947807 0  0.3645101369104096 0.2683576006742499 0  0.3473163330291258 0.2495439885287373 0  0.3395989067270331 0.274024373849664 0  0.3220144660968551 0.2548336212186916 0  0.3145839528339604 0.2795034949405423 0  0.2964025080036264 0.2603541031986351 0  0.2888241610011503 0.2849270524523173 0  0.2705751152164527 0.2660123389646862 0  0.2624501338217412 0.2912463839730704 0  0.2440989267031209 0.2717370933776592 0  0.2361258707531722 0.297982418385652 0  0.2513551212545176 0.2464876983624566 0  0.2534555708509073 0.3173246845763859 0  0.2280506642226341 0.3242465544147027 0  0.245325874518586 0.3438633841238345 0  0.2202523891809026 0.3501578742777596 0  0.2383240521815618 0.3696094603618406 0  0.212501824965487 0.3758148524501405 0  0.2307329012982359 0.3950212895121271 0  0.3300571708690203 0.2302983619763679 0  0.2046766009943212 0.4013850000730873 0  0.2229061623719512 0.4206623491740965 0  0.2250078248843251 0.2519998596459881 0  0.4052330016584919 0.2
[...]
<PointData  Tensors="$\sigma$"> 
<DataArray  type="Float64"  Name="$\sigma$"  NumberOfComponents="9" format="ascii">5.9470791275982291e+07 -6.0516185943602002e+05 0.0000000000000000e+00 -6.0516185943602002e+05 4.6977352674161220e+08 0.0000000000000000e+00 0.0000000000000000e+00 0.0000000000000000e+00 0.0000000000000000e+00  3.3325942001362906e+04 2.9187123566889181e+05 0.0000000000000000e+00 2.9187123566889181e+05 2.2085007679409701e+08 0.0000000000000000e+00 0.0000000000000000e+00 0.0000000000000000e+00 0.0000000000000000e+00  1.1649336463655962e+05 -2.8397860280798952e+05 0.0000000000000000e+00 -2.8397860280798952e+05 2.2071713464793149e+08 0.0000000000000000e+00 0.0000000000000000e+00 0.0000000000000000e+00 0.0000000000000000e+00  1.7458983396812782e+05 -2.4743612314423369e+05 0.0000000000000000e+00 -2.4743612314423369e+05 2.2105522248726186e+08 0.0000000000000000e+00 0.0000000000000000e+00 0.0000000000000000e+00 0.0000000000000000e+00  5.5705303665477230e+04 4.3420469037240784e+05 0.0000000000000000e+00 4.3420469037240784e+05 2.2076866304080415e+08 0.0000000000000000e+00 0.0000000000000000e+00 0.0000000000000000e+00 0.0000000000000000e+00  5.8880835291210309e+07 -7.2135608187807888e+07 0.0000000000000000e+00 -7.2135608187807888e+07 4.6230535184783959e+08 0.0000000000000000e+00 0.0000000000000000e+00 0.0000000000000000e+00 0.0000000000000000e+00  5.8016804256098755e+07 -1.1764141235660695e+08 0.0000000000000000e+00 -1.1764141235660695e+08 4.1569626342543823e+08 0.0000000000000000e+00 0.0000000000000000e+00 0.0000000000000000e+00 0.0000000000000000e+00  8.0950872918832585e+07 -1.4184677664872468e+08 0.0000000000000000e+00 -1.4184677664872468e+08 3.1979956781976455e+08 0.0000000000000000e+00 0.0000000000000000e+00 0.0000000000000000e+00 0.0000000000000000e+00  8.5691946487587616e+07 -1.2316326442861165e+08 0.0000000000000000e+00 -1.2316326442861165e+08 2.0461693769532585e+08 0.0000000000000000e+00 0.0000000000000000e+00 0.0000000000000000e+00 0.0000000000000000e+00  7.1947333284023002e+07 -8.3643122067683116e+07 0.0000000000000000e+00 -8.3643122067683116e+07 1.0875906264227283e+08 0.0000000000000000e+00 0.0000000000000000e+00 0.0000000000000000e+00 0.0000000000000000e+00  2.3871775628107511e+07 -2.9685379085298948e+07 0.0000000000000000e+00 -2.9685379085298948e+07 4.2854853803916119e+07 0.0000000000000000e+00 0.0000000000000000e+00 0.0000000000000000e+00 0.0000000000000000e+00  -3.5933833202825628e+07 1.0065490873891937e+07 0.0000000000000000e+00 1.0065490873891937e+07 5.6527588090703888e+06 0.0000000000000000e+00 0.0000000000000000e+00 0.0000000000000000e+00 0.0000000000000000e+00  -1.1252780672470517e+08 2.6343136541631021e+07 0.0000000000000000e+00 2.6343136541631021e+07 -5.1048070582400039e+06 0.0000000000000000e+00 0.0000000000000000e+00 0.0000000000000000e+00 0.0000000000000000e+00  -1.5740108460748431e+08 1.1150182548959332e+07 0.0000000000000000e+00 1.1150182548959332e+07 -6.3580127718949039e+06 0.0000000000000000e+00 0.0000000000000000e+00 0.0000000000000000e+00 0.0000000000000000e+00  -1.7229412511373916e+08 2.2668684283255851e+06 0.0000000000000000e+00 2.2668684283255851e+06 -6.1410242545883553e+06 0.0000000000000000e+00 0.0000000000000000e+00 0.0000000000000000e+00 0.0000000000000000e+00  -1.5897948824374762e+08 -1.8524965966628127e+07 0.0000000000000000e+00 -1.8524965966628127e+07 -6.6833019269142123e+06 0.0000000000000000e+00 0.0000000000000000e+00 0.0000000000000000e+00 0.0000000000000000e+00  -1.0806251704317531e+08 -2.3305991533444107e+07 0.0000000000000000e+00 -2.3305991533444107e+07 -6.4908658373816125e+06 0.0000000000000000e+00 0.0000000000000000e+00 0.0000000000000000e+00 0.0000000000000000e+00  -4.2244175252678789e+07 -5.1827808634356745e+06 0.0000000000000000e+00 -5.1827808634356745e+06 5.9831693740030769e+06 0.0000000000000000e+00 0.0000000000000000e+00 0.0000000000000000e+00 0.0000000000000000e+00  2.3253946448871028e+07 3.7317507076624118e+07 0.0000000000000000e+00 3.7317507076624118e+07 4.5959011417186469e+07 0.0000000000000000e+00 0.0000000000000000e+00 0.0000000000000000e+00 0.0000000000000000e+00  6.6492895264534593e+07 8.1581821515932232e+07 0.0000000000000000e+00 8.1581821515932232e+07 1.1127324686345319e+08 0.0000000000000000e+00 0.0000000000000000e+00 0.0000000000000000e+00 0.0000000000000000e+00  8.8643205707613871e+07 1.2412820939470914e+08 0.0000000000000000e+00 1.2412820939470914e+08 2.1178576978196317e+08 0.0000000000000000e+00 0.0000000000000000e+00 0.0000000000000000e+00 0.0000000000000000e+00  7.6768181012142375e+07 1.3520757569052574e+08 0.0000000000000000e+00 1.3520757569052574e+08 3.1794508538580817e+08 0.0000000000000000e+00 0.0000000000000000e+00 0.0000000000000000e+00 0.0000000000000000e+00  6.6232786138481312e+07 1.2425021536211772e+08 0.0000000000000000e+00 1.2425021536211772e+08 4.1825770732876009e+08 0.0000000000000000e+00 0.0000000000000000e+00 0.0000000000000000e+00 0.0000000000000000e+00  6.4990492468621843e+07 6.2089162989730455e+07 0.0000000000000000e+00 6.2089162989730455e+07 4.7509439973751128e+08 0.0000000000000000e+00 0.0000000000000000e+00 0.0000000000000000e+00 0.0000000000000000e+00  6.8855525541508675e+07 1.9803832746085187e+06 0.0000000000000000e+00 1.9803832746085187e+06 4.8887413617103422e+08 0.0000000000000000e+00 0.0000000000000000e+00 0.0000000000000000e+00 0.0000000000000000e+00  6.8688715882686913e+07 -6.2575000453829296e+07 0.0000000000000000e+00 -6.2575000453829296e+07 4.7727579564851487e+08 0.0000000000000000e+00 0.0000000000000000e+00 0.0000000000000000e+00 0.0000000000000000e+00  5.9301193275553256e+07 -1.1450856282215802e+08 0.0000000000000000e+00 -1.1450856282215802e+08 4.2099625864060742e+08 0.0000000000000000e+00 0.0000000000000000e+00 0.0000000000000000e+00 0.0000000000000000e+00  7.4598672165843740e+07 -1.4147888869834745e+08 0.0000000000000000e+00 -1.4147888869834745e+08 3.2804683288751012e+08 0.0000000000000000e+00 0.0000000000000000e+00 0.0000000000000000e+00 0.0000000000000000e+00  8.3125972312034875e+07 -1.2453008613795842e+08 0.0000000000000000e+00 -1.2453008613795842e+08 2.1177340296343911e+08 0.0000000000000000e+00 0.0000000000000000e+00 0.0000000000000000e+00 0.0000000000000000e+00  6.5667266186823912e+07 -7.9753562612409428e+07 0.0000000000000000e+00 -7.9753562612409428e+07 1.1165119227556099e+08 0.0000000000000000e+00 0.0000000000000000e+00 0.0000000000000000e+00 0.0000000000000000e+00  2.1759250380052514e+07 -3.0777409391465172e+07 0.0000000000000000e+00 -3.0777409391465172e+07 4.3107374404183798e+07 0.0000000000000000e+00 0.0000000000000000e+00 0.0000000000000000e+00 0.0000000000000000e+00  -4.0736713435293928e+07 -1.4703387446295561e+06 0.0000000000000000e+00 -1.4703387446295561e+06 3.5150774150650520e+06 0.0000000000000000e+00 0.0000000000000000e+00 0.0000000000000000e+00 0.0000000000000000e+00  -1.0784624069516759e+08 2.3947657947116800e+07 0.0000000000000000e+00 2.3947657947116800e+07 -5.7927737296964545e+06 0.0000000000000000e+00 0.0000000000000000e+00 0.0000000000000000e+00 0.0000000000000000e+00  -1.6174324017904481e+08 1.8450984189095665e+07 0.0000000000000000e+00 1.8450984189095665e+07 -7.3966559004924707e+06 0.0000000000000000e+00 0.0000000000000000e+00 0.0000000000000000e+00 0.0000000000000000e+00  -1.7342366563544685e+08 -1.9249241941070342e+06 0.0000000000000000e+00 -1.9249241941070342e+06 -5.1818570557653280e+06 0.0000000000000000e+00 0.0000000000000000e+00 0.0000000000000000e+00 0.0000000000000000e+00  -1.5480808399530888e+08 -1.1198755516102329e+07 0.0000000000000000e+00 -1.1198755516102329e+07 -8.3508810715783890e+06 0.0000000000000000e+00 0.0000000000000000e+00 0.0000000000000000e+00 0.0000000000000000e+00  -1.1156576248328973e+08 -2.0303873478699282e+07 0.0000000000000000e+00 -2.0303873478699282e+07 -4.6901194425088000e+06 0.0000000000000000e+00 0.0000000000000000e+00 0.0000000000000000e+00 0.0000000000000000e+00  -4.4030069467321821e+07 -6.8227415730738752e+06 0.0000000000000000e+00 -6.8227415730738752e+06 6.0625367811889453e+06 0.0000000000000000e+00 0.0000000000000000e+00 0.0000000000000000e+00 0.0000000000000000e+00  2.3616000228419103e+07 3.8177511252039261e+07 0.0000000000000000e+00 3.8177511252039261e+07 4.4321799844441019e+07 0.0000000000000000e+00 0.0000000000000000e+00 0.0000000000000000e+00 0.0000000000000000e+00  6.5939158290226586e+07 8.0978884403673664e+07 0.0000000000000000e+00 8.0978884403673664e+07 1.0801751941944441e+08 0.0000000000000000e+00 0.0000000000000000e+00 0.0000000000000000e+00 0.0000000000000000e+00  8.8107406567933470e+07 1.2448561800725180e+08 0.0000000000000000e+00 1.2448561800725180e+08 2.1015848246771979e+08 0.0000000000000000e+00 0.0000000000000000e+00 0.0000000000000000e+00 0.0000000000000000e+00  7.4134276867276654e+07 1.3263830816841875e+08 0.0000000000000000e+00 1.3263830816841875e+08 3.1246152166990608e+08 0.0000000000000000e+00 0.0000000000000000e+00 0.0000000000000000e+00 0.0000000000000000e+00  6.0648112392196342e+07 1.2385904206810963e+08 0.0000000000000000e+00 1.2385904206810963e+08 4.1510144205890954e+08 0.0000000000000000e+00 0.0000000000000000e+00 0.0000000000000000e+00 0.0000000000000000e+00  5.7279933329515815e+07 6.7075555866151944e+07 0.0000000000000000e+00 6.7075555866151944e+07 4.5709226458311260e+08 0.0000000000000000e+00 0.0000000000000000e+00 0.0000000000000000e+00 0.0000000000000000e+00  -7.9473354260452150e+04 4.8997906469608861e+05 0.0000000000000000e+00 4.8997906469608861e+05 2.1463821213189265e+08 0.0000000000000000e+00 0.0000000000000000e+00 0.0000000000000000e+00 0.0000000000000000e+00  -6.3546854877231095e+05 2.8872194926361518e+05 0.0000000000000000e+00 2.8872194926361518e+05 2.0904521074782008e+08 0.0000000000000000e+00 0.0000000000000000e+00 0.0000000000000000e+00 0.0000000000000000e+00  -8.8508935136290325e+05 3.7537697722428612e+05 0.0000000000000000e+00 3.7537697722428612e+05 2.0324916733407518e+08 0.0000000000000000e+00 0.0000000000000000e+00 0.0000000000000000e+00 0.0000000000000000e+00  -1.1831681738926016e+06 4.2589703593242349e+05 0.0000000000000000e+00 4.2589703593242349e+05 1.9766236179871100e+08 0.0000000000000000e+00 0.0000000000000000e+00 0.0000000000000000e+00 0.0000000000000000e+00  -1.4689186612063088e+06 3.8016447229815047e+05 0.0000000000000000e+00 3.8016447229815047e+05 1.9194505772176805e+08 0.0000000000000000e+00 0.0000000000000000e+00 0.0000000000000000e+00 0.0000000000000000e+00  -1.0262617157204946e+06 2.2130974550073361e+05 0.0000000000000000e+00 2.2130974550073361e+05 1.8539733801115838e+08 0.0000000000000000e+00 0.0000000000000000e+00 0.0000000000000000e+00 0.0000000000000000e+00  1.3819865886327387e+04 1.6821610978610584e+05 0.0000000000000000e+00 1.6821610978610584e+05 1.7863612226650059e+08 0.0000000000000000e+00 0.0000000000000000e+00 0.0000000000000000e+00 0.0000000000000000e+00  1.5999432280306914e+06 1.0677696236609001e+05 0.0000000000000000e+00 1.0677696236609001e+05 1.7133578046616104e+08 0.0000000000000000e+00 0.0000000000000000e+00 0.0000000000000000e+00 0.0000000000000000e+00  3.8479541791966916e+06 6.1892001845517152e+04 0.0000000000000000e+00 6.1892001845517152e+04 1.6357582047994107e+08 0.0000000000000000e+00 0.0000000000000000e+00 0.0000000000000000e+00 0.0000000000000000e+00  6.7639505868328707e+06 -5.6253361892197405e+04 0.0000000000000000e+00 -5.6253361892197405e+04 1.5535883077322674e+08 0.0000000000000000e+00 0.0000000000000000e+00 0.0000000000000000e+00 0.0000000000000000e+00  9.7896305047690105e+06 -1.0980060266464981e+05 0.0000000000000000e+00 -1.0980060266464981e+05 1.4745910893664336e+08 0.0000000000000000e+00 0.0000000000000000e+00 0.0000000000000000e+00 0.0000000000000000e+00  1.2864492736768672e+07 -1.4692767658962082e+05 0.0000000000000000e+00 -1.4692767658962082e+05 1.4044550515355286e+08 0.0000000000000000e+00 0.0000000000000000e+00 0.0000000000000000e+00 0.0000000000000000e+00  1.5406302032660585e+07 -7.4778017243044436e+04 0.0000000000000000e+00 -7.4778017243044436e+04 1.3479454846116242e+08 0.0000000000000000e+00 0.0000000000000000e+00 0.0000000000000000e+00 0.0000000000000000e+00  1.7010839734897498e+07 -7.0679953037283107e+04 0.0000000000000000e+00 -7.0679953037283107e+04 1.3092632791408896e+08 0.0000000000000000e+00 0.0000000000000000e+00 0.0000000000000000e+00 0.0000000000000000e+00  1.7740503746953767e+07 6.6618042586837673e+03 0.0000000000000000e+00 6.6618042586837673e+03 1.2989275428209753e+08 0.0000000000000000e+00 0.0000000000000000e+00 0.0000000000000000e+00 0.0000000000000000e+00  1.7142592474413577e+07 8.5578076687872075e+04 0.0000000000000000e+00 8.5578076687872075e+04 1.3089077048225428e+08 0.0000000000000000e+00 0.0000000000000000e+00 0.0000000000000000e+00 0.0000000000000000e+00  1.5193411706962183e+07 1.0239471717265199e+05 0.0000000000000000e+00 1.0239471717265199e+05 1.3405179874112652e+08 0.0000000000000000e+00 0.0000000000000000e+00 0.0000000000000000e+00 0.0000000000000000e+00  1.2810722247854028e+07 1.6035603737304707e+04 0.0000000000000000e+00 1.6035603737304707e+04 1.4038562300565791e+08 0.0000000000000000e+00 0.0000000000000000e+00 0.0000000000000000e+00 0.0000000000000000e+00  9.8182498874167781e+06 1.7240694133254918e+05 0.0000000000000000e+00 1.7240694133254918e+05 1.4749913124440777e+08 0.0000000000000000e+00 0.0000000000000000e+00 0.0000000000000000e+00 0.0000000000000000e+00  6.7733574687795257e+06 2.7896341599172792e+04 0.0000000000000000e+00 2.7896341599172792e+04 1.5553062872041789e+08 0.0000000000000000e+00 0.0000000000000000e+00 0.0000000000000000e+00 0.0000000000000000e+00  3.8418918913114551e+06 1.7093375284047339e+04 0.0000000000000000e+00 1.7093375284047339e+04 1.6342462710736251e+08 0.0000000000000000e+00 0.0000000000000000e+00 0.0000000000000000e+00 0.0000000000000000e+00  1.6448972054534487e+06 -1.1233914104483671e+05 0.0000000000000000e+00 -1.1233914104483671e+05 1.7143485441217387e+08 0.0000000000000000e+00 0.0000000000000000e+00 0.0000000000000000e+00 0.0000000000000000e+00  3.6492656034023152e+04 -1.7236350495769217e+05 0.0000000000000000e+00 -1.7236350495769217e+05 1.7878804341471821e+08 0.0000000000000000e+00 0.0000000000000000e+00 0.0000000000000000e+00 0.0000000000000000e+00  -9.5950115652230394e+05 -3.6114661697458854e+05 0.0000000000000000e+00 -3.6114661697458854e+05 1.8598577261250898e+08 0.0000000000000000e+00 0.0000000000000000e+00 0.0000000000000000e+00 0.0000000000000000e+00  -1.3196797461888182e+06 -4.7350032345394371e+05 0.0000000000000000e+00 -4.7350032345394371e+05 1.9262617163092363e+08 0.0000000000000000e+00 0.0000000000000000e+00 0.0000000000000000e+00 0.0000000000000000e+00  -1.1419674766980859e+06 -3.4550186177853157e+05 0.0000000000000000e+00 -3.4550186177853157e+05 1.9770220350693265e+08 0.0000000000000000e+00 0.0000000000000000e+00 0.0000000000000000e+00 0.0000000000000000e+00  -8.6469305731360184e+05 -4.2574852005690569e+05 0.0000000000000000e+00 -4.2574852005690569e+05 2.0374718016738531e+08 0.0000000000000000e+00 0.0000000000000000e+00 0.0000000000000000e+00 0.0000000000000000e+00  -5.5557481584987487e+05 -3.1352202015420265e+05 0.0000000000000000e+00 -3.1352202015420265e+05 2.0922974225277299e+08 0.0000000000000000e+00 0.0000000000000000e+00 0.0000000000000000e+00 0.0000000000000000e+00  -7.9305577345972284e+04 -5.0266974043397937e+05 0.0000000000000000e+00 -5.0266974043397937e+05 2.1465751789999104e+08 0.0000000000000000e+00 0.0000000000000000e+00 0.0000000000000000e+00 0.0000000000000000e+00  -2.3352083049658785e+05 5.0745717705336184e+05 0.0000000000000000e+00 5.0745717705336184e+05 2.2161726159894776e+08 0.0000000000000000e+00 0.0000000000000000e+00 0.0000000000000000e+00 0.0000000000000000e+00  -2.2115293649753727e+05 -4.6806198577725043e+05 0.0000000000000000e+00 -4.6806198577725043e+05 2.2123690997050214e+08 0.0000000000000000e+00 0.0000000000000000e+00 0.0000000000000000e+00 0.0000000000000000e+00  -1.8377012787978616e+05 2.6005672418035980e+05 0.0000000000000000e+00 2.6005672418035980e+05 2.2049672082515818e+08 0.0000000000000000e+00 0.0000000000000000e+00 0.0000000000000000e+00 0.0000000000000000e+00  -2.1890849560231532e+05 -5.3732512817234767e+05 0.0000000000000000e+00 -5.3732512817234767e+05 2.1893935295815095e+08 0.0000000000000000e+00 0.0000000000000000e+00 0.0000000000000000e+00 0.0000000000000000e+00  -1.8443622152177489e+05 -3.0230657434527267e+05 0.0000000000000000e+00 -3.0230657434527267e+05 2.1706311626534840e+08 0.0000000000000000e+00 0.0000000000000000e+00 0.0000000000000000e+00 0.0000000000000000e+00  -1.5172416981399464e+05 -6.2289426436890301e+05 0.0000000000000000e+00 -6.2289426436890301e+05 2.1354213300018212e+08 0.0000000000000000e+00 0.0000000000000000e+00 0.0000000000000000e+00 0.0000000000000000e+00  -6.9806614189306754e+04 -8.5895913542008924e+05 0.0000000000000000e+00 -8.5895913542008924e+05 2.0954718714467433e+08 0.0000000000000000e+00 0.0000000000000000e+00 0.0000000000000000e+00 0.0000000000000000e+00  -6.0680472044928880e+04 -1.1337817366869259e+06 0.0000000000000000e+00 -1.1337817366869259e+06 2.0410559485106730e+08 0.0000000000000000e+00 0.0000000000000000e+00 0.0000000000000000e+00 0.0000000000000000e+00  -1.7108131695220288e+05 -1.3892932070977662e+06 0.0000000000000000e+00 -1.3892932070977662e+06 1.9743431284443092e+08 0.0000000000000000e+00 0.0000000000000000e+00 0.0000000000000000e+00 0.0000000000000000e+00  2.8229639742376716e+04 -1.7772971435647011e+06 0.0000000000000000e+00 -1.7772971435647011e+06 1.9091784508713689e+08 0.0000000000000000e+00 0.0000000000000000e+00 0.0000000000000000e+00 0.0000000000000000e+00  3.5172863737452356e+05 -1.7401914529573836e+06 0.0000000000000000e+00 -1.7401914529573836e+06 1.8218396432683727e+08 0.0000000000000000e+00 0.0000000000000000e+00 0.0000000000000000e+00 0.0000000000000000e+00  2.5230678631351594e+05 -1.3140536696881675e+06 0.0000000000000000e+00 -1.3140536696881675e+06 1.7556284686866784e+08 0.0000000000000000e+00 0.0000000000000000e+00 0.0000000000000000e+00 0.0000000000000000e+00  1.9991530086263103e+05 -8.4986940881537576e+05 0.0000000000000000e+00 -8.4986940881537576e+05 1.6929911903660530e+08 0.0000000000000000e+00 0.0000000000000000e+00 0.0000000000000000e+00 0.0000000000000000e+00  1.6141232824107914e+05 -5.5330876509274472e+05 0.0000000000000000e+00 -5.5330876509274472e+05 1.6571656394729653e+08 0.0000000000000000e+00 0.0000000000000000e+00 0.0000000000000000e+00 0.0000000000000000e+00  3.1999260674229660e+05 -5.0726743117052407e+04 0.0000000000000000e+00 -5.0726743117052407e+04 1.6399092254892239e+08 0.0000000000000000e+00 0.0000000000000000e+00 0.0000000000000000e+00 0.0000000000000000e+00  3.1778621562866931e+05 4.6741400592747377e+05 0.0000000000000000e+00 4.6741400592747377e+05 1.6572274268514657e+08 0.0000000000000000e+00 0.0000000000000000e+00 0.0000000000000000e+00 0.0000000000000000e+00  2.3978655523542242e+05 1.5661565665403544e+06 0.0000000000000000e+00 1.5661565665403544e+06 1.6971112418869886e+08 0.0000000000000000e+00 0.0000000000000000e+00 0.0000000000000000e+00 0.0000000000000000e+00  2.9946429329799942e+05 1.3879473657955688e+06 0.0000000000000000e+00 1.3879473657955688e+06 1.7510530107074019e+08 0.0000000000000000e+00 0.0000000000000000e+00 0.0000000000000000e+00 0.0000000000000000e+00  1.1998388410112429e+05 1.4542332531176070e+06 0.0000000000000000e+00 1.4542332531176070e+06 1.8277306596858636e+08 0.0000000000000000e+00 0.0000000000000000e+00 0.0000000000000000e+00 0.0000000000000000e+00  1.0705454775310290e+05 1.4968102400474322e+06 0.0000000000000000e+00 1.4968102400474322e+06 1.8998150339561236e+08 0.0000000000000000e+00 0.0000000000000000e+00 0.0000000000000000e+00 0.0000000000000000e+00  -1.3677708894287070e+05 1.7025371609919169e+06 0.0000000000000000e+00 1.7025371609919169e+06 1.9790655814672816e+08 0.0000000000000000e+00 0.0000000000000000e+00 0.0000000000000000e+00 0.0000000000000000e+00  -1.6659904941733793e+05 1.2658536533084237e+06 0.0000000000000000e+00 1.2658536533084237e+06 2.0358137918382481e+08 0.0000000000000000e+00 0.0000000000000000e+00 0.0000000000000000e+00 0.0