<?xml version="1.0"?>
<VTKFile type="UnstructuredGrid"  version="0.1"  >
<UnstructuredGrid>
<Piece  NumberOfPoints="1655" NumberOfCells="2780">
<Points>
<DataArray  type="Float64"  NumberOfComponents="3"  format="ascii">0.75 0.7575659674381628 0  0.769442631902537 0.6972047431386306 0  0.7910775198472982 0.6622515280127934 0  0.8087073775922745 0.6568162056230841 0  0.8127063173756943 0.6800646069445712 0  0.8001204326610685 0.7330107548327764 0  0.8063798103612623 0.737910525328787 0  0.821476110457377 0.7367447006111197 0  0.8325144100593063 0.7410354177350492 0  0.8307111302881175 0.7527402241668684 0  0.8221533464182005 0.7652310911944236 0  0.8232669832903622 0.7731017565426785 0  0.8754126347513886 0.7886751345948129 0  0.8935468710014622 0.8037625186962023 0  0.8800248148617277 0.8163127621736028 0  0.8389369986464295 0.8175725171788771 0  0.7769413290482354 0.8042297181731379 0  0.8194943667438922 0.8512481434669307 0  0.8389472950144293 0.8874611135980424 0  0.8348394934091878 0.9054466794651523 0  0.8127063173756943 0.8972856622450546 0  0.7731465506292937 0.8599128924089837 0  0.7657735360569381 0.8628837872612281 0  0.7592350198307405 0.8765404790064504 0  0.75 0.8839545683143401 0  0.7407649801692595 0.8765404790064505 0  0.7342264639430619 0.8628837872612281 0  0.7268534493707063 0.8599128924089837 0  0.6872936826243057 0.8972856622450546 0  0.6651605065908122 0.9054466794651523 0  0.6610527049855706 0.8874611135980424 0  0.6805056332561076 0.851248143466931 0  0.7230586709517646 0.8042297181731379 0  0.6610630013535708 0.817572517178877 0  0.6199751851382725 0.8163127621736029 0  0.6064531289985376 0.8037625186962024 0  0.6245873652486111 0.7886751345948129 0  0.6767330167096378 0.7731017565426785 0  0.6778466535817996 0.7652310911944236 0  0.6692888697118825 0.7527402241668684 0  0.6674855899406937 0.7410354177350492 0  0.6785238895426231 0.7367447006111199 0  0.6936201896387378 0.7379105253287871 0  0.6998795673389315 0.7330107548327766 0  0.6872936826243057 0.6800646069445714 0  0.6912926224077256 0.6568162056230841 0  0.7089224801527018 0.6622515280127934 0  0.7305573680974629 0.6972047431386305 0  0.7447817390382857 0.7390266979878214 0  1.904887099126571e-18 0.3245532655459435 0  0.01944263190253707 0.2641920412464113 0  0 0 0  0.04107751984729824 0.2292388261205741 0  1 0 0  0.05870737759227448 0.2238035037308647 0  1 0.3245532655459435 0  0.06270631737569433 0.2470519050523519 0  0.9947817390382857 0.306013996095602 0  0.05012043266106848 0.2999980529405571 0  0.9805573680974629 0.2641920412464112 0  0.05637981036126228 0.3048978234365677 0  0.9589224801527018 0.2292388261205741 0  0.07147611045737702 0.3037319987189004 0  0.9412926224077256 0.2238035037308647 0  0.08251441005930622 0.30802271584283 0  0.9372936826243057 0.2470519050523521 0  0.08071113028811749 0.319727522274649 0  0.9498795673389315 0.2999980529405572 0  0.07215334641820043 0.3322183893022042 0  0.9436201896387378 0.3048978234365678 0  0.07326698329036219 0.3400890546504592 0  0.9285238895426231 0.3037319987189005 0  0.1254126347513887 0.3556624327025936 0  0.9174855899406937 0.3080227158428299 0  0.1435468710014623 0.3707498168039829 0  0.9192888697118825 0.3197275222746491 0  0.1300248148617277 0.3833000602813836 0  0.9278466535817996 0.3322183893022043 0  0.08893699864642945 0.3845598152866578 0  0.9267330167096378 0.3400890546504592 0  0.02694132904823544 0.3712170162809186 0  0.8745873652486111 0.3556624327025936 0  0.06949436674389224 0.4182354415747114 0  0.8564531289985376 0.3707498168039831 0  0.08894729501442936 0.4544484117058231 0  0.8699751851382725 0.3833000602813836 0  0.08483949340918785 0.472433977572933 0  0.9110630013535708 0.3845598152866578 0  0.06270631737569432 0.4642729603528353 0  0.9730586709517646 0.3712170162809186 0  0.02314655062929375 0.4269001905167644 0  0.9305056332561076 0.4182354415747117 0  0.01577353605693812 0.4298710853690088 0  0.9110527049855706 0.4544484117058231 0  0.009235019830740463 0.4435277771142311 0  0.9151605065908122 0.472433977572933 0  5.834182676459569e-18 0.4509418664221208 0  0.9372936826243057 0.4642729603528353 0  1.904887099126571e-18 0.6132284001407564 0  0.9768534493707063 0.4269001905167644 0  0.01944263190253707 0.5528671758412242 0  0.9842264639430619 0.4298710853690088 0  0.04107751984729824 0.5179139607153869 0  0.9907649801692595 0.4435277771142312 0  0.05870737759227448 0.5124786383256776 0  1 0.4509418664221208 0  0.06270631737569433 0.5357270396471647 0  1 0.6132284001407564 0  0.05012043266106848 0.5886731875353699 0  0.9947817390382857 0.594689130690415 0  0.05637981036126228 0.5935729580313807 0  0.9805573680974629 0.552867175841224 0  0.07147611045737702 0.5924071333137133 0  0.9589224801527018 0.5179139607153869 0  0.08251441005930622 0.5966978504376428 0  0.9412926224077256 0.5124786383256776 0  0.08071113028811749 0.6084026568694619 0  0.9372936826243057 0.5357270396471649 0  0.07215334641820043 0.6208935238970171 0  0.9498795673389315 0.5886731875353701 0  0.07326698329036219 0.6287641892452721 0  0.9436201896387378 0.5935729580313807 0  0.1254126347513887 0.6443375672974064 0  0.9285238895426231 0.5924071333137134 0  0.1435468710014623 0.6594249513987959 0  0.9174855899406937 0.5966978504376428 0  0.1300248148617277 0.6719751948761964 0  0.9192888697118825 0.6084026568694619 0  0.08893699864642945 0.6732349498814707 0  0.9278466535817996 0.6208935238970171 0  0.02694132904823544 0.6598921508757314 0  0.9267330167096378 0.6287641892452721 0  0.06949436674389224 0.7069105761695242 0  0.8745873652486111 0.6443375672974064 0  0.08894729501442936 0.743123546300636 0  0.8564531289985376 0.659424951398796 0  0.08483949340918785 0.7611091121677458 0  0.8699751851382725 0.6719751948761965 0  0.06270631737569432 0.7529480949476481 0  0.9110630013535708 0.6732349498814706 0  0.02314655062929375 0.7155753251115773 0  0.9730586709517646 0.6598921508757315 0  0.01577353605693812 0.7185462199638216 0  0.9305056332561076 0.7069105761695246 0  0.009235019830740463 0.7322029117090441 0  0.9110527049855706 0.743123546300636 0  5.834182676459569e-18 0.7396170010169336 0  0.9151605065908122 0.7611091121677459 0  0 1 0  0.9372936826243057 0.7529480949476481 0  1 1 0  0.9768534493707063 0.7155753251115773 0  1 0.7396170010169336 0  0.9842264639430619 0.7185462199638216 0  0.9907649801692595 0.7322029117090441 0  0.25 0.1802156982485371 0  0.2694426319025371 0.1198544739490048 0  0.2447817390382857 0.1616764287981956 0  0.2910775198472982 0.08490125882316757 0  0.2305573680974629 0.1198544739490046 0  0.3087073775922745 0.07946593643345826 0  0.2089224801527018 0.08490125882316757 0  0.3127063173756943 0.1027143377549454 0  0.1912926224077255 0.07946593643345826 0  0.3001204326610685 0.1556604856431506 0  0.1872936826243057 0.1027143377549456 0  0.3063798103612623 0.1605602561391613 0  0.1998795673389316 0.1556604856431507 0  0.321476110457377 0.159394431421494 0  0.1936201896387378 0.1605602561391614 0  0.3325144100593062 0.1636851485454235 0  0.178523889542623 0.159394431421494 0  0.3307111302881175 0.1753899549772426 0  0.1674855899406938 0.1636851485454235 0  0.3221533464182004 0.1878808220047977 0  0.1692888697118825 0.1753899549772426 0  0.3232669832903622 0.1957514873530528 0  0.1778466535817996 0.1878808220047977 0  0.3754126347513886 0.2113248654051871 0  0.1767330167096379 0.1957514873530527 0  0.3935468710014623 0.2264122495065765 0  0.1245873652486112 0.2113248654051871 0  0.3800248148617277 0.2389624929839771 0  0.1064531289985376 0.2264122495065766 0  0.3389369986464295 0.2402222479892513 0  0.1199751851382726 0.2389624929839771 0  0.2769413290482354 0.2268794489835121 0  0.1610630013535708 0.2402222479892513 0  0.3194943667438923 0.2738978742773049 0  0.2230586709517646 0.2268794489835121 0  0.3389472950144293 0.3101108444084166 0  0.1805056332561075 0.2738978742773052 0  0.3348394934091878 0.3280964102755265 0  0.1610527049855706 0.3101108444084166 0  0.3127063173756943 0.3199353930554287 0  0.1651605065908122 0.3280964102755265 0  0.2731465506292938 0.2825626232193579 0  0.1872936826243056 0.3199353930554288 0  0.2657735360569381 0.2855335180716023 0  0.2268534493707062 0.2825626232193579 0  0.2592350198307405 0.2991902098168246 0  0.2342264639430619 0.2855335180716023 0  0.25 0.3066042991247143 0  0.2407649801692595 0.2991902098168246 0  0.5 0.3245532655459435 0  0.519442631902537 0.2641920412464113 0  0.4947817390382857 0.306013996095602 0  0.5410775198472982 0.2292388261205741 0  0.4805573680974629 0.2641920412464112 0  0.5587073775922745 0.2238035037308647 0  0.4589224801527018 0.2292388261205741 0  0.5627063173756943 0.2470519050523519 0  0.4412926224077255 0.2238035037308647 0  0.5501204326610685 0.2999980529405571 0  0.4372936826243057 0.2470519050523521 0  0.5563798103612623 0.3048978234365677 0  0.4498795673389316 0.2999980529405572 0  0.571476110457377 0.3037319987189004 0  0.4436201896387378 0.3048978234365678 0  0.5825144100593063 0.30802271584283 0  0.428523889542623 0.3037319987189005 0  0.5807111302881175 0.319727522274649 0  0.4174855899406938 0.3080227158428299 0  0.5721533464182005 0.3322183893022042 0  0.4192888697118825 0.3197275222746491 0  0.5732669832903622 0.3400890546504592 0  0.4278466535817996 0.3322183893022043 0  0.6254126347513886 0.3556624327025936 0  0.4267330167096379 0.3400890546504592 0  0.6435468710014622 0.3707498168039829 0  0.3745873652486112 0.3556624327025936 0  0.6300248148617277 0.3833000602813836 0  0.3564531289985376 0.3707498168039831 0  0.5889369986464295 0.3845598152866578 0  0.3699751851382725 0.3833000602813836 0  0.5269413290482354 0.3712170162809186 0  0.4110630013535708 0.3845598152866578 0  0.5694943667438922 0.4182354415747114 0  0.4730586709517646 0.3712170162809186 0  0.5889472950144293 0.4544484117058231 0  0.4305056332561075 0.4182354415747117 0  0.5848394934091878 0.472433977572933 0  0.4110527049855706 0.4544484117058231 0  0.5627063173756943 0.4642729603528353 0  0.4151605065908122 0.
[...]
<PointData  Tensors="$\sigma$"> 
<DataArray  type="Float64"  Name="$\sigma$"  NumberOfComponents="9" format="ascii">1.0350754542147733e+07 5.9241868331585946e+06 0.0000000000000000e+00 5.9241868331585946e+06 -2.0475382701352760e+06 0.0000000000000000e+00 0.0000000000000000e+00 0.0000000000000000e+00 0.0000000000000000e+00  -5.7656084351427425e+06 -9.7104945264321435e+06 0.0000000000000000e+00 -9.7104945264321435e+06 6.9811578762096008e+06 0.0000000000000000e+00 0.0000000000000000e+00 0.0000000000000000e+00 0.0000000000000000e+00  1.7197563095760208e+08 -3.4762085385308236e+07 0.0000000000000000e+00 -3.4762085385308236e+07 1.3111940242713470e+07 0.0000000000000000e+00 0.0000000000000000e+00 0.0000000000000000e+00 0.0000000000000000e+00  2.8773291110550660e+08 4.5213332154288866e+07 0.0000000000000000e+00 4.5213332154288866e+07 6.5960108405542048e+06 0.0000000000000000e+00 0.0000000000000000e+00 0.0000000000000000e+00 0.0000000000000000e+00  3.6098566129452307e+06 8.2997541663915338e+06 0.0000000000000000e+00 8.2997541663915319e+06 -3.3364805743665837e+07 0.0000000000000000e+00 0.0000000000000000e+00 0.0000000000000000e+00 0.0000000000000000e+00  1.1535428440203425e+06 1.1830412732902097e+06 0.0000000000000000e+00 1.1830412732902097e+06 -2.8396571122338112e+07 0.0000000000000000e+00 0.0000000000000000e+00 0.0000000000000000e+00 0.0000000000000000e+00  -2.8701266442790195e+07 -3.2803281854972206e+06 0.0000000000000000e+00 -3.2803281854972211e+06 1.8549026047025770e+07 0.0000000000000000e+00 0.0000000000000000e+00 0.0000000000000000e+00 0.0000000000000000e+00  -2.2289532992919877e+07 -6.5168819780790852e+06 0.0000000000000000e+00 -6.5168819780790871e+06 1.5937353441894989e+05 0.0000000000000000e+00 0.0000000000000000e+00 0.0000000000000000e+00 0.0000000000000000e+00  -1.5123569414137082e+07 1.7919049135664639e+06 0.0000000000000000e+00 1.7919049135664669e+06 5.9269259013326960e+06 0.0000000000000000e+00 0.0000000000000000e+00 0.0000000000000000e+00 0.0000000000000000e+00  -8.9920803189318452e+05 1.0148988895899164e+07 0.0000000000000000e+00 1.0148988895899167e+07 -2.2127745818778109e+06 0.0000000000000000e+00 0.0000000000000000e+00 0.0000000000000000e+00 0.0000000000000000e+00  -2.4031390327718402e+06 2.8003557592159812e+06 0.0000000000000000e+00 2.8003557592159803e+06 -3.7652234983575322e+07 0.0000000000000000e+00 0.0000000000000000e+00 0.0000000000000000e+00 0.0000000000000000e+00  6.4558050599077372e+06 -5.9723708012596108e+06 0.0000000000000000e+00 -5.9723708012596108e+06 9.6886882945367098e+06 0.0000000000000000e+00 0.0000000000000000e+00 0.0000000000000000e+00 0.0000000000000000e+00  4.7605211153173432e+07 5.9936533598112270e+07 0.0000000000000000e+00 5.9936533598112270e+07 4.4033198305166185e+07 0.0000000000000000e+00 0.0000000000000000e+00 0.0000000000000000e+00 0.0000000000000000e+00  9.2309239324435666e+07 4.2906913376601070e+07 0.0000000000000000e+00 4.2906913376601070e+07 2.4461696195372868e+08 0.0000000000000000e+00 0.0000000000000000e+00 0.0000000000000000e+00 0.0000000000000000e+00  -5.9393095581070976e+06 -3.4710279616222143e+07 0.0000000000000000e+00 -3.4710279616222143e+07 4.6528388744497508e+07 0.0000000000000000e+00 0.0000000000000000e+00 0.0000000000000000e+00 0.0000000000000000e+00  -4.3185987101237447e+05 2.7288058417507894e+06 0.0000000000000000e+00 2.7288058417507894e+06 -3.9997325002095890e+06 0.0000000000000000e+00 0.0000000000000000e+00 0.0000000000000000e+00 0.0000000000000000e+00  -2.2895527493979386e+06 1.6434374805791429e+06 0.0000000000000000e+00 1.6434374805791429e+06 1.2885768240898362e+05 0.0000000000000000e+00 0.0000000000000000e+00 0.0000000000000000e+00 0.0000000000000000e+00  1.3721257085941744e+06 -1.5023607949415760e+06 0.0000000000000000e+00 -1.5023607949415760e+06 -1.4212908282731462e+06 0.0000000000000000e+00 0.0000000000000000e+00 0.0000000000000000e+00 0.0000000000000000e+00  -7.5449078175994696e+05 9.3567141859718896e+06 0.0000000000000000e+00 9.3567141859718896e+06 -1.2369823990968097e+07 0.0000000000000000e+00 0.0000000000000000e+00 0.0000000000000000e+00 0.0000000000000000e+00  -7.3630531770684019e+07 9.7929844278779496e+06 0.0000000000000000e+00 9.7929844278779496e+06 -2.8183417529877011e+07 0.0000000000000000e+00 0.0000000000000000e+00 0.0000000000000000e+00 0.0000000000000000e+00  -3.2243254074387569e+07 -1.1936236639591033e+07 0.0000000000000000e+00 -1.1936236639591033e+07 3.5718896422305284e+06 0.0000000000000000e+00 0.0000000000000000e+00 0.0000000000000000e+00 0.0000000000000000e+00  -3.9712522257690290e+06 4.4979654617594613e+05 0.0000000000000000e+00 4.4979654617594613e+05 -4.6913248273103340e+06 0.0000000000000000e+00 0.0000000000000000e+00 0.0000000000000000e+00 0.0000000000000000e+00  9.6239050238962620e+06 -5.2984387541674767e+06 0.0000000000000000e+00 -5.2984387541674767e+06 3.2008004677377054e+06 0.0000000000000000e+00 0.0000000000000000e+00 0.0000000000000000e+00 0.0000000000000000e+00  -8.2351759267023178e+06 1.4626140250745858e+06 0.0000000000000000e+00 1.4626140250745858e+06 3.6495631820427063e+06 0.0000000000000000e+00 0.0000000000000000e+00 0.0000000000000000e+00 0.0000000000000000e+00  -2.2735340346462227e+07 -1.7602943133113059e+05 0.0000000000000000e+00 -1.7602943133113079e+05 -1.8214903034014220e+06 0.0000000000000000e+00 0.0000000000000000e+00 0.0000000000000000e+00 0.0000000000000000e+00  -1.1235749917294873e+07 -3.5352457970648276e+05 0.0000000000000000e+00 -3.5352457970648276e+05 4.3570984312478080e+06 0.0000000000000000e+00 0.0000000000000000e+00 0.0000000000000000e+00 0.0000000000000000e+00  9.5602178208621014e+06 5.2207758032269292e+06 0.0000000000000000e+00 5.2207758032269292e+06 2.7037312597833048e+06 0.0000000000000000e+00 0.0000000000000000e+00 0.0000000000000000e+00 0.0000000000000000e+00  -5.3770079198526945e+06 2.4256186749814823e+06 0.0000000000000000e+00 2.4256186749814823e+06 -4.2661828054460343e+06 0.0000000000000000e+00 0.0000000000000000e+00 0.0000000000000000e+00 0.0000000000000000e+00  -2.8841040380959753e+07 1.1124317165678725e+07 0.0000000000000000e+00 1.1124317165678725e+07 -2.1537403002301585e+06 0.0000000000000000e+00 0.0000000000000000e+00 0.0000000000000000e+00 0.0000000000000000e+00  -4.8379631095312946e+07 2.9450371408630954e+06 0.0000000000000000e+00 2.9450371408630954e+06 -2.9428663660266047e+05 0.0000000000000000e+00 0.0000000000000000e+00 0.0000000000000000e+00 0.0000000000000000e+00  -7.1506267228844459e+05 -2.3842635936629120e+06 0.0000000000000000e+00 -2.3842635936629120e+06 9.8033366587914433e+06 0.0000000000000000e+00 0.0000000000000000e+00 0.0000000000000000e+00 0.0000000000000000e+00  9.1796428198318451e+05 3.8907162540765661e+06 0.0000000000000000e+00 3.8907162540765665e+06 1.1487451504118755e+06 0.0000000000000000e+00 0.0000000000000000e+00 0.0000000000000000e+00 0.0000000000000000e+00  -2.8700032497579227e+06 -2.5912513538651904e+06 0.0000000000000000e+00 -2.5912513538651909e+06 -5.4548570677960257e+05 0.0000000000000000e+00 0.0000000000000000e+00 0.0000000000000000e+00 0.0000000000000000e+00  8.8444325522995926e+05 -3.5296034185986845e+06 0.0000000000000000e+00 -3.5296034185986845e+06 -5.2197279607874649e+06 0.0000000000000000e+00 0.0000000000000000e+00 0.0000000000000000e+00 0.0000000000000000e+00  1.3885180492005579e+06 3.6843209782240257e+07 0.0000000000000000e+00 3.6843209782240257e+07 4.3160120770617932e+07 0.0000000000000000e+00 0.0000000000000000e+00 0.0000000000000000e+00 0.0000000000000000e+00  1.2008564745150454e+08 -6.3161197949178897e+07 0.0000000000000000e+00 -6.3161197949178897e+07 2.6567668455331731e+08 0.0000000000000000e+00 0.0000000000000000e+00 0.0000000000000000e+00 0.0000000000000000e+00  6.8265568562497020e+07 -8.4984723463507697e+07 0.0000000000000000e+00 -8.4984723463507697e+07 5.5488227518186033e+07 0.0000000000000000e+00 0.0000000000000000e+00 0.0000000000000000e+00 0.0000000000000000e+00  1.5238726619026126e+07 5.1052126550046355e+06 0.0000000000000000e+00 5.1052126550046355e+06 9.7322139349330049e+06 0.0000000000000000e+00 0.0000000000000000e+00 0.0000000000000000e+00 0.0000000000000000e+00  -5.8211808596447920e+06 -7.6065387924366933e+05 0.0000000000000000e+00 -7.6065387924366933e+05 -2.9962999767154399e+07 0.0000000000000000e+00 0.0000000000000000e+00 0.0000000000000000e+00 0.0000000000000000e+00  1.7428805530913998e+05 -8.9091626766828168e+06 0.0000000000000000e+00 -8.9091626766828150e+06 -4.9711757603263209e+05 0.0000000000000000e+00 0.0000000000000000e+00 0.0000000000000000e+00 0.0000000000000000e+00  -2.0178517946171809e+07 6.6140232861308400e+06 0.0000000000000000e+00 6.6140232861308390e+06 2.7334982622288368e+06 0.0000000000000000e+00 0.0000000000000000e+00 0.0000000000000000e+00 0.0000000000000000e+00  -2.5288243649695456e+07 1.7135642012415987e+07 0.0000000000000000e+00 1.7135642012415987e+07 -4.2867850611126982e+06 0.0000000000000000e+00 0.0000000000000000e+00 0.0000000000000000e+00 0.0000000000000000e+00  -6.4059489507762985e+06 5.6087577172339857e+06 0.0000000000000000e+00 5.6087577172339857e+06 1.8461300222054377e+07 0.0000000000000000e+00 0.0000000000000000e+00 0.0000000000000000e+00 0.0000000000000000e+00  -1.6269238846945013e+06 -1.4492943043860920e+07 0.0000000000000000e+00 -1.4492943043860920e+07 -3.3991450491246350e+07 0.0000000000000000e+00 0.0000000000000000e+00 0.0000000000000000e+00 0.0000000000000000e+00  2.7645512984343194e+06 2.0839434774774987e+07 0.0000000000000000e+00 2.0839434774774987e+07 -9.9058498965463117e+07 0.0000000000000000e+00 0.0000000000000000e+00 0.0000000000000000e+00 0.0000000000000000e+00  1.0983898914826116e+08 3.9790504467953354e+07 0.0000000000000000e+00 3.9790504467953354e+07 -1.3341664950467451e+08 0.0000000000000000e+00 0.0000000000000000e+00 0.0000000000000000e+00 0.0000000000000000e+00  9.6779336241861090e+07 3.8402031201392487e+07 0.0000000000000000e+00 3.8402031201392487e+07 3.9828499951013841e+07 0.0000000000000000e+00 0.0000000000000000e+00 0.0000000000000000e+00 0.0000000000000000e+00  3.6774915063474155e+06 7.3609526794977905e+06 0.0000000000000000e+00 7.3609526794977905e+06 -9.4608329038000712e+05 0.0000000000000000e+00 0.0000000000000000e+00 0.0000000000000000e+00 0.0000000000000000e+00  -9.2553319604197852e+06 2.3170163686882826e+06 0.0000000000000000e+00 2.3170163686882826e+06 -4.4081238877343396e+06 0.0000000000000000e+00 0.0000000000000000e+00 0.0000000000000000e+00 0.0000000000000000e+00  -2.0375104122930553e+06 6.1462353465067351e+05 0.0000000000000000e+00 6.1462353465067351e+05 2.1989834425543942e+06 0.0000000000000000e+00 0.0000000000000000e+00 0.0000000000000000e+00 0.0000000000000000e+00  -3.7815519836585573e+06 1.8992140329635169e+05 0.0000000000000000e+00 1.8992140329635169e+05 -1.9789575532488646e+06 0.0000000000000000e+00 0.0000000000000000e+00 0.0000000000000000e+00 0.0000000000000000e+00  -3.5240630849892754e+04 1.9335817612449264e+06 0.0000000000000000e+00 1.9335817612449261e+06 1.0706815872274657e+08 0.0000000000000000e+00 0.0000000000000000e+00 0.0000000000000000e+00 0.0000000000000000e+00  1.3408666815395791e+07 5.0269835671279877e+06 0.0000000000000000e+00 5.0269835671279877e+06 -8.9401103845046833e+06 0.0000000000000000e+00 0.0000000000000000e+00 0.0000000000000000e+00 0.0000000000000000e+00  -1.1910778132053652e+05 -1.9214489154126651e+06 0.0000000000000000e+00 -1.9214489154126646e+06 1.0732086638146912e+08 0.0000000000000000e+00 0.0000000000000000e+00 0.0000000000000000e+00 0.0000000000000000e+00  6.0609119001509763e+07 4.5711479864858337e+07 0.0000000000000000e+00 4.5711479864858337e+07 6.7815509129340127e+07 0.0000000000000000e+00 0.0000000000000000e+00 0.0000000000000000e+00 0.0000000000000000e+00  -1.0261044240264889e+06 -2.1237304502156838e+06 0.0000000000000000e+00 -2.1237304502156838e+06 1.8598178397151066e+06 0.0000000000000000e+00 0.0000000000000000e+00 0.0000000000000000e+00 0.0000000000000000e+00  6.1731175044549154e+06 9.5867115817069709e+06 0.0000000000000000e+00 9.5867115817069709e+06 4.4640616274789207e+07 0.0000000000000000e+00 0.0000000000000000e+00 0.0000000000000000e+00 0.0000000000000000e+00  2.8220991013271548e+05 8.9957997468781169e+05 0.0000000000000000e+00 8.9957997468781134e+05 4.5164903433914232e+05 0.0000000000000000e+00 0.0000000000000000e+00 0.0000000000000000e+00 0.0000000000000000e+00  3.7695441452872409e+06 -2.6750885776707213e+06 0.0000000000000000e+00 -2.6750885776707213e+06 5.6946125728196660e+06 0.0000000000000000e+00 0.0000000000000000e+00 0.0000000000000000e+00 0.0000000000000000e+00  -6.7566167576355860e+06 -2.9431568662104453e+06 0.0000000000000000e+00 -2.9431568662104444e+06 3.8298666974666566e+06 0.0000000000000000e+00 0.0000000000000000e+00 0.0000000000000000e+00 0.0000000000000000e+00  -3.6476242042584144e+07 -1.5016090150693972e+07 0.0000000000000000e+00 -1.5016090150693972e+07 4.1160841114141867e+06 0.0000000000000000e+00 0.0000000000000000e+00 0.0000000000000000e+00 0.0000000000000000e+00  1.0121669624872476e+07 -8.3595565047593489e+06 0.0000000000000000e+00 -8.3595565047593489e+06 -5.7682109513871456e+06 0.0000000000000000e+00 0.0000000000000000e+00 0.0000000000000000e+00 0.0000000000000000e+00  -9.8421050965827610e+06 1.5360396381640730e+07 0.0000000000000000e+00 1.5360396381640730e+07 1.1174975549376294e+07 0.0000000000000000e+00 0.0000000000000000e+00 0.0000000000000000e+00 0.0000000000000000e+00  5.8383351423409417e+07 -4.3471535155185707e+07 0.0000000000000000e+00 -4.3471535155185699e+07 6.4745695716376670e+07 0.0000000000000000e+00 0.0000000000000000e+00 0.0000000000000000e+00 0.0000000000000000e+00  1.1409289281762566e+07 2.4399853412397772e+07 0.0000000000000000e+00 2.4399853412397772e+07 4.5648692102661535e+07 0.0000000000000000e+00 0.0000000000000000e+00 0.0000000000000000e+00 0.0000000000000000e+00  5.6913901502179680e+06 -8.8763924487370271e+06 0.0000000000000000e+00 -8.8763924487370290e+06 4.4280761927598961e+07 0.0000000000000000e+00 0.0000000000000000e+00 0.0000000000000000e+00 0.0000000000000000e+00  -7.3421996367761698e+06 1.2925201076684579e+07 0.0000000000000000e+00 1.2925201076684579e+07 1.6739099892486261e+07 0.0000000000000000e+00 0.0000000000000000e+00 0.0000000000000000e+00 0.0000000000000000e+00  1.6354486518767134e+06 1.0834713493904464e+06 0.0000000000000000e+00 1.0834713493904474e+06 6.7822086380799199e+06 0.0000000000000000e+00 0.0000000000000000e+00 0.0000000000000000e+00 0.0000000000000000e+00  -1.0278689748913425e+06 2.1615108956993059e+06 0.0000000000000000e+00 2.1615108956993059e+06 -5.0932835577044614e+07 0.0000000000000000e+00 0.0000000000000000e+00 0.0000000000000000e+00 0.0000000000000000e+00  -3.3636687720455982e+07 1.8288329897799786e+07 0.0000000000000000e+00 1.8288329897799782e+07 -2.2029522149881963e+06 0.0000000000000000e+00 0.0000000000000000e+00 0.0000000000000000e+00 0.0000000000000000e+00  1.1582197518310590e+07 -1.2537340407290351e+07 0.0000000000000000e+00 -1.2537340407290351e+07 1.6003705455748999e+07 0.0000000000000000e+00 0.0000000000000000e+00 0.0000000000000000e+00 0.0000000000000000e+00  -1.3942289794814318e+07 -1.2602066298276581e+07 0.0000000000000000e+00 -1.2602066298276581e+07 1.4804890595423656e+07 0.0000000000000000e+00 0.0000000000000000e+00 0.0000000000000000e+00 0.0000000000000000e+00  5.2916215118173428e+07 9.3502891507303581e+07 0.0000000000000000e+00 9.3502891507303581e+07 4.7938736568385556e+07 0.0000000000000000e+00 0.0000000000000000e+00 0.0000000000000000e+00 0.0000000000000000e+00  1.2830474011810146e+07 -2.5287240701903235e+07 0.0000000000000000e+00 -2.5287240701903235e+07 4.6066588660531238e+07 0.0000000000000000e+00 0.0000000000000000e+00 0.0000000000000000e+00 0.0000000000000000e+00  1.9162726153204650e+08 -2.1682068781948593e+07 0.0000000000000000e+00 -2.1682068781948600e+07 4.8157788659971893e+08 0.0000000000000000e+00 0.0000000000000000e+00 0.0000000000000000e+00 0.0000000000000000e+00  -7.5413998674965240e+06 -1.3187947998802315e+07 0.0000000000000000e+00 -1.3187947998802315e+07 1.7165158611509249e+07 0.0000000000000000e+00 0.0000000000000000e+00 0.0000000000000000e+00 0.0000000000000000e+00  6.2394839058500253e+07 -1.1766028031081894e+08 0.0000000000000000e+00 -1.1766028031081890e+08 1.2404893720003077e+08 0.0000000000000000e+00 0.0000000000000000e+00 0.0000000000000000e+00 0.0000000000000000e+00  -8.3933449363262055e+05 -2.2451038461810872e+06 0.0000000000000000e+00 -2.2451038461810872e+06 -5.1357733977008209e+07 0.0000000000000000e+00 0.0000000000000000e+00 0.0000000000000000e+00 0.0000000000000000e+00  9.5476715994760022e+06 4.1304488677006066e+06 0.0000000000000000e+00 4.1304488677006029e+06 -1.0875730876516024e+07 0.0000000000000000e+00 0.0000000000000000e+00 0.0000000000000000e+00 0.0000000000000000e+00  1.0992823927065279e+07 1.1645596864948398e+07 0.0000000000000000e+00 1.1645596864948398e+07 1.5945904000404086e+07 0.0000000000000000e+00 0.0000000000000000e+00 0.0000000000000000e+00 0.0000000000000000e+00  -9.3288067375832573e+06 5.2888932755352892e+06 0.0000000000000000e+00 5.2888932755352920e+06 -4.7189793800953832e+06 0.0000000000000000e+00 0.0000000000000000e+00 0.0000000000000000e+00 0.0000000000000000e+00  5.5415157514374010e+07 -8.9681982309748679e+07 0.0000000000000000e+00 -8.9681982309748679e+07 4.7534695463945411e+07 0.0000000000000000e+00 0.0000000000000000e+00 0.0000000000000000e+00 0.0000000000000000e+00  -1.7345345913848660e+06 -3.9553465522632985e+06 0.0000000000000000e+00 -3.9553465522632981e+06 5.4174332548595062e+06 0.0000000000000000e+00 0.0000000000000000e+00 0.0000000000000000e+00 0.0000000000000000e+00  1.9047645819119531e+08 1.5187399598968536e+07 0.0000000000000000e+00 1.5187399598968532e+07 4.7592320769382894e+08 0.0000000000000000e+00 0.0000000000000000e+00 0.0000000000000000e+00 0.0000000000000000e+00  -2.0157865031968795e+07 4.5822404982031859e+07 0.0000000000000000e+00 4.5822404982031859e+07 -2.6387350852513265e+07 0.0000000000000000e+00 0.0000000000000000e+00 0.0000000000000000e+00 0.0000000000000000e+00  7.9976874882138029e+07 1.2565788772693051e+08 0.0000000000000000e+00 1.2565788772693051e+08 1.5734710487157017e+08 0.0000000000000000e+00 0.0000000000000000e+00 0.0000000000000000e+00 0.0000000000000000e+00  -1.7460064210836661e+08 8.9738831852790788e+07 0.0000000000000000e+00 8.9738831852790788e+07 -5.9076866112339206e+07 0.0000000000000000e+00 0.0000000000000000e+00 0.0000000000000000e+00 0.0000000000000000e+00  1.0483291634272812e+07 -2.8614860307560959e+06 0.0000000000000000e+00 -2.8614860307560964e+06 -2.3618628760246276e+06 0.0000000000000000e+00 0.0000000000000000e+00 0.0000000000000000e+00 0.0000000000000000e+00  -2.0166823826573964e+07 -3.6543450899579684e+05 0.0000000000000000e+00 -3.6543450899579684e+05 9.2949491448935568e+06 0.0000000000000000e+00 0.0000000000000000e+00 0.0000000000000000e+00 0.0000000000000000e+00  -9.2431513157016616e+06 -2.8425723387288474e+06 0.0000000000000000e+00 -2.8425723387288479e+06 -6.3274946602683607e+06 0.0000000000000000e+00 0.0000000000000000e+00 0.0000000000000000e+00 0.0000000000000000e+00  1.3242442600698113e+07 3.3028376642016503e+06 0.0000000000000000e+00 3.3028376642016503e+06 -4.0372197802306679e+06 0.0000000000000000e+00 0.0000000000000000e+00 0.0000000000000000e+00 0.0000000000000000e+00  2.3623972242420533e+05 3.4791245349696479e+06 0.0000000000000000e+00 3.4791245349696493e+06 5.9935719905070504e+06 0.0000000000000000e+00 0.0000000000000000e+00 0.0000000000000000e+00 0.0000000000000000e+00  -9.7950349697423689e+06 -2.6724074893681998e+06 0.0000000000000000e+00 -2.6724074893682008e+06 7.0367352808526037e+06 0.0000000000000000e+00 0.0000000000000000e+00 0.0000000000000000e+00 0.0000000000000000e+00  -1.0475293355070805e+07 -3.9296746284543261e+07 0.0000000000000000e+00 -3.9296746284543268e+07 -9.8925420590172391e+06 0.0000000000000000e+00 0.0000000000000000e+00 0.0000000000000000e+00 0.0000000000000000e+00  3.4354236434519659e+06 -4.2208323346201237e+06 0.0000000000000000e+00 -4.2208323346201228e+06 5.8573392883970133e+04 0.0000000000000000e+00 0.0000000000000000e+00 