<?xml version="1.0"?>
<VTKFile type="UnstructuredGrid"  version="0.1"  >
<UnstructuredGrid>
<Piece  NumberOfPoints="3879" NumberOfCells="6881">
<Points>
<DataArray  type="Float64"  NumberOfComponents="3"  format="ascii">0.207524190028372 0.2122422770132111 0  0 0 0  1 0 0  0 1 0  1 1 0  0.6249674373315121 0.2590146544375328 0  0.204663578893616 0.322657230836866 0  0.09605577522599912 0.4018360776629776 0  0.671351124618251 0.08738059142081528 0  0.7842102907526436 0.1666439122351055 0  0.8512483166984784 0.1985391006160637 0  0.6418797837909295 0.4423157172830166 0  0.9292488447973215 0.3869277868069776 0  0.3197896119137055 0.5509935221980964 0  0.3979283685568406 0.5079871620336583 0  0.1572503457993085 0.7345153245035532 0  0.3032914287999163 0.7872981443735918 0  0.3549464687598876 0.8870324161721976 0  0.9691791685505482 0.5159450047798622 0  0.9447564590470373 0.6146164845729313 0  0.7687603548175107 0.7176858127488035 0  0.8926159261971183 0.7422924070424508 0  0.2061587782631535 0.2217389244366831 0  0.2021731605082994 0.2304662099646423 0  0.1958902278109265 0.2377171008267789 0  0.1878189860121365 0.2429041729681512 0  0.1786133191209442 0.2456072006525708 0  0.1690190155206647 0.2456072006525708 0  0.1598133486294724 0.2429041729681512 0  0.1517421068306824 0.2377171008267789 0  0.1454591741333096 0.2304662099646422 0  0.1414735563784554 0.221738924436683 0  0.1401081446132369 0.212242277013211 0  0.1414735563784555 0.202745629589739 0  0.1454591741333096 0.1940183440617798 0  0.1517421068306825 0.1867674531996431 0  0.1598133486294725 0.1815803810582709 0  0.1690190155206649 0.1788773533738513 0  0.1786133191209443 0.1788773533738514 0  0.1878189860121367 0.181580381058271 0  0.1958902278109266 0.1867674531996433 0  0.2021731605082994 0.19401834406178 0  0.2061587782631535 0.2027456295897391 0  0.03333333333333333 0 0  0.06666666666666667 0 0  0.1 0 0  0.1333333333333333 0 0  0.1666666666666667 0 0  0.2 0 0  0.2333333333333333 0 0  0.2666666666666667 0 0  0.3 0 0  0.3333333333333333 0 0  0.3666666666666666 0 0  0.4 0 0  0.4333333333333333 0 0  0.4666666666666667 0 0  0.5 0 0  0.5333333333333333 0 0  0.5666666666666667 0 0  0.6 0 0  0.6333333333333333 0 0  0.6666666666666666 0 0  0.7 0 0  0.7333333333333333 0 0  0.7666666666666667 0 0  0.8 0 0  0.8333333333333334 0 0  0.8666666666666667 0 0  0.9 0 0  0.9333333333333333 0 0  0.9666666666666667 0 0  0 0.9666666666666667 0  0 0.9333333333333333 0  0 0.9 0  0 0.8666666666666667 0  0 0.8333333333333334 0  0 0.8 0  0 0.7666666666666666 0  0 0.7333333333333334 0  0 0.7 0  0 0.6666666666666667 0  0 0.6333333333333333 0  0 0.6 0  0 0.5666666666666667 0  0 0.5333333333333333 0  0 0.5 0  0 0.4666666666666667 0  0 0.4333333333333333 0  0 0.4 0  0 0.3666666666666667 0  0 0.3333333333333334 0  0 0.3 0  0 0.2666666666666667 0  0 0.2333333333333333 0  0 0.2 0  0 0.1666666666666666 0  0 0.1333333333333333 0  0 0.09999999999999998 0  0 0.06666666666666665 0  0 0.03333333333333333 0  1 0.03333333333333333 0  1 0.06666666666666667 0  1 0.1 0  1 0.1333333333333333 0  1 0.1666666666666667 0  1 0.2 0  1 0.2333333333333333 0  1 0.2666666666666667 0  1 0.3 0  1 0.3333333333333333 0  1 0.3666666666666666 0  1 0.4 0  1 0.4333333333333333 0  1 0.4666666666666667 0  1 0.5 0  1 0.5333333333333333 0  1 0.5666666666666667 0  1 0.6 0  1 0.6333333333333333 0  1 0.6666666666666666 0  1 0.7 0  1 0.7333333333333333 0  1 0.7666666666666667 0  1 0.8 0  1 0.8333333333333334 0  1 0.8666666666666667 0  1 0.9 0  1 0.9333333333333333 0  1 0.9666666666666667 0  0.9666666666666667 1 0  0.9333333333333333 1 0  0.9 1 0  0.8666666666666667 1 0  0.8333333333333334 1 0  0.8 1 0  0.7666666666666666 1 0  0.7333333333333334 1 0  0.7 1 0  0.6666666666666667 1 0  0.6333333333333333 1 0  0.6 1 0  0.5666666666666667 1 0  0.5333333333333333 1 0  0.5 1 0  0.4666666666666667 1 0  0.4333333333333333 1 0  0.4 1 0  0.3666666666666667 1 0  0.3333333333333334 1 0  0.3 1 0  0.2666666666666667 1 0  0.2333333333333333 1 0  0.2 1 0  0.1666666666666666 1 0  0.1333333333333333 1 0  0.09999999999999998 1 0  0.06666666666666665 1 0  0.03333333333333333 1 0  0.6247072676344306 0.2689501343248463 0  0.6239274716502419 0.2788583817523955 0  0.6226301867455355 0.2887122389026952 0  0.6208189686880621 0.2984846970382296 0  0.6184987819006211 0.3081489705305245 0  0.6156759858539226 0.317678570277693 0  0.6123583176357204 0.3270473763092224 0  0.6085548707439923 0.3362297093789981 0  0.6042760701622942 0.3452004013503318 0  0.5995336437856049 0.3539348641800754 0  0.5943405902749808 0.3624091573127375 0  0.5887111434291297 0.3706000532998825 0  0.582660733170558 0.3784851014649517 0  0.5762059432532257 0.3860426894390078 0  0.5693644658076293 0.3932521023987353 0  0.5621550528479018 0.4000935798443317 0  0.5545974648738458 0.4065483697616639 0  0.5467124167087765 0.4125987800202355 0  0.5385215207216315 0.4182282268660866 0  0.5300472275889694 0.4234212803767108 0  0.5213127647592257 0.4281637067534002 0  0.512342072787892 0.4324425073350981 0  0.5031597397181163 0.4362459542268262 0  0.493790933686587 0.4395636224450283 0  0.4842613339394185 0.4423864184917269 0  0.4745970604471235 0.4447066052791678 0  0.4648246023115891 0.4465178233366412 0  0.4549707451612894 0.4478151082413475 0  0.4450624977337403 0.4485949042255363 0  0.4351270178464268 0.4488550739226177 0  0.4251915379591132 0.4485949042255363 0  0.4152832905315641 0.4478151082413475 0  0.4054294333812644 0.4465178233366411 0  0.39565697524573 0.4447066052791677 0  0.385992701753435 0.4423864184917267 0  0.3764631020062665 0.4395636224450281 0  0.3670942959747371 0.4362459542268259 0  0.3579119629049616 0.4324425073350978 0  0.3489412709336278 0.4281637067533998 0  0.3402068081038843 0.4234212803767103 0  0.3317325149712221 0.4182282268660862 0  0.3235416189840771 0.412598780020235 0  0.3156565708190078 0.4065483697616634 0  0.3080989828449519 0.4000935798443311 0  0.3008895698852244 0.3932521023987346 0  0.2940480924396279 0.3860426894390071 0  0.2875933025222958 0.3784851014649511 0  0.2815428922637242 0.3706000532998818 0  0.2759134454178731 0.3624091573127368 0  0.2707203919072489 0.3539348641800746 0  0.2659779655305596 0.3452004013503309 0  0.2616991649488616 0.3362297093789972 0  0.2578957180571336 0.3270473763092215 0  0.2545780498389315 0.3176785702776921 0  0.251755253792233 0.3081489705305236 0  0.249435067004792 0.2984846970382286 0  0.2476238489473186 0.2887122389026941 0  0.2463265640426123 0.2788583817523945 0  0.2455467680584236 0.2689501343248454 0  0.2452865983613423 0.2590146544375318 0  0.2455467680584237 0.2490791745502182 0  0.2463265640426126 0.2391709271226692 0  0.247623848947319 0.2293170699723696 0  0.2494350670047924 0.2195446118368351 0  0.2517552537922335 0.2098803383445402 0  0.2545780498389321 0.2003507385973717 0  0.2578957180571343 0.1909819325658423 0  0.2616991649488624 0.1817995994960667 0  0.2659779655305604 0.172828907524733 0  0.2707203919072498 0.1640944446949895 0  0.2759134454178741 0.1556201515623273 0  0.2815428922637251 0.1474292555751825 0  0.2875933025222969 0.1395442074101132 0  0.2940480924396291 0.1319866194360571 0  0.3008895698852256 0.1247772064763297 0  0.3080989828449531 0.1179357290307334 0  0.3156565708190092 0.1114809391134012 0  0.3235416189840785 0.1054305288548295 0  0.3317325149712236 0.09980108200897844 0  0.3402068081038856 0.0946080284983544 0  0.3489412709336291 0.08986560212166514 0  0.357911962904963 0.08558680153996717 0  0.3670942959747386 0.08178335464823916 0  0.3764631020062678 0.07846568643003712 0  0.3859927017534364 0.0756428903833386 0  0.3956569752457313 0.0733227035958976 0  0.4054294333812659 0.07151148553842429 0  0.4152832905315654 0.07021420063371797 0  0.4251915379591144 0.0694344046495293 0  0.435127017846428 0.0691742349524479 0  0.4450624977337415 0.06943440464952938 0  0.4549707451612905 0.07021420063371814 0  0.4648246023115901 0.07151148553842454 0  0.4745970604471245 0.07332270359589793 0  0.4842613339394195 0.07564289038333902 0  0.4937909336865879 0.07846568643003757 0  0.5031597397181173 0.0817833546482398 0  0.5123420727878929 0.08558680153996781 0  0.5213127647592265 0.08986560212166581 0  0.53004722758897 0.0946080284983552 0  0.5385215207216321 0.09980108200897933 0  0.5467124167087771 0.1054305288548305 0  0.5545974648738462 0.1114809391134021 0  0.5621550528479023 0.1179357290307343 0  0.5693644658076298 0.1247772064763308 0  0.576205943253226 0.1319866194360582 0  0.5826607331705582 0.1395442074101142 0  0.5887111434291299 0.1474292555751835 0  0.594340590274981 0.1556201515623285 0  0.5995336437856051 0.1640944446949906 0  0.6042760701622945 0.172828907524734 0  0.6085548707439925 0.1817995994960678 0  0.6123583176357205 0.1909819325658435 0  0.6156759858539227 0.2003507385973728 0  0.6184987819006211 0.2098803383445412 0  0.6208189686880622 0.2195446118368362 0  0.6226301867455355 0.2293170699723706 0  0.6239274716502419 0.2391709271226702 0  0.6247072676344306 0.2490791745502192 0  0.203885768735257 0.3325402459548524 0  0.2015714905276826 0.3421799084407872 0  0.1977777294810124 0.3513388578120612 0  0.1925979005829864 0.3597915703383434 0  0.1861595484119405 0.3673299121842922 0  0.1786212065659918 0.373768264355338 0  0.1701684940397096 0.378948093253364 0  0.1610095446684356 0.3827418543000342 0  0.1513698821825007 0.3850561325076086 0  0.1414868670645144 0.3858339426659677 0  0.1316038519465281 0.3850561325076086 0  0.1219641894605933 0.3827418543000343 0  0.1128052400893193 0.378948093253364 0  0.1043525275630371 0.3737682643553381 0  0.09681418571708833 0.3673299121842922 0  0.09037583354604248 0.3597915703383434 0  0.08519600464801645 0.3513388578120612 0  0.08140224360134621 0.3421799084407872 0  0.07908796539377183 0.3325402459548523 0  0.07831015523541281 0.3226572308368659 0  0.07908796539377186 0.3127742157188796 0  0.08140224360134626 0.3031345532329447 0  0.08519600464801655 0.2939756038616707 0  0.0903758335460426 0.2855228913353884 0  0.0968141857
[...]
<PointData  Vectors="$u$"> 
<DataArray  type="Float64"  Name="$u$"  NumberOfComponents="3" format="ascii">2.2015525450080442e-04 4.1474477694221926e-04 0.0000000000000000e+00  0.0000000000000000e+00 0.0000000000000000e+00 0.0000000000000000e+00  -5.0560029904254185e-04 0.0000000000000000e+00 0.0000000000000000e+00  -6.9860671854944900e-05 4.5000000000000005e-03 0.0000000000000000e+00  -5.9197460105695886e-04 4.5000000000000005e-03 0.0000000000000000e+00  -8.3644758390827886e-04 1.0764097043050032e-03 0.0000000000000000e+00  8.7052571607570777e-04 6.7611702950492439e-04 0.0000000000000000e+00  7.5355263501224862e-04 1.2751497799575644e-03 0.0000000000000000e+00  -4.4559110816053561e-04 1.5493800424059480e-04 0.0000000000000000e+00  -6.8021614267398068e-04 1.9791986664753085e-05 0.0000000000000000e+00  -7.8086675273000773e-04 1.6232077704985163e-04 0.0000000000000000e+00  -1.1591425933497090e-04 1.7590566920677232e-03 0.0000000000000000e+00  -2.0612186764933835e-03 1.3863758679302390e-03 0.0000000000000000e+00  -3.2899205843441753e-04 2.7594672430292884e-03 0.0000000000000000e+00  -2.5964566224348664e-04 2.4762790442581120e-03 0.0000000000000000e+00  6.3640344851482577e-04 4.2711477731501501e-03 0.0000000000000000e+00  2.4030543137599017e-04 3.6067241264494750e-03 0.0000000000000000e+00  -3.3913030409031547e-04 4.3130326159443230e-03 0.0000000000000000e+00  -2.1810326150047419e-03 2.3773734250421433e-03 0.0000000000000000e+00  -1.6858913431042010e-03 3.1211539837286448e-03 0.0000000000000000e+00  -1.1416478568182370e-03 4.0942558011965342e-03 0.0000000000000000e+00  -1.0357104353723653e-03 3.9953206288859192e-03 0.0000000000000000e+00  2.9416757598190119e-04 4.8811229101546131e-04 0.0000000000000000e+00  3.7161446750435444e-04 5.5334172790252162e-04 0.0000000000000000e+00  4.3975333829271603e-04 6.0748467498137964e-04 0.0000000000000000e+00  4.9183442583643515e-04 6.3072003184226687e-04 0.0000000000000000e+00  5.2871962863502075e-04 6.1848410315313597e-04 0.0000000000000000e+00  5.3472882216509105e-04 5.5612548896341379e-04 0.0000000000000000e+00  5.2100349227965316e-04 4.6566917330791109e-04 0.0000000000000000e+00  4.7878355915629449e-04 3.8942716902692865e-04 0.0000000000000000e+00  4.1644391453126648e-04 3.4687846566203102e-04 0.0000000000000000e+00  3.5999283388921127e-04 3.2441114113894887e-04 0.0000000000000000e+00  3.0251983907996155e-04 2.9611765893014215e-04 0.0000000000000000e+00  2.5142411954272959e-04 2.7058457881937008e-04 0.0000000000000000e+00  2.0512473828466376e-04 2.4069120784965255e-04 0.0000000000000000e+00  1.6554374754740585e-04 2.1368878608977942e-04 0.0000000000000000e+00  1.3085527293889729e-04 1.9566340412609180e-04 0.0000000000000000e+00  1.0753086622069602e-04 1.8785470595184241e-04 0.0000000000000000e+00  9.1264996513961056e-05 1.9285589223966081e-04 0.0000000000000000e+00  8.7194889474812915e-05 2.1125381200761605e-04 0.0000000000000000e+00  9.7597473876911351e-05 2.4333269954906784e-04 0.0000000000000000e+00  1.2027646151436115e-04 2.8727544816721583e-04 0.0000000000000000e+00  1.6213504832233378e-04 3.4582114648693262e-04 0.0000000000000000e+00  0.0000000000000000e+00 0.0000000000000000e+00 0.0000000000000000e+00  -4.4532623036444850e-05 0.0000000000000000e+00 0.0000000000000000e+00  -6.1624514129480246e-05 0.0000000000000000e+00 0.0000000000000000e+00  -8.0658938970809701e-05 0.0000000000000000e+00 0.0000000000000000e+00  -9.4093998230732986e-05 0.0000000000000000e+00 0.0000000000000000e+00  -1.0647648075953770e-04 0.0000000000000000e+00 0.0000000000000000e+00  -1.1683103939351476e-04 0.0000000000000000e+00 0.0000000000000000e+00  -1.2630523372704849e-04 0.0000000000000000e+00 0.0000000000000000e+00  -1.3339715617170959e-04 0.0000000000000000e+00 0.0000000000000000e+00  -1.3811412175364636e-04 0.0000000000000000e+00 0.0000000000000000e+00  -1.4240026826073935e-04 0.0000000000000000e+00 0.0000000000000000e+00  -1.4862123741678975e-04 0.0000000000000000e+00 0.0000000000000000e+00  -1.5641001492999886e-04 0.0000000000000000e+00 0.0000000000000000e+00  -1.6600139680934248e-04 0.0000000000000000e+00 0.0000000000000000e+00  -1.7805450530226889e-04 0.0000000000000000e+00 0.0000000000000000e+00  -1.9803606679275588e-04 0.0000000000000000e+00 0.0000000000000000e+00  -2.2985544056653979e-04 0.0000000000000000e+00 0.0000000000000000e+00  -2.7276510095645902e-04 0.0000000000000000e+00 0.0000000000000000e+00  -3.0369687709357122e-04 0.0000000000000000e+00 0.0000000000000000e+00  -3.3049967613717240e-04 0.0000000000000000e+00 0.0000000000000000e+00  -3.6735118750397700e-04 0.0000000000000000e+00 0.0000000000000000e+00  -3.9150129177979536e-04 0.0000000000000000e+00 0.0000000000000000e+00  -3.9782893184685009e-04 0.0000000000000000e+00 0.0000000000000000e+00  -3.9796748659912682e-04 0.0000000000000000e+00 0.0000000000000000e+00  -3.9780507984099524e-04 0.0000000000000000e+00 0.0000000000000000e+00  -4.0514882791041159e-04 0.0000000000000000e+00 0.0000000000000000e+00  -4.1627057899116691e-04 0.0000000000000000e+00 0.0000000000000000e+00  -4.3879291292897246e-04 0.0000000000000000e+00 0.0000000000000000e+00  -4.6874131905579394e-04 0.0000000000000000e+00 0.0000000000000000e+00  -6.1747380341431923e-05 4.3677592534481250e-03 0.0000000000000000e+00  -3.4693660816432005e-05 4.2346947989531812e-03 0.0000000000000000e+00  1.1001740684095812e-05 4.0964115872004735e-03 0.0000000000000000e+00  8.0201841250812596e-05 3.9552614644809241e-03 0.0000000000000000e+00  1.7279158106392131e-04 3.8094300381374541e-03 0.0000000000000000e+00  2.9109351021069306e-04 3.6589847620688599e-03 0.0000000000000000e+00  4.3456920158409045e-04 3.5046273432465104e-03 0.0000000000000000e+00  6.0359186020688272e-04 3.3357344982098310e-03 0.0000000000000000e+00  8.1386144930371113e-04 3.1521215769422344e-03 0.0000000000000000e+00  1.0808558478510673e-03 2.9524552222590012e-03 0.0000000000000000e+00  1.4112384391296877e-03 2.7651304394319164e-03 0.0000000000000000e+00  1.7560475317690658e-03 2.6273403064082657e-03 0.0000000000000000e+00  1.9952790175404226e-03 2.5554736274665505e-03 0.0000000000000000e+00  2.0072695281206669e-03 2.5142023882081480e-03 0.0000000000000000e+00  1.8173603323799080e-03 2.4146261384141907e-03 0.0000000000000000e+00  1.5650433498219560e-03 2.2243821525234188e-03 0.0000000000000000e+00  1.4143002772863398e-03 1.9580978360088800e-03 0.0000000000000000e+00  1.3305878791621420e-03 1.7716510530822827e-03 0.0000000000000000e+00  1.0930042053486496e-03 1.6010171364614339e-03 0.0000000000000000e+00  8.8544211848093129e-04 1.3751542696227976e-03 0.0000000000000000e+00  7.4025025804177460e-04 1.2073758544556721e-03 0.0000000000000000e+00  5.9478375332709839e-04 1.0607796340129834e-03 0.0000000000000000e+00  4.5752971611308114e-04 9.2193388711716054e-04 0.0000000000000000e+00  3.3536470020621370e-04 7.8401738072297205e-04 0.0000000000000000e+00  2.3291396239553212e-04 6.4881343258745743e-04 0.0000000000000000e+00  1.5196433706812575e-04 5.1214914633890859e-04 0.0000000000000000e+00  9.2768385829087799e-05 3.8169025964152650e-04 0.0000000000000000e+00  5.1948032865579478e-05 2.4831568306400573e-04 0.0000000000000000e+00  3.4217691704075746e-05 1.2836706464312275e-04 0.0000000000000000e+00  -5.1398774189945196e-04 1.3636413535542943e-04 0.0000000000000000e+00  -5.4317821869579494e-04 2.7481242147509147e-04 0.0000000000000000e+00  -5.9230600792337801e-04 4.1695980191789727e-04 0.0000000000000000e+00  -6.6548807676564776e-04 5.6560216055329745e-04 0.0000000000000000e+00  -7.6652937397705132e-04 7.2162009344510871e-04 0.0000000000000000e+00  -9.0200387141486417e-04 8.8642371445804384e-04 0.0000000000000000e+00  -1.0754219007548650e-03 1.0553807263131672e-03 0.0000000000000000e+00  -1.2938121050287072e-03 1.2308226878201089e-03 0.0000000000000000e+00  -1.5542316118592246e-03 1.3927981379368993e-03 0.0000000000000000e+00  -1.8298483156243570e-03 1.5262732995132110e-03 0.0000000000000000e+00  -2.0638984014057777e-03 1.6178378757105991e-03 0.0000000000000000e+00  -2.1981981479960310e-03 1.6928355279669509e-03 0.0000000000000000e+00  -2.2250271648513015e-03 1.7916337083171180e-03 0.0000000000000000e+00  -2.2183749931964417e-03 1.9735121899289837e-03 0.0000000000000000e+00  -2.3064946798596899e-03 2.1766216089491785e-03 0.0000000000000000e+00  -2.0878520462956460e-03 2.3070459176670137e-03 0.0000000000000000e+00  -1.8145947067951381e-03 2.6393301098873237e-03 0.0000000000000000e+00  -1.7842614916520987e-03 2.8777070171580733e-03 0.0000000000000000e+00  -1.7097854628084577e-03 3.0060629222450888e-03 0.0000000000000000e+00  -1.5362441895363913e-03 3.1272729138205877e-03 0.0000000000000000e+00  -1.3360241283362796e-03 3.2698801486084764e-03 0.0000000000000000e+00  -1.1588963769971743e-03 3.4220173101597346e-03 0.0000000000000000e+00  -1.0083569043704140e-03 3.5686410199229548e-03 0.0000000000000000e+00  -8.8263681091011121e-04 3.7131615793615127e-03 0.0000000000000000e+00  -7.8445518952542583e-04 3.8553742061964960e-03 0.0000000000000000e+00  -7.1127692441728680e-04 3.9912632571783447e-03 0.0000000000000000e+00  -6.5758824637004391e-04 4.1223799719341788e-03 0.0000000000000000e+00  -6.2101620857159376e-04 4.2497004012951563e-03 0.0000000000000000e+00  -5.9867481276857000e-04 4.3750714869111688e-03 0.0000000000000000e+00  -5.5777535785335561e-04 4.5000000000000005e-03 0.0000000000000000e+00  -5.2709840878951411e-04 4.5000000000000005e-03 0.0000000000000000e+00  -5.0221573326637435e-04 4.5000000000000005e-03 0.0000000000000000e+00  -4.8178352544549680e-04 4.5000000000000005e-03 0.0000000000000000e+00  -4.6451716197327346e-04 4.5000000000000005e-03 0.0000000000000000e+00  -4.4967319060973165e-04 4.5000000000000005e-03 0.0000000000000000e+00  -4.3787602262037342e-04 4.5000000000000005e-03 0.0000000000000000e+00  -4.2982901569463408e-04 4.5000000000000005e-03 0.0000000000000000e+00  -4.2402883817447315e-04 4.5000000000000005e-03 0.0000000000000000e+00  -4.2086345805924960e-04 4.5000000000000005e-03 0.0000000000000000e+00  -4.1556684871942988e-04 4.5000000000000005e-03 0.0000000000000000e+00  -4.0855392121253337e-04 4.5000000000000005e-03 0.0000000000000000e+00  -3.9908043878136065e-04 4.5000000000000005e-03 0.0000000000000000e+00  -3.8843788891833309e-04 4.5000000000000005e-03 0.0000000000000000e+00  -3.7758729035464297e-04 4.5000000000000005e-03 0.0000000000000000e+00  -3.6352473705597978e-04 4.5000000000000005e-03 0.0000000000000000e+00  -3.4431978924980347e-04 4.5000000000000005e-03 0.0000000000000000e+00  -3.1598951586538342e-04 4.5000000000000005e-03 0.0000000000000000e+00  -2.8230451490139923e-04 4.5000000000000005e-03 0.0000000000000000e+00  -2.5362290703143960e-04 4.5000000000000005e-03 0.0000000000000000e+00  -2.3626716959897055e-04 4.5000000000000005e-03 0.0000000000000000e+00  -2.2051187035408232e-04 4.5000000000000005e-03 0.0000000000000000e+00  -2.0055003971415438e-04 4.5000000000000005e-03 0.0000000000000000e+00  -1.8562912769500619e-04 4.5000000000000005e-03 0.0000000000000000e+00  -1.7831782524233683e-04 4.5000000000000005e-03 0.0000000000000000e+00  -1.6864961390034418e-04 4.5000000000000005e-03 0.0000000000000000e+00  -1.5608191747494495e-04 4.5000000000000005e-03 0.0000000000000000e+00  -1.3513677597665248e-04 4.5000000000000005e-03 0.0000000000000000e+00  -1.0533555001702890e-04 4.5000000000000005e-03 0.0000000000000000e+00  -7.9594982961746067e-04 1.1484668399430529e-03 0.0000000000000000e+00  -7.4893487033567390e-04 1.2169099086329377e-03 0.0000000000000000e+00  -6.9542842312478109e-04 1.2848992182598418e-03 0.0000000000000000e+00  -6.3814901415451379e-04 1.3487445726997091e-03 0.0000000000000000e+00  -5.7787053054991994e-04 1.4125852204684227e-03 0.0000000000000000e+00  -5.1584001240581687e-04 1.4716830924912420e-03 0.0000000000000000e+00  -4.5478903654283369e-04 1.5251377873714276e-03 0.0000000000000000e+00  -3.9815376031237002e-04 1.5724461138363227e-03 0.0000000000000000e+00  -3.4675864252369735e-04 1.6118627431379092e-03 0.0000000000000000e+00  -3.0455275956404375e-04 1.6426524022934371e-03 0.0000000000000000e+00  -2.7223816474670793e-04 1.6658287664890984e-03 0.0000000000000000e+00  -2.5119770511582352e-04 1.6817982942680196e-03 0.0000000000000000e+00  -2.4234408326475525e-04 1.6918601078302893e-03 0.0000000000000000e+00  -2.4493172577199582e-04 1.6980468084023569e-03 0.0000000000000000e+00  -2.5946412924529073e-04 1.7010799927874890e-03 0.0000000000000000e+00  -2.8475423910965993e-04 1.7067007700481041e-03 0.0000000000000000e+00  -3.1626277494648680e-04 1.7186352825613669e-03 0.0000000000000000e+00  -3.4900109577343182e-04 1.7390350158472884e-03 0.0000000000000000e+00  -3.8017690207449569e-04 1.7695220880174470e-03 0.0000000000000000e+00  -4.0618759029357879e-04 1.8073600285247748e-03 0.0000000000000000e+00  -4.2846013350793201e-04 1.8536129051038310e-03 0.0000000000000000e+00  -4.4523350230333327e-04 1.9062921031525464e-03 0.0000000000000000e+00  -4.5650282714465638e-04 1.9642994764597316e-03 0.0000000000000000e+00  -4.6254430786072862e-04 2.0261992897108653e-03 0.0000000000000000e+00  -4.6340025474612777e-04 2.0899533377688731e-03 0.0000000000000000e+00  -4.5951747244962434e-04 2.1534869253323251e-03 0.0000000000000000e+00  -4.5103989539177697e-04 2.2148373889823757e-03 0.0000000000000000e+00  -4.4007942654694096e-04 2.2720716984485885e-03 0.0000000000000000e+00  -4.2669063557153699e-04 2.3248841781175074e-03 0.0000000000000000e+00  -4.1151860970977121e-04 2.3726134250255104e-03 0.0000000000000000e+00  -3.9500592091655924e-04 2.4155044454588098e-03 0.0000000000000000e+00  -3.7604655580218092e-04 2.4545715949539342e-03 0.0000000000000000e+00  -3.5301420084123223e-04 2.4890656539651151e-03 0.0000000000000000e+00  -3.2276335123447624e-04 2.5179469726758536e-03 0.0000000000000000e+00  -2.8142466200356493e-04 2.5365936707345167e-03 0.0000000000000000e+00  -2.2833552784409989e-04 2.5398291818705225e-03 0.0000000000000000e+00  -1.6412260301739134e-04 2.5250412711867397e-03 0.0000000000000000e+00  -8.8681827551900108e-05 2.4912418374056157e-03 0.0000000000000000e+00  -2.4915308046816249e-06 2.4378013042574372e-03 0.0000000000000000e+00  9.3511018682067889e-05 2.3635564031942997e-03 0.0000000000000000e+00  1.9771782039878922e-04 2.2688424562955253e-03 0.0000000000000000e+00  3.0647945767562349e-04 2.1532883023134422e-03 0.0000000000000000e+00  4.1348375726669903e-04 2.0213865510472539e-03 0.0000000000000000e+00  5.1651734209956729e-04 1.8772724165538072e-03 0.0000000000000000e+00  6.0997836269167070e-04 1.7268139867571192e-03 0.0000000000000000e+00  6.8676548562480208e-04 1.5737021292193760e-03 0.0000000000000000e+00  7.5012743238105236e-04 1.4303573974645974e-03 0.0000000000000000e+00  7.9819124928510500e-04 1.2946878856103391e-03 0.0000000000000000e+00  8.3191836560199211e-04 1.1708833096933445e-03 0.0000000000000000e+00  8.5409372347180384e-04 1.0596109009879152e-03 0.0000000000000000e+00  8.6511136305590262e-04 9.5793146700494630e-04 0.0000000000000000e+00  8.6636413718518368e-04 8.6615101045238885e-04 0.0000000000000000e+00  8.5629413086732139e-04 7.8026218051192972e-04 0.0000000000000000e+00  8.3378932204409184e-04 7.0133475790338986e-04 0.0000000000000000e+00  7.9892205209912935e-04 6.2948602313330361e-04 0.0000000000000000e+00  7.5252543567256680e-04 5.6464750741065379e-04 0.0000000000000000e+00  6.9839336280063649e-04 5.0809640655666364e-04 0.0000000000000000e+00  6.4086043285924350e-04 4.5797795072150492e-04 0.0000000000000000e+00  5.8168773906781249e-04 4.0986698771608107e-04 0.0000000000000000e+00  5.2069246273248309e-04 3.6286125906754516e-04 0.0000000000000000e+00  4.5586396374957785e-04 3.1417441219105377e-04 0.0000000000000000e+00  3.8490526106565629e-04 2.6628876867532391e-04 0.0000000000000000e+00  3.1043002790876600e-04 2.2554981146875424e-04 0.0000000000000000e+00  2.4028894879591812e-04 1.9269723935707567e-04 0.0000000000000000e+00  1.8028822930193439e-04 1.6887413904866663e-04 0.0000000000000000e+00  1.3383466239820006e-04 1.4975121211619507e-04 0.0000000000000000e+00  9.9120045507398915e-05 1.3293880001474752e-04 0.0000000000000000e+00  7.2667684103490802e-05 1.1589975151249611e-04 0.0000000000000000e+00  5.1097633654762242e-05 9.8989063938292835e-05 0.0000000000000000e+00  3.2009515039465440e-05 8.2183787116823741e-05 0.0000000000000000e+00  1.4400172506917665e-05 6.6544162502313477e-05 0.0000000000000000e+00  -2.3059932519368335e-06 5.2338692719749434e-05 0.0000000000000000e+00  -1.8112998424176487e-05 3.9781501785637310e-05 0.0000000000000000e+00  -3.3159403154251037e-05 2.9034394391107165e-05 0.0000000000000000e+00  -4.7265386220831320e-05 2.0334628810347811e-05 0.0000000000000000e+00  -6.0352157218721827e-05 1.3076952949507223e-05 0.0000000000000000e+00  -7.2456311957519277e-05 7.7682831974124277e-06 0.0000000000000000e+00  -8.3420456567582566e-05 3.6856563533758570e-06 0.0000000000000000e+00  -9.3349566604498173e-05 9.3743876358246106e-07 0.0000000000000000e+00  -1.0246239959521931e-04 -7.1883570350682463e-07 0.0000000000000000e+00  -1.1045792448059638e-04 -1.5183141121957191e-06 0.0000000000000000e+00  -1.1780194384390194e-04 -1.6882691832892161e-06 0.0000000000000000e+00  -1.2431842433217779e-04 -1.3547214539795946e-06 0.0000000000000000e+00  -1.3030872104478460e-04 -7.5895017356629684e-07 0.0000000000000000e+00  -1.3577014624192711e-04 3.7298519079995655e-08 0.0000000000000000e+00  -1.4099026766116785e-04 8.5473669655841438e-07 0.0000000000000000e+00  -1.4590070183895752e-04 1.7298473986361124e-06 0.0000000000000000e+00  -1.5068737411530386e-04 2.5036531938907921e-06 0.0000000000000000e+00  -1.5549218510806423e-04 3.3195135153151269e-06 0.0000000000000000e+00  -1.6027717701796410e-04 4.1615381146489186e-06 0.0000000000000000e+00  -1.6519426907297724e-04 5.1817690880361799e-06 0.0000000000000000e+00  -1.7010214417336269e-04 6.4446269463349763e-06 0.0000000000000000e+00  -1.7513515581851210e-04 8.1351546893026820e-06 0.0000000000000000e+00  -1.8025152272271982e-04 1.0593086123784084e-05 0.0000000000000000e+00  -1.8499331261395466e-04 1.3730290649784985e-05 0.0000000000000000e+00  -1.8961877678629670e-04 1.7870619110059433e-05 0.0000000000000000e+00  -1.9350923756300672e-04 2.2972270262599317e-05 0.0000000000000000e+00  -1.9681741806621330e-04 2.9000763878836226e-05 0.0000000000000000e+00  -1.9949947513308474e-04 3.5827142759054640e-05 0.0000000000000000e+00  -2.0141835338495251e-04 4.3509279625922223e-05 0.0000000000000000e+00  -2.0350884888822976e-04 5.1351559049519843e-05 0.0000000000000000e+00  -2.0666378520791100e-04 5.9828824273531107e-05 0.0000000000000000e+00  -2.1421489802734246e-04 6.8505263692311173e-05 0.0000000000000000e+00  -2.2762545536708826e-04 8.0755678854038774e-05 0.0000000000000000e+00  -2.5205263941436651e-04 9.7227787744860061e-05 0.0000000000000000e+00  -2.8591378532252348e-04 1.2400701603275567e-04 0.0000000000000000e+00  -3.2974316658319100e-04 1.6088126968056611e-04 0.0000000000000000e+00  -3.7739451726795143e-04 2.0750000138484163e-04 0.0000000000000000e+00  -4.2734229900008526e-04 2.5869474039572640e-04 0.0000000000000000e+00  -4.7982610431369758e-04 3.1066934424777245e-04 0.0000000000000000e+00  -5.3908300731291393e-04 3.6303744155749307e-04 0.0000000000000000e+00  -6.0579939442579798e-04 4.2021910121126885e-04 0.0000000000000000e+00  -6.7814056015486188e-04 4.8548014348343433e-04 0.0000000000000000e+00  -7.4900741120610117e-04 5.6087931409244207e-04 0.0000000000000000e+00  -8.1026373660716012e-04 6.4623104282439771e-04 0.0000000000000000e+00  -8.5462454718363934e-04 7.3625406928059601e-04 0.0000000000000000e+00  -8.7870171316580979e-04 8.2735116788693844e-04 0.0000000000000000e+00  -8.8114040756847797e-04 9.1649565197058388e-04 0.0000000000000000e+00  -8.6602887103731435e-04 9.9809844604537143e-04 0.0000000000000000e+00  8.7970943879704525e-04 6.7309263501430039e-04 0.0000000000000000e+00  8.6721456579250903e-04 6.5974789649267266e-04 0.0000000000000000e+00  8.3497824890761154e-04 6.3958514851819885e-04 0.0000000000000000e+00  7.8842389441773411e-04 6.199