<?xml version="1.0"?>
<VTKFile type="UnstructuredGrid"  version="0.1"  >
<UnstructuredGrid>
<Piece  NumberOfPoints="3879" NumberOfCells="6881">
<Points>
<DataArray  type="Float64"  NumberOfComponents="3"  format="ascii">0.207524190028372 0.2122422770132111 0  0 0 0  1 0 0  0 1 0  1 1 0  0.6249674373315121 0.2590146544375328 0  0.204663578893616 0.322657230836866 0  0.09605577522599912 0.4018360776629776 0  0.671351124618251 0.08738059142081528 0  0.7842102907526436 0.1666439122351055 0  0.8512483166984784 0.1985391006160637 0  0.6418797837909295 0.4423157172830166 0  0.9292488447973215 0.3869277868069776 0  0.3197896119137055 0.5509935221980964 0  0.3979283685568406 0.5079871620336583 0  0.1572503457993085 0.7345153245035532 0  0.3032914287999163 0.7872981443735918 0  0.3549464687598876 0.8870324161721976 0  0.9691791685505482 0.5159450047798622 0  0.9447564590470373 0.6146164845729313 0  0.7687603548175107 0.7176858127488035 0  0.8926159261971183 0.7422924070424508 0  0.2061587782631535 0.2217389244366831 0  0.2021731605082994 0.2304662099646423 0  0.1958902278109265 0.2377171008267789 0  0.1878189860121365 0.2429041729681512 0  0.1786133191209442 0.2456072006525708 0  0.1690190155206647 0.2456072006525708 0  0.1598133486294724 0.2429041729681512 0  0.1517421068306824 0.2377171008267789 0  0.1454591741333096 0.2304662099646422 0  0.1414735563784554 0.221738924436683 0  0.1401081446132369 0.212242277013211 0  0.1414735563784555 0.202745629589739 0  0.1454591741333096 0.1940183440617798 0  0.1517421068306825 0.1867674531996431 0  0.1598133486294725 0.1815803810582709 0  0.1690190155206649 0.1788773533738513 0  0.1786133191209443 0.1788773533738514 0  0.1878189860121367 0.181580381058271 0  0.1958902278109266 0.1867674531996433 0  0.2021731605082994 0.19401834406178 0  0.2061587782631535 0.2027456295897391 0  0.03333333333333333 0 0  0.06666666666666667 0 0  0.1 0 0  0.1333333333333333 0 0  0.1666666666666667 0 0  0.2 0 0  0.2333333333333333 0 0  0.2666666666666667 0 0  0.3 0 0  0.3333333333333333 0 0  0.3666666666666666 0 0  0.4 0 0  0.4333333333333333 0 0  0.4666666666666667 0 0  0.5 0 0  0.5333333333333333 0 0  0.5666666666666667 0 0  0.6 0 0  0.6333333333333333 0 0  0.6666666666666666 0 0  0.7 0 0  0.7333333333333333 0 0  0.7666666666666667 0 0  0.8 0 0  0.8333333333333334 0 0  0.8666666666666667 0 0  0.9 0 0  0.9333333333333333 0 0  0.9666666666666667 0 0  0 0.9666666666666667 0  0 0.9333333333333333 0  0 0.9 0  0 0.8666666666666667 0  0 0.8333333333333334 0  0 0.8 0  0 0.7666666666666666 0  0 0.7333333333333334 0  0 0.7 0  0 0.6666666666666667 0  0 0.6333333333333333 0  0 0.6 0  0 0.5666666666666667 0  0 0.5333333333333333 0  0 0.5 0  0 0.4666666666666667 0  0 0.4333333333333333 0  0 0.4 0  0 0.3666666666666667 0  0 0.3333333333333334 0  0 0.3 0  0 0.2666666666666667 0  0 0.2333333333333333 0  0 0.2 0  0 0.1666666666666666 0  0 0.1333333333333333 0  0 0.09999999999999998 0  0 0.06666666666666665 0  0 0.03333333333333333 0  1 0.03333333333333333 0  1 0.06666666666666667 0  1 0.1 0  1 0.1333333333333333 0  1 0.1666666666666667 0  1 0.2 0  1 0.2333333333333333 0  1 0.2666666666666667 0  1 0.3 0  1 0.3333333333333333 0  1 0.3666666666666666 0  1 0.4 0  1 0.4333333333333333 0  1 0.4666666666666667 0  1 0.5 0  1 0.5333333333333333 0  1 0.5666666666666667 0  1 0.6 0  1 0.6333333333333333 0  1 0.6666666666666666 0  1 0.7 0  1 0.7333333333333333 0  1 0.7666666666666667 0  1 0.8 0  1 0.8333333333333334 0  1 0.8666666666666667 0  1 0.9 0  1 0.9333333333333333 0  1 0.9666666666666667 0  0.9666666666666667 1 0  0.9333333333333333 1 0  0.9 1 0  0.8666666666666667 1 0  0.8333333333333334 1 0  0.8 1 0  0.7666666666666666 1 0  0.7333333333333334 1 0  0.7 1 0  0.6666666666666667 1 0  0.6333333333333333 1 0  0.6 1 0  0.5666666666666667 1 0  0.5333333333333333 1 0  0.5 1 0  0.4666666666666667 1 0  0.4333333333333333 1 0  0.4 1 0  0.3666666666666667 1 0  0.3333333333333334 1 0  0.3 1 0  0.2666666666666667 1 0  0.2333333333333333 1 0  0.2 1 0  0.1666666666666666 1 0  0.1333333333333333 1 0  0.09999999999999998 1 0  0.06666666666666665 1 0  0.03333333333333333 1 0  0.6247072676344306 0.2689501343248463 0  0.6239274716502419 0.2788583817523955 0  0.6226301867455355 0.2887122389026952 0  0.6208189686880621 0.2984846970382296 0  0.6184987819006211 0.3081489705305245 0  0.6156759858539226 0.317678570277693 0  0.6123583176357204 0.3270473763092224 0  0.6085548707439923 0.3362297093789981 0  0.6042760701622942 0.3452004013503318 0  0.5995336437856049 0.3539348641800754 0  0.5943405902749808 0.3624091573127375 0  0.5887111434291297 0.3706000532998825 0  0.582660733170558 0.3784851014649517 0  0.5762059432532257 0.3860426894390078 0  0.5693644658076293 0.3932521023987353 0  0.5621550528479018 0.4000935798443317 0  0.5545974648738458 0.4065483697616639 0  0.5467124167087765 0.4125987800202355 0  0.5385215207216315 0.4182282268660866 0  0.5300472275889694 0.4234212803767108 0  0.5213127647592257 0.4281637067534002 0  0.512342072787892 0.4324425073350981 0  0.5031597397181163 0.4362459542268262 0  0.493790933686587 0.4395636224450283 0  0.4842613339394185 0.4423864184917269 0  0.4745970604471235 0.4447066052791678 0  0.4648246023115891 0.4465178233366412 0  0.4549707451612894 0.4478151082413475 0  0.4450624977337403 0.4485949042255363 0  0.4351270178464268 0.4488550739226177 0  0.4251915379591132 0.4485949042255363 0  0.4152832905315641 0.4478151082413475 0  0.4054294333812644 0.4465178233366411 0  0.39565697524573 0.4447066052791677 0  0.385992701753435 0.4423864184917267 0  0.3764631020062665 0.4395636224450281 0  0.3670942959747371 0.4362459542268259 0  0.3579119629049616 0.4324425073350978 0  0.3489412709336278 0.4281637067533998 0  0.3402068081038843 0.4234212803767103 0  0.3317325149712221 0.4182282268660862 0  0.3235416189840771 0.412598780020235 0  0.3156565708190078 0.4065483697616634 0  0.3080989828449519 0.4000935798443311 0  0.3008895698852244 0.3932521023987346 0  0.2940480924396279 0.3860426894390071 0  0.2875933025222958 0.3784851014649511 0  0.2815428922637242 0.3706000532998818 0  0.2759134454178731 0.3624091573127368 0  0.2707203919072489 0.3539348641800746 0  0.2659779655305596 0.3452004013503309 0  0.2616991649488616 0.3362297093789972 0  0.2578957180571336 0.3270473763092215 0  0.2545780498389315 0.3176785702776921 0  0.251755253792233 0.3081489705305236 0  0.249435067004792 0.2984846970382286 0  0.2476238489473186 0.2887122389026941 0  0.2463265640426123 0.2788583817523945 0  0.2455467680584236 0.2689501343248454 0  0.2452865983613423 0.2590146544375318 0  0.2455467680584237 0.2490791745502182 0  0.2463265640426126 0.2391709271226692 0  0.247623848947319 0.2293170699723696 0  0.2494350670047924 0.2195446118368351 0  0.2517552537922335 0.2098803383445402 0  0.2545780498389321 0.2003507385973717 0  0.2578957180571343 0.1909819325658423 0  0.2616991649488624 0.1817995994960667 0  0.2659779655305604 0.172828907524733 0  0.2707203919072498 0.1640944446949895 0  0.2759134454178741 0.1556201515623273 0  0.2815428922637251 0.1474292555751825 0  0.2875933025222969 0.1395442074101132 0  0.2940480924396291 0.1319866194360571 0  0.3008895698852256 0.1247772064763297 0  0.3080989828449531 0.1179357290307334 0  0.3156565708190092 0.1114809391134012 0  0.3235416189840785 0.1054305288548295 0  0.3317325149712236 0.09980108200897844 0  0.3402068081038856 0.0946080284983544 0  0.3489412709336291 0.08986560212166514 0  0.357911962904963 0.08558680153996717 0  0.3670942959747386 0.08178335464823916 0  0.3764631020062678 0.07846568643003712 0  0.3859927017534364 0.0756428903833386 0  0.3956569752457313 0.0733227035958976 0  0.4054294333812659 0.07151148553842429 0  0.4152832905315654 0.07021420063371797 0  0.4251915379591144 0.0694344046495293 0  0.435127017846428 0.0691742349524479 0  0.4450624977337415 0.06943440464952938 0  0.4549707451612905 0.07021420063371814 0  0.4648246023115901 0.07151148553842454 0  0.4745970604471245 0.07332270359589793 0  0.4842613339394195 0.07564289038333902 0  0.4937909336865879 0.07846568643003757 0  0.5031597397181173 0.0817833546482398 0  0.5123420727878929 0.08558680153996781 0  0.5213127647592265 0.08986560212166581 0  0.53004722758897 0.0946080284983552 0  0.5385215207216321 0.09980108200897933 0  0.5467124167087771 0.1054305288548305 0  0.5545974648738462 0.1114809391134021 0  0.5621550528479023 0.1179357290307343 0  0.5693644658076298 0.1247772064763308 0  0.576205943253226 0.1319866194360582 0  0.5826607331705582 0.1395442074101142 0  0.5887111434291299 0.1474292555751835 0  0.594340590274981 0.1556201515623285 0  0.5995336437856051 0.1640944446949906 0  0.6042760701622945 0.172828907524734 0  0.6085548707439925 0.1817995994960678 0  0.6123583176357205 0.1909819325658435 0  0.6156759858539227 0.2003507385973728 0  0.6184987819006211 0.2098803383445412 0  0.6208189686880622 0.2195446118368362 0  0.6226301867455355 0.2293170699723706 0  0.6239274716502419 0.2391709271226702 0  0.6247072676344306 0.2490791745502192 0  0.203885768735257 0.3325402459548524 0  0.2015714905276826 0.3421799084407872 0  0.1977777294810124 0.3513388578120612 0  0.1925979005829864 0.3597915703383434 0  0.1861595484119405 0.3673299121842922 0  0.1786212065659918 0.373768264355338 0  0.1701684940397096 0.378948093253364 0  0.1610095446684356 0.3827418543000342 0  0.1513698821825007 0.3850561325076086 0  0.1414868670645144 0.3858339426659677 0  0.1316038519465281 0.3850561325076086 0  0.1219641894605933 0.3827418543000343 0  0.1128052400893193 0.378948093253364 0  0.1043525275630371 0.3737682643553381 0  0.09681418571708833 0.3673299121842922 0  0.09037583354604248 0.3597915703383434 0  0.08519600464801645 0.3513388578120612 0  0.08140224360134621 0.3421799084407872 0  0.07908796539377183 0.3325402459548523 0  0.07831015523541281 0.3226572308368659 0  0.07908796539377186 0.3127742157188796 0  0.08140224360134626 0.3031345532329447 0  0.08519600464801655 0.2939756038616707 0  0.0903758335460426 0.2855228913353884 0  0.0968141857
[...]
<PointData  Vectors="$u$"> 
<DataArray  type="Float64"  Name="$u$"  NumberOfComponents="3" format="ascii">1.2746571584192583e-05 2.2883737841023266e-05 0.0000000000000000e+00  0.0000000000000000e+00 0.0000000000000000e+00 0.0000000000000000e+00  -2.8025264398760654e-05 0.0000000000000000e+00 0.0000000000000000e+00  -2.6657557828493740e-06 2.5000000000000001e-04 0.0000000000000000e+00  -3.1921527581389107e-05 2.5000000000000001e-04 0.0000000000000000e+00  -4.5485274569609367e-05 5.8751555526671384e-05 0.0000000000000000e+00  4.6814893065860707e-05 3.8010943912182767e-05 0.0000000000000000e+00  4.1244154020093968e-05 7.0139473964657615e-05 0.0000000000000000e+00  -2.4196423004349362e-05 9.0225353511490190e-06 0.0000000000000000e+00  -3.7718128601606734e-05 1.7067851309363000e-06 0.0000000000000000e+00  -4.2993907095270371e-05 1.0076053063533930e-05 0.0000000000000000e+00  -6.4058509738055875e-06 9.6997222063358024e-05 0.0000000000000000e+00  -1.1096148786604873e-04 7.9152821071053138e-05 0.0000000000000000e+00  -1.7671783995025906e-05 1.5318202220356825e-04 0.0000000000000000e+00  -1.4377832796564006e-05 1.3749243556092627e-04 0.0000000000000000e+00  3.4742343806794924e-05 2.3608528825647837e-04 0.0000000000000000e+00  1.4101841872146861e-05 2.0169774769936648e-04 0.0000000000000000e+00  -1.7053095469554714e-05 2.3928734002931395e-04 0.0000000000000000e+00  -1.1227877164405432e-04 1.3096133720147016e-04 0.0000000000000000e+00  -9.0334149514564052e-05 1.7204949715976490e-04 0.0000000000000000e+00  -6.2002093518729240e-05 2.2629107988236845e-04 0.0000000000000000e+00  -5.6257530063727578e-05 2.2063108281190446e-04 0.0000000000000000e+00  1.6706175300904742e-05 2.6675562710350163e-05 0.0000000000000000e+00  2.0858596302356423e-05 3.0197549519894617e-05 0.0000000000000000e+00  2.4426995914266707e-05 3.2975503284032229e-05 0.0000000000000000e+00  2.6995119198509439e-05 3.4429384815728706e-05 0.0000000000000000e+00  2.8274857308689443e-05 3.3604086440324346e-05 0.0000000000000000e+00  2.8381620929704838e-05 3.0623284497962787e-05 0.0000000000000000e+00  2.7556844294060759e-05 2.6294553302418235e-05 0.0000000000000000e+00  2.5431065682453845e-05 2.2742627367752665e-05 0.0000000000000000e+00  2.2482762102585333e-05 2.0556136384092958e-05 0.0000000000000000e+00  1.9482200577879234e-05 1.9164929748672293e-05 0.0000000000000000e+00  1.6473073466588535e-05 1.7697513479293949e-05 0.0000000000000000e+00  1.3756017319289290e-05 1.6114077506495507e-05 0.0000000000000000e+00  1.1245714093785722e-05 1.4381218590650473e-05 0.0000000000000000e+00  9.1100276753467513e-06 1.2815371050339988e-05 0.0000000000000000e+00  7.3944894350164316e-06 1.1692977689110476e-05 0.0000000000000000e+00  6.2426934127641006e-06 1.1183408133658117e-05 0.0000000000000000e+00  5.5438656001752479e-06 1.1417373289050970e-05 0.0000000000000000e+00  5.4449337468917812e-06 1.2377288648816195e-05 0.0000000000000000e+00  5.9705657651979197e-06 1.4152144573838201e-05 0.0000000000000000e+00  7.3346810133575833e-06 1.6497570721916732e-05 0.0000000000000000e+00  9.3694037732172805e-06 1.9452575275883106e-05 0.0000000000000000e+00  0.0000000000000000e+00 0.0000000000000000e+00 0.0000000000000000e+00  -1.9334452554777257e-06 0.0000000000000000e+00 0.0000000000000000e+00  -3.2387696907199341e-06 0.0000000000000000e+00 0.0000000000000000e+00  -4.2854280805000348e-06 0.0000000000000000e+00 0.0000000000000000e+00  -5.1748240596548193e-06 0.0000000000000000e+00 0.0000000000000000e+00  -5.9116711930530155e-06 0.0000000000000000e+00 0.0000000000000000e+00  -6.5310838460997026e-06 0.0000000000000000e+00 0.0000000000000000e+00  -7.0700306027637907e-06 0.0000000000000000e+00 0.0000000000000000e+00  -7.5093455391892801e-06 0.0000000000000000e+00 0.0000000000000000e+00  -7.7828368722037252e-06 0.0000000000000000e+00 0.0000000000000000e+00  -8.0427379535623342e-06 0.0000000000000000e+00 0.0000000000000000e+00  -8.3920855510212134e-06 0.0000000000000000e+00 0.0000000000000000e+00  -8.8429266445515584e-06 0.0000000000000000e+00 0.0000000000000000e+00  -9.3938174828045427e-06 0.0000000000000000e+00 0.0000000000000000e+00  -1.0081127618248562e-05 0.0000000000000000e+00 0.0000000000000000e+00  -1.1194492457498076e-05 0.0000000000000000e+00 0.0000000000000000e+00  -1.2886483440552552e-05 0.0000000000000000e+00 0.0000000000000000e+00  -1.5126709685925148e-05 0.0000000000000000e+00 0.0000000000000000e+00  -1.6822840566729322e-05 0.0000000000000000e+00 0.0000000000000000e+00  -1.8375564602928466e-05 0.0000000000000000e+00 0.0000000000000000e+00  -2.0291054989017164e-05 0.0000000000000000e+00 0.0000000000000000e+00  -2.1549637957304584e-05 0.0000000000000000e+00 0.0000000000000000e+00  -2.1913628016610834e-05 0.0000000000000000e+00 0.0000000000000000e+00  -2.1888647765141864e-05 0.0000000000000000e+00 0.0000000000000000e+00  -2.1924856350559693e-05 0.0000000000000000e+00 0.0000000000000000e+00  -2.2329371248736758e-05 0.0000000000000000e+00 0.0000000000000000e+00  -2.3014685256946290e-05 0.0000000000000000e+00 0.0000000000000000e+00  -2.4316874195508109e-05 0.0000000000000000e+00 0.0000000000000000e+00  -2.6010937351400268e-05 0.0000000000000000e+00 0.0000000000000000e+00  -2.1325467230280204e-06 2.4260415427994125e-04 0.0000000000000000e+00  -6.9826189924693235e-07 2.3517689788193192e-04 0.0000000000000000e+00  1.8774495074482599e-06 2.2745757028752738e-04 0.0000000000000000e+00  5.6632523336934738e-06 2.1962862496791052e-04 0.0000000000000000e+00  1.0772981189072275e-05 2.1151778747302607e-04 0.0000000000000000e+00  1.7153732170380205e-05 2.0320332105917677e-04 0.0000000000000000e+00  2.5011452226509026e-05 1.9457689923738824e-04 0.0000000000000000e+00  3.4296050171849909e-05 1.8528665676063985e-04 0.0000000000000000e+00  4.5575513207616523e-05 1.7516090262293334e-04 0.0000000000000000e+00  6.0116617871481990e-05 1.6450103837647035e-04 0.0000000000000000e+00  7.7422650220423177e-05 1.5459423156705154e-04 0.0000000000000000e+00  9.5325115101342479e-05 1.4644210870815065e-04 0.0000000000000000e+00  1.0732333561001781e-04 1.4219218153306123e-04 0.0000000000000000e+00  1.0798072480910613e-04 1.3866018700132448e-04 0.0000000000000000e+00  9.8094262337656033e-05 1.3254465474982297e-04 0.0000000000000000e+00  8.5049745036372431e-05 1.2236535208762006e-04 0.0000000000000000e+00  7.5526225098847976e-05 1.0955412107471135e-04 0.0000000000000000e+00  6.9161488259992385e-05 9.8091588251005137e-05 0.0000000000000000e+00  5.7562479181564154e-05 8.7557999830603945e-05 0.0000000000000000e+00  4.7382795337283494e-05 7.6031582317922022e-05 0.0000000000000000e+00  3.9673141540908454e-05 6.6805979505621410e-05 0.0000000000000000e+00  3.2170559962095069e-05 5.8660664033974282e-05 0.0000000000000000e+00  2.4968861427906893e-05 5.0971521958380140e-05 0.0000000000000000e+00  1.8507671243285779e-05 4.3397372553827799e-05 0.0000000000000000e+00  1.3023553631893951e-05 3.5966267230894464e-05 0.0000000000000000e+00  8.6595738689311515e-06 2.8527039048827217e-05 0.0000000000000000e+00  5.4214992215215098e-06 2.1224226141130441e-05 0.0000000000000000e+00  3.2078391908993852e-06 1.4002510483311791e-05 0.0000000000000000e+00  1.8498452290482514e-06 7.0213762711195301e-06 0.0000000000000000e+00  -2.8576770417331607e-05 7.7346063967130462e-06 0.0000000000000000e+00  -3.0159896727580361e-05 1.5433697995382666e-05 0.0000000000000000e+00  -3.2922341065068685e-05 2.3391897770229181e-05 0.0000000000000000e+00  -3.6981843207676578e-05 3.1753748102049925e-05 0.0000000000000000e+00  -4.2535464235347990e-05 4.0345227511338728e-05 0.0000000000000000e+00  -4.9838923124042213e-05 4.9396720545852204e-05 0.0000000000000000e+00  -5.9419869390094029e-05 5.8851030715267226e-05 0.0000000000000000e+00  -7.1165933032086434e-05 6.8332482961868464e-05 0.0000000000000000e+00  -8.5140942148003549e-05 7.7109179909413711e-05 0.0000000000000000e+00  -9.9709041482920591e-05 8.4405270421895382e-05 0.0000000000000000e+00  -1.1151000987723501e-04 8.9793943408288948e-05 0.0000000000000000e+00  -1.1814271298550547e-04 9.4709739356156245e-05 0.0000000000000000e+00  -1.1926267262376300e-04 1.0043542671715128e-04 0.0000000000000000e+00  -1.1809757388243153e-04 1.0941609391325568e-04 0.0000000000000000e+00  -1.1885759651181693e-04 1.2006807716629781e-04 0.0000000000000000e+00  -1.0930979954389639e-04 1.3060848830230015e-04 0.0000000000000000e+00  -9.7790432613464363e-05 1.4635204262726954e-04 0.0000000000000000e+00  -9.5678068633411428e-05 1.5862209345620163e-04 0.0000000000000000e+00  -9.2004795464303648e-05 1.6647166267847482e-04 0.0000000000000000e+00  -8.3008754214597950e-05 1.7360566188408773e-04 0.0000000000000000e+00  -7.2625418168692182e-05 1.8158258461798755e-04 0.0000000000000000e+00  -6.3213063249622261e-05 1.8975959239634922e-04 0.0000000000000000e+00  -5.5012846984089074e-05 1.9783646779143838e-04 0.0000000000000000e+00  -4.8188957520845612e-05 2.0591282571813221e-04 0.0000000000000000e+00  -4.2830369697301887e-05 2.1376003892052670e-04 0.0000000000000000e+00  -3.8713013517453202e-05 2.2129194590147215e-04 0.0000000000000000e+00  -3.5690007070783932e-05 2.2865167419544610e-04 0.0000000000000000e+00  -3.3615454708360384e-05 2.3586781052154955e-04 0.0000000000000000e+00  -3.2401697234319797e-05 2.4290447657010695e-04 0.0000000000000000e+00  -3.0018368164240684e-05 2.5000000000000001e-04 0.0000000000000000e+00  -2.8293003279768548e-05 2.5000000000000001e-04 0.0000000000000000e+00  -2.6852340229473860e-05 2.5000000000000001e-04 0.0000000000000000e+00  -2.5687399882572276e-05 2.5000000000000001e-04 0.0000000000000000e+00  -2.4685502520518065e-05 2.5000000000000001e-04 0.0000000000000000e+00  -2.3830217202381485e-05 2.5000000000000001e-04 0.0000000000000000e+00  -2.3138256323584348e-05 2.5000000000000001e-04 0.0000000000000000e+00  -2.2639280275092849e-05 2.5000000000000001e-04 0.0000000000000000e+00  -2.2315841806880912e-05 2.5000000000000001e-04 0.0000000000000000e+00  -2.2101440862765332e-05 2.5000000000000001e-04 0.0000000000000000e+00  -2.1810118304326194e-05 2.5000000000000001e-04 0.0000000000000000e+00  -2.1393632117276532e-05 2.5000000000000001e-04 0.0000000000000000e+00  -2.0855533897055556e-05 2.5000000000000001e-04 0.0000000000000000e+00  -2.0255766868649622e-05 2.5000000000000001e-04 0.0000000000000000e+00  -1.9633934362013569e-05 2.5000000000000001e-04 0.0000000000000000e+00  -1.8853506155483626e-05 2.5000000000000001e-04 0.0000000000000000e+00  -1.7809964071036071e-05 2.5000000000000001e-04 0.0000000000000000e+00  -1.6284070114356993e-05 2.5000000000000001e-04 0.0000000000000000e+00  -1.4466698210671776e-05 2.5000000000000001e-04 0.0000000000000000e+00  -1.2890112761754554e-05 2.5000000000000001e-04 0.0000000000000000e+00  -1.1894327709290012e-05 2.5000000000000001e-04 0.0000000000000000e+00  -1.1009621577637648e-05 2.5000000000000001e-04 0.0000000000000000e+00  -9.9360683473378070e-06 2.5000000000000001e-04 0.0000000000000000e+00  -9.1530122361169221e-06 2.5000000000000001e-04 0.0000000000000000e+00  -8.7102192516941330e-06 2.5000000000000001e-04 0.0000000000000000e+00  -8.1769341938382512e-06 2.5000000000000001e-04 0.0000000000000000e+00  -7.4450172948187761e-06 2.5000000000000001e-04 0.0000000000000000e+00  -6.2738537468639913e-06 2.5000000000000001e-04 0.0000000000000000e+00  -4.6025130870413319e-06 2.5000000000000001e-04 0.0000000000000000e+00  -4.3292864322129254e-05 6.2819426151041426e-05 0.0000000000000000e+00  -4.0745774674292024e-05 6.6613823099385193e-05 0.0000000000000000e+00  -3.7821660796659730e-05 7.0336100759283918e-05 0.0000000000000000e+00  -3.4672981833235180e-05 7.3926943825584185e-05 0.0000000000000000e+00  -3.1396484045097667e-05 7.7458398662325471e-05 0.0000000000000000e+00  -2.8030572318344315e-05 8.0781487110648663e-05 0.0000000000000000e+00  -2.4736970154141099e-05 8.3799107803554727e-05 0.0000000000000000e+00  -2.1649067465049093e-05 8.6472364761270703e-05 0.0000000000000000e+00  -1.8864016333712890e-05 8.8706334125484009e-05 0.0000000000000000e+00  -1.6598081646795694e-05 9.0488235689927541e-05 0.0000000000000000e+00  -1.4866377686062471e-05 9.1849231128925726e-05 0.0000000000000000e+00  -1.3743095156161481e-05 9.2814261875865729e-05 0.0000000000000000e+00  -1.3277311609013771e-05 9.3452354214612976e-05 0.0000000000000000e+00  -1.3468980948265874e-05 9.3909703291046627e-05 0.0000000000000000e+00  -1.4265849745395279e-05 9.4233411447037686e-05 0.0000000000000000e+00  -1.5575822286127514e-05 9.4665474878228594e-05 0.0000000000000000e+00  -1.7211071847042881e-05 9.5400586668680827e-05 0.0000000000000000e+00  -1.8937632389485354e-05 9.6568105942809255e-05 0.0000000000000000e+00  -2.0580917858149500e-05 9.8220740710357597e-05 0.0000000000000000e+00  -2.1958454982123851e-05 1.0030744519642617e-04 0.0000000000000000e+00  -2.3171445365663940e-05 1.0283221814582516e-04 0.0000000000000000e+00  -2.4091470687248953e-05 1.0572294075278805e-04 0.0000000000000000e+00  -2.4724423451603239e-05 1.0892539023240407e-04 0.0000000000000000e+00  -2.5071281727815618e-05 1.1232013634822063e-04 0.0000000000000000e+00  -2.5141528606486120e-05 1.1582386850823498e-04 0.0000000000000000e+00  -2.4955434624142307e-05 1.1932198051872118e-04 0.0000000000000000e+00  -2.4541613126471917e-05 1.2272650233493177e-04 0.0000000000000000e+00  -2.3965236546029226e-05 1.2590559776567428e-04 0.0000000000000000e+00  -2.3250310177681584e-05 1.2884226069688701e-04 0.0000000000000000e+00  -2.2424867262820486e-05 1.3150328723865939e-04 0.0000000000000000e+00  -2.1488129742544224e-05 1.3389088391155371e-04 0.0000000000000000e+00  -2.0394018370767013e-05 1.3602671438836750e-04 0.0000000000000000e+00  -1.9071522189879971e-05 1.3789150252466718e-04 0.0000000000000000e+00  -1.7358301021275335e-05 1.3938602236439459e-04 0.0000000000000000e+00  -1.5111201326346075e-05 1.4029395828028831e-04 0.0000000000000000e+00  -1.2267772718768793e-05 1.4041934383759476e-04 0.0000000000000000e+00  -8.8200321350029481e-06 1.3958360967013866e-04 0.0000000000000000e+00  -4.7689817337791756e-06 1.3772325673286164e-04 0.0000000000000000e+00  -1.2348028766739769e-07 1.3476653944604198e-04 0.0000000000000000e+00  5.0718985765641117e-06 1.3067881391493538e-04 0.0000000000000000e+00  1.0653011706301962e-05 1.2545207401797111e-04 0.0000000000000000e+00  1.6496438225137377e-05 1.1912508221321357e-04 0.0000000000000000e+00  2.2273429334719853e-05 1.1190604165464468e-04 0.0000000000000000e+00  2.7822865364405228e-05 1.0402516572602926e-04 0.0000000000000000e+00  3.2819371749164104e-05 9.5801015705885323e-05 0.0000000000000000e+00  3.7001198857263799e-05 8.7447837184712821e-05 0.0000000000000000e+00  4.0427608893558808e-05 7.9590700235069949e-05 0.0000000000000000e+00  4.3016514328595660e-05 7.2223118161474342e-05 0.0000000000000000e+00  4.4842132514087033e-05 6.5484999396823882e-05 0.0000000000000000e+00  4.6001743653817584e-05 5.9375443455255074e-05 0.0000000000000000e+00  4.6572265191615508e-05 5.3824637754411955e-05 0.0000000000000000e+00  4.6572020493950071e-05 4.8760784094319333e-05 0.0000000000000000e+00  4.6000907781432591e-05 4.4104140063569050e-05 0.0000000000000000e+00  4.4774666481464780e-05 3.9835671778659969e-05 0.0000000000000000e+00  4.2927814334354476e-05 3.5882998350814040e-05 0.0000000000000000e+00  4.0496423296449277e-05 3.2284644203401484e-05 0.0000000000000000e+00  3.7655038084125085e-05 2.9097980668786742e-05 0.0000000000000000e+00  3.4659448038434229e-05 2.6255781047769099e-05 0.0000000000000000e+00  3.1578597380673277e-05 2.3572188902768344e-05 0.0000000000000000e+00  2.8375218116042252e-05 2.0923546429365852e-05 0.0000000000000000e+00  2.4942339669350944e-05 1.8201759053264868e-05 0.0000000000000000e+00  2.1219164336508965e-05 1.5586488298524610e-05 0.0000000000000000e+00  1.7329610371636819e-05 1.3251606548163035e-05 0.0000000000000000e+00  1.3638684212150903e-05 1.1340476400516604e-05 0.0000000000000000e+00  1.0426591548240589e-05 9.8670058652618036e-06 0.0000000000000000e+00  7.8810272317414687e-06 8.6694110067394113e-06 0.0000000000000000e+00  5.9164638723153938e-06 7.6111426000038779e-06 0.0000000000000000e+00  4.3811680533795094e-06 6.6057733572209343e-06 0.0000000000000000e+00  3.1148576161201965e-06 5.6241080258386667e-06 0.0000000000000000e+00  1.9979015387833079e-06 4.6811668334750047e-06 0.0000000000000000e+00  9.6806592044487942e-07 3.7994170396139982e-06 0.0000000000000000e+00  5.3098254070244408e-09 3.0020519297256299e-06 0.0000000000000000e+00  -9.0769445364897674e-07 2.2964310045663160e-06 0.0000000000000000e+00  -1.7816576815006006e-06 1.6978438928448424e-06 0.0000000000000000e+00  -2.5812492731793667e-06 1.2043814632354953e-06 0.0000000000000000e+00  -3.3210365389136401e-06 8.0163942676944214e-07 0.0000000000000000e+00  -4.0070053775822041e-06 4.8296561231661113e-07 0.0000000000000000e+00  -4.6280621488118516e-06 2.5082678852487966e-07 0.0000000000000000e+00  -5.2038542186645185e-06 9.3768112310442703e-08 0.0000000000000000e+00  -5.7207887006603829e-06 -1.0628554330604725e-08 0.0000000000000000e+00  -6.1783514146892326e-06 -7.2464377219757177e-08 0.0000000000000000e+00  -6.5967130855133306e-06 -8.5637402750354569e-08 0.0000000000000000e+00  -6.9740838774540992e-06 -6.7046915573315892e-08 0.0000000000000000e+00  -7.3171583711039808e-06 -3.1364964951472532e-08 0.0000000000000000e+00  -7.6372182865946815e-06 6.9859554105821269e-09 0.0000000000000000e+00  -7.9373586529691200e-06 5.5448838148124434e-08 0.0000000000000000e+00  -8.2270475583395104e-06 1.0561514115840710e-07 0.0000000000000000e+00  -8.5061697158655452e-06 1.4181335186308145e-07 0.0000000000000000e+00  -8.7802309781915503e-06 1.8693145660774228e-07 0.0000000000000000e+00  -9.0534868056038990e-06 2.3825716151605404e-07 0.0000000000000000e+00  -9.3361146455360981e-06 2.9422345839775751e-07 0.0000000000000000e+00  -9.6251369205375149e-06 3.6476377625236418e-07 0.0000000000000000e+00  -9.9064885829348874e-06 4.4805764166016612e-07 0.0000000000000000e+00  -1.0197144124737953e-05 5.7183738416511409e-07 0.0000000000000000e+00  -1.0482330167095914e-05 7.3801825381918378e-07 0.0000000000000000e+00  -1.0754865901045255e-05 9.5506737965359191e-07 0.0000000000000000e+00  -1.0999441389706770e-05 1.2201722340556169e-06 0.0000000000000000e+00  -1.1210829409013507e-05 1.5281716897971674e-06 0.0000000000000000e+00  -1.1403380062075440e-05 1.8904417790080483e-06 0.0000000000000000e+00  -1.1576911572355400e-05 2.2831148576814615e-06 0.0000000000000000e+00  -1.1773715583287487e-05 2.7098025572607461e-06 0.0000000000000000e+00  -1.2050019798881606e-05 3.1797119532032619e-06 0.0000000000000000e+00  -1.2534990948427833e-05 3.7282492993550114e-06 0.0000000000000000e+00  -1.3371513045876539e-05 4.4368230192012468e-06 0.0000000000000000e+00  -1.4703778056445863e-05 5.4749340215377308e-06 0.0000000000000000e+00  -1.6514314250188064e-05 7.0126090603463897e-06 0.0000000000000000e+00  -1.8799758991739027e-05 9.0793411992426543e-06 0.0000000000000000e+00  -2.1289093650889143e-05 1.1599090743691665e-05 0.0000000000000000e+00  -2.3882058720851253e-05 1.4343230987988322e-05 0.0000000000000000e+00  -2.6649984571711596e-05 1.7144473790567872e-05 0.0000000000000000e+00  -2.9727615891942493e-05 2.0004997473169905e-05 0.0000000000000000e+00  -3.3226343190087795e-05 2.3101121843466409e-05 0.0000000000000000e+00  -3.7019209753922130e-05 2.6658698728637376e-05 0.0000000000000000e+00  -4.0731456972973405e-05 3.0753967784660708e-05 0.0000000000000000e+00  -4.3952050969796243e-05 3.5360437081795806e-05 0.0000000000000000e+00  -4.6311588486490825e-05 4.0247658812364129e-05 0.0000000000000000e+00  -4.7638625274208082e-05 4.5128592101305240e-05 0.0000000000000000e+00  -4.7825667689682545e-05 4.9906383565059041e-05 0.0000000000000000e+00  -4.7051871261608196e-05 5.4450216483043848e-05 0.0000000000000000e+00  4.7217735670949356e-05 3.8099971782652553e-05 0.0000000000000000e+00  4.6542830920218179e-05 3.7626247540678733e-05 0.0000000000000000e+00  4.4846082939676595e-05 3.6776442142921134e-05 0.0000000000000000e+00  4.2439264227160650e-05 3.5867