<?xml version="1.0"?>
<VTKFile type="UnstructuredGrid"  version="0.1"  >
<UnstructuredGrid>
<Piece  NumberOfPoints="3879" NumberOfCells="6881">
<Points>
<DataArray  type="Float64"  NumberOfComponents="3"  format="ascii">0.207524190028372 0.2122422770132111 0  0 0 0  1 0 0  0 1 0  1 1 0  0.6249674373315121 0.2590146544375328 0  0.204663578893616 0.322657230836866 0  0.09605577522599912 0.4018360776629776 0  0.671351124618251 0.08738059142081528 0  0.7842102907526436 0.1666439122351055 0  0.8512483166984784 0.1985391006160637 0  0.6418797837909295 0.4423157172830166 0  0.9292488447973215 0.3869277868069776 0  0.3197896119137055 0.5509935221980964 0  0.3979283685568406 0.5079871620336583 0  0.1572503457993085 0.7345153245035532 0  0.3032914287999163 0.7872981443735918 0  0.3549464687598876 0.8870324161721976 0  0.9691791685505482 0.5159450047798622 0  0.9447564590470373 0.6146164845729313 0  0.7687603548175107 0.7176858127488035 0  0.8926159261971183 0.7422924070424508 0  0.2061587782631535 0.2217389244366831 0  0.2021731605082994 0.2304662099646423 0  0.1958902278109265 0.2377171008267789 0  0.1878189860121365 0.2429041729681512 0  0.1786133191209442 0.2456072006525708 0  0.1690190155206647 0.2456072006525708 0  0.1598133486294724 0.2429041729681512 0  0.1517421068306824 0.2377171008267789 0  0.1454591741333096 0.2304662099646422 0  0.1414735563784554 0.221738924436683 0  0.1401081446132369 0.212242277013211 0  0.1414735563784555 0.202745629589739 0  0.1454591741333096 0.1940183440617798 0  0.1517421068306825 0.1867674531996431 0  0.1598133486294725 0.1815803810582709 0  0.1690190155206649 0.1788773533738513 0  0.1786133191209443 0.1788773533738514 0  0.1878189860121367 0.181580381058271 0  0.1958902278109266 0.1867674531996433 0  0.2021731605082994 0.19401834406178 0  0.2061587782631535 0.2027456295897391 0  0.03333333333333333 0 0  0.06666666666666667 0 0  0.1 0 0  0.1333333333333333 0 0  0.1666666666666667 0 0  0.2 0 0  0.2333333333333333 0 0  0.2666666666666667 0 0  0.3 0 0  0.3333333333333333 0 0  0.3666666666666666 0 0  0.4 0 0  0.4333333333333333 0 0  0.4666666666666667 0 0  0.5 0 0  0.5333333333333333 0 0  0.5666666666666667 0 0  0.6 0 0  0.6333333333333333 0 0  0.6666666666666666 0 0  0.7 0 0  0.7333333333333333 0 0  0.7666666666666667 0 0  0.8 0 0  0.8333333333333334 0 0  0.8666666666666667 0 0  0.9 0 0  0.9333333333333333 0 0  0.9666666666666667 0 0  0 0.9666666666666667 0  0 0.9333333333333333 0  0 0.9 0  0 0.8666666666666667 0  0 0.8333333333333334 0  0 0.8 0  0 0.7666666666666666 0  0 0.7333333333333334 0  0 0.7 0  0 0.6666666666666667 0  0 0.6333333333333333 0  0 0.6 0  0 0.5666666666666667 0  0 0.5333333333333333 0  0 0.5 0  0 0.4666666666666667 0  0 0.4333333333333333 0  0 0.4 0  0 0.3666666666666667 0  0 0.3333333333333334 0  0 0.3 0  0 0.2666666666666667 0  0 0.2333333333333333 0  0 0.2 0  0 0.1666666666666666 0  0 0.1333333333333333 0  0 0.09999999999999998 0  0 0.06666666666666665 0  0 0.03333333333333333 0  1 0.03333333333333333 0  1 0.06666666666666667 0  1 0.1 0  1 0.1333333333333333 0  1 0.1666666666666667 0  1 0.2 0  1 0.2333333333333333 0  1 0.2666666666666667 0  1 0.3 0  1 0.3333333333333333 0  1 0.3666666666666666 0  1 0.4 0  1 0.4333333333333333 0  1 0.4666666666666667 0  1 0.5 0  1 0.5333333333333333 0  1 0.5666666666666667 0  1 0.6 0  1 0.6333333333333333 0  1 0.6666666666666666 0  1 0.7 0  1 0.7333333333333333 0  1 0.7666666666666667 0  1 0.8 0  1 0.8333333333333334 0  1 0.8666666666666667 0  1 0.9 0  1 0.9333333333333333 0  1 0.9666666666666667 0  0.9666666666666667 1 0  0.9333333333333333 1 0  0.9 1 0  0.8666666666666667 1 0  0.8333333333333334 1 0  0.8 1 0  0.7666666666666666 1 0  0.7333333333333334 1 0  0.7 1 0  0.6666666666666667 1 0  0.6333333333333333 1 0  0.6 1 0  0.5666666666666667 1 0  0.5333333333333333 1 0  0.5 1 0  0.4666666666666667 1 0  0.4333333333333333 1 0  0.4 1 0  0.3666666666666667 1 0  0.3333333333333334 1 0  0.3 1 0  0.2666666666666667 1 0  0.2333333333333333 1 0  0.2 1 0  0.1666666666666666 1 0  0.1333333333333333 1 0  0.09999999999999998 1 0  0.06666666666666665 1 0  0.03333333333333333 1 0  0.6247072676344306 0.2689501343248463 0  0.6239274716502419 0.2788583817523955 0  0.6226301867455355 0.2887122389026952 0  0.6208189686880621 0.2984846970382296 0  0.6184987819006211 0.3081489705305245 0  0.6156759858539226 0.317678570277693 0  0.6123583176357204 0.3270473763092224 0  0.6085548707439923 0.3362297093789981 0  0.6042760701622942 0.3452004013503318 0  0.5995336437856049 0.3539348641800754 0  0.5943405902749808 0.3624091573127375 0  0.5887111434291297 0.3706000532998825 0  0.582660733170558 0.3784851014649517 0  0.5762059432532257 0.3860426894390078 0  0.5693644658076293 0.3932521023987353 0  0.5621550528479018 0.4000935798443317 0  0.5545974648738458 0.4065483697616639 0  0.5467124167087765 0.4125987800202355 0  0.5385215207216315 0.4182282268660866 0  0.5300472275889694 0.4234212803767108 0  0.5213127647592257 0.4281637067534002 0  0.512342072787892 0.4324425073350981 0  0.5031597397181163 0.4362459542268262 0  0.493790933686587 0.4395636224450283 0  0.4842613339394185 0.4423864184917269 0  0.4745970604471235 0.4447066052791678 0  0.4648246023115891 0.4465178233366412 0  0.4549707451612894 0.4478151082413475 0  0.4450624977337403 0.4485949042255363 0  0.4351270178464268 0.4488550739226177 0  0.4251915379591132 0.4485949042255363 0  0.4152832905315641 0.4478151082413475 0  0.4054294333812644 0.4465178233366411 0  0.39565697524573 0.4447066052791677 0  0.385992701753435 0.4423864184917267 0  0.3764631020062665 0.4395636224450281 0  0.3670942959747371 0.4362459542268259 0  0.3579119629049616 0.4324425073350978 0  0.3489412709336278 0.4281637067533998 0  0.3402068081038843 0.4234212803767103 0  0.3317325149712221 0.4182282268660862 0  0.3235416189840771 0.412598780020235 0  0.3156565708190078 0.4065483697616634 0  0.3080989828449519 0.4000935798443311 0  0.3008895698852244 0.3932521023987346 0  0.2940480924396279 0.3860426894390071 0  0.2875933025222958 0.3784851014649511 0  0.2815428922637242 0.3706000532998818 0  0.2759134454178731 0.3624091573127368 0  0.2707203919072489 0.3539348641800746 0  0.2659779655305596 0.3452004013503309 0  0.2616991649488616 0.3362297093789972 0  0.2578957180571336 0.3270473763092215 0  0.2545780498389315 0.3176785702776921 0  0.251755253792233 0.3081489705305236 0  0.249435067004792 0.2984846970382286 0  0.2476238489473186 0.2887122389026941 0  0.2463265640426123 0.2788583817523945 0  0.2455467680584236 0.2689501343248454 0  0.2452865983613423 0.2590146544375318 0  0.2455467680584237 0.2490791745502182 0  0.2463265640426126 0.2391709271226692 0  0.247623848947319 0.2293170699723696 0  0.2494350670047924 0.2195446118368351 0  0.2517552537922335 0.2098803383445402 0  0.2545780498389321 0.2003507385973717 0  0.2578957180571343 0.1909819325658423 0  0.2616991649488624 0.1817995994960667 0  0.2659779655305604 0.172828907524733 0  0.2707203919072498 0.1640944446949895 0  0.2759134454178741 0.1556201515623273 0  0.2815428922637251 0.1474292555751825 0  0.2875933025222969 0.1395442074101132 0  0.2940480924396291 0.1319866194360571 0  0.3008895698852256 0.1247772064763297 0  0.3080989828449531 0.1179357290307334 0  0.3156565708190092 0.1114809391134012 0  0.3235416189840785 0.1054305288548295 0  0.3317325149712236 0.09980108200897844 0  0.3402068081038856 0.0946080284983544 0  0.3489412709336291 0.08986560212166514 0  0.357911962904963 0.08558680153996717 0  0.3670942959747386 0.08178335464823916 0  0.3764631020062678 0.07846568643003712 0  0.3859927017534364 0.0756428903833386 0  0.3956569752457313 0.0733227035958976 0  0.4054294333812659 0.07151148553842429 0  0.4152832905315654 0.07021420063371797 0  0.4251915379591144 0.0694344046495293 0  0.435127017846428 0.0691742349524479 0  0.4450624977337415 0.06943440464952938 0  0.4549707451612905 0.07021420063371814 0  0.4648246023115901 0.07151148553842454 0  0.4745970604471245 0.07332270359589793 0  0.4842613339394195 0.07564289038333902 0  0.4937909336865879 0.07846568643003757 0  0.5031597397181173 0.0817833546482398 0  0.5123420727878929 0.08558680153996781 0  0.5213127647592265 0.08986560212166581 0  0.53004722758897 0.0946080284983552 0  0.5385215207216321 0.09980108200897933 0  0.5467124167087771 0.1054305288548305 0  0.5545974648738462 0.1114809391134021 0  0.5621550528479023 0.1179357290307343 0  0.5693644658076298 0.1247772064763308 0  0.576205943253226 0.1319866194360582 0  0.5826607331705582 0.1395442074101142 0  0.5887111434291299 0.1474292555751835 0  0.594340590274981 0.1556201515623285 0  0.5995336437856051 0.1640944446949906 0  0.6042760701622945 0.172828907524734 0  0.6085548707439925 0.1817995994960678 0  0.6123583176357205 0.1909819325658435 0  0.6156759858539227 0.2003507385973728 0  0.6184987819006211 0.2098803383445412 0  0.6208189686880622 0.2195446118368362 0  0.6226301867455355 0.2293170699723706 0  0.6239274716502419 0.2391709271226702 0  0.6247072676344306 0.2490791745502192 0  0.203885768735257 0.3325402459548524 0  0.2015714905276826 0.3421799084407872 0  0.1977777294810124 0.3513388578120612 0  0.1925979005829864 0.3597915703383434 0  0.1861595484119405 0.3673299121842922 0  0.1786212065659918 0.373768264355338 0  0.1701684940397096 0.378948093253364 0  0.1610095446684356 0.3827418543000342 0  0.1513698821825007 0.3850561325076086 0  0.1414868670645144 0.3858339426659677 0  0.1316038519465281 0.3850561325076086 0  0.1219641894605933 0.3827418543000343 0  0.1128052400893193 0.378948093253364 0  0.1043525275630371 0.3737682643553381 0  0.09681418571708833 0.3673299121842922 0  0.09037583354604248 0.3597915703383434 0  0.08519600464801645 0.3513388578120612 0  0.08140224360134621 0.3421799084407872 0  0.07908796539377183 0.3325402459548523 0  0.07831015523541281 0.3226572308368659 0  0.07908796539377186 0.3127742157188796 0  0.08140224360134626 0.3031345532329447 0  0.08519600464801655 0.2939756038616707 0  0.0903758335460426 0.2855228913353884 0  0.0968141857
[...]
<PointData  Vectors="$u$"> 
<DataArray  type="Float64"  Name="$u$"  NumberOfComponents="3" format="ascii">4.0707818463266398e-04 7.7280179053284864e-04 0.0000000000000000e+00  0.0000000000000000e+00 0.0000000000000000e+00 0.0000000000000000e+00  -1.0720036755945172e-03 0.0000000000000000e+00 0.0000000000000000e+00  -1.2876757068413253e-04 9.0000000000000011e-03 0.0000000000000000e+00  -1.2288454686924031e-03 9.0000000000000011e-03 0.0000000000000000e+00  -1.6901433666539907e-03 2.3259271141064463e-03 0.0000000000000000e+00  1.7822757886172124e-03 1.2867311901541506e-03 0.0000000000000000e+00  1.5034805635726041e-03 2.1613859642925933e-03 0.0000000000000000e+00  -9.6611036571295640e-04 2.7061292600361183e-04 0.0000000000000000e+00  -1.4146992764070248e-03 5.1696793474567426e-06 0.0000000000000000e+00  -1.6056664602468644e-03 2.1369086471173467e-04 0.0000000000000000e+00  1.2289873052144282e-04 3.6090477783024318e-03 0.0000000000000000e+00  -4.0409309394890654e-03 2.2412177468860029e-03 0.0000000000000000e+00  -4.5187005141514574e-04 5.4669800105820480e-03 0.0000000000000000e+00  -3.1218676450209845e-04 4.9039678410384858e-03 0.0000000000000000e+00  1.4955898904591637e-03 8.7000539729208039e-03 0.0000000000000000e+00  6.8212205695913561e-04 7.0658089504497326e-03 0.0000000000000000e+00  -6.7552677494362942e-04 8.6210457989458252e-03 0.0000000000000000e+00  -4.3274190534085795e-03 4.2640004000009443e-03 0.0000000000000000e+00  -3.0562053332559777e-03 6.6391311202759346e-03 0.0000000000000000e+00  -2.1888184680190579e-03 8.2096119515906556e-03 0.0000000000000000e+00  -2.0121238550937144e-03 8.1969120604690297e-03 0.0000000000000000e+00  5.4654908517855433e-04 9.1627379539216468e-04 0.0000000000000000e+00  6.9652781114387804e-04 1.0436925156104763e-03 0.0000000000000000e+00  8.3014085831208053e-04 1.1556328174281562e-03 0.0000000000000000e+00  9.3534409393681954e-04 1.2042971250573371e-03 0.0000000000000000e+00  1.0191357489056686e-03 1.1823383124759078e-03 0.0000000000000000e+00  1.0370174533016181e-03 1.0504020548848711e-03 0.0000000000000000e+00  1.0146683825570020e-03 8.5774317338462957e-04 0.0000000000000000e+00  9.2125035701830010e-04 6.9001715577068955e-04 0.0000000000000000e+00  8.0168939780889787e-04 5.9209964342567538e-04 0.0000000000000000e+00  6.9453127033172887e-04 5.5051914897660771e-04 0.0000000000000000e+00  5.8236344758498928e-04 4.9512658607352308e-04 0.0000000000000000e+00  4.8239632832809757e-04 4.5471287381886180e-04 0.0000000000000000e+00  3.9214457124786030e-04 4.0406229611873170e-04 0.0000000000000000e+00  3.1567158674167343e-04 3.6019675475599747e-04 0.0000000000000000e+00  2.4658880771872904e-04 3.3392622206299057e-04 0.0000000000000000e+00  2.0105495484328884e-04 3.2558856714641515e-04 0.0000000000000000e+00  1.6886476458484313e-04 3.3972763455801362e-04 0.0000000000000000e+00  1.5846552664583371e-04 3.7767431657808925e-04 0.0000000000000000e+00  1.7779699265150416e-04 4.4032172357933748e-04 0.0000000000000000e+00  2.1647945428186598e-04 5.2344412379028539e-04 0.0000000000000000e+00  2.9817408628355420e-04 6.3566872144538351e-04 0.0000000000000000e+00  0.0000000000000000e+00 0.0000000000000000e+00 0.0000000000000000e+00  -8.1716209286609312e-05 0.0000000000000000e+00 0.0000000000000000e+00  -1.0809863883845178e-04 0.0000000000000000e+00 0.0000000000000000e+00  -1.4452283752837945e-04 0.0000000000000000e+00 0.0000000000000000e+00  -1.6790521682133596e-04 0.0000000000000000e+00 0.0000000000000000e+00  -1.9338456644778029e-04 0.0000000000000000e+00 0.0000000000000000e+00  -2.1514118091214152e-04 0.0000000000000000e+00 0.0000000000000000e+00  -2.3735429803638095e-04 0.0000000000000000e+00 0.0000000000000000e+00  -2.5550241184602539e-04 0.0000000000000000e+00 0.0000000000000000e+00  -2.7033854059842726e-04 0.0000000000000000e+00 0.0000000000000000e+00  -2.8476235933702035e-04 0.0000000000000000e+00 0.0000000000000000e+00  -3.0322650450539701e-04 0.0000000000000000e+00 0.0000000000000000e+00  -3.2488564882280740e-04 0.0000000000000000e+00 0.0000000000000000e+00  -3.4999288461924161e-04 0.0000000000000000e+00 0.0000000000000000e+00  -3.8063223930055897e-04 0.0000000000000000e+00 0.0000000000000000e+00  -4.2729847181850007e-04 0.0000000000000000e+00 0.0000000000000000e+00  -4.9966803800922867e-04 0.0000000000000000e+00 0.0000000000000000e+00  -5.9529661624520725e-04 0.0000000000000000e+00 0.0000000000000000e+00  -6.6575020377893752e-04 0.0000000000000000e+00 0.0000000000000000e+00  -7.2540778031793935e-04 0.0000000000000000e+00 0.0000000000000000e+00  -8.0449045679520056e-04 0.0000000000000000e+00 0.0000000000000000e+00  -8.5995297615761056e-04 0.0000000000000000e+00 0.0000000000000000e+00  -8.7960708671613213e-04 0.0000000000000000e+00 0.0000000000000000e+00  -8.8581944873540315e-04 0.0000000000000000e+00 0.0000000000000000e+00  -8.8809323150440891e-04 0.0000000000000000e+00 0.0000000000000000e+00  -9.0206494943973067e-04 0.0000000000000000e+00 0.0000000000000000e+00  -9.2063719109858821e-04 0.0000000000000000e+00 0.0000000000000000e+00  -9.5841494181607737e-04 0.0000000000000000e+00 0.0000000000000000e+00  -1.0089305499485382e-03 0.0000000000000000e+00 0.0000000000000000e+00  -1.1229764035854673e-04 8.7526426091729687e-03 0.0000000000000000e+00  -5.6290489849269517e-05 8.5042542002383478e-03 0.0000000000000000e+00  3.6977521780280185e-05 8.2462997078436677e-03 0.0000000000000000e+00  1.7861486306569206e-04 7.9827347856008413e-03 0.0000000000000000e+00  3.6705661859587769e-04 7.7116604586798601e-03 0.0000000000000000e+00  6.0852212141470079e-04 7.4289161117156192e-03 0.0000000000000000e+00  9.0595627142944475e-04 7.1373286810829323e-03 0.0000000000000000e+00  1.2649576011260462e-03 6.8130297110234163e-03 0.0000000000000000e+00  1.7202758689496157e-03 6.4593013274161582e-03 0.0000000000000000e+00  2.2973250567328274e-03 6.0702110375022321e-03 0.0000000000000000e+00  3.0265197230047751e-03 5.6723330282992378e-03 0.0000000000000000e+00  3.8843830183022607e-03 5.3238229779518200e-03 0.0000000000000000e+00  4.7387411793040285e-03 5.1370760780362597e-03 0.0000000000000000e+00  4.6720650351805481e-03 5.2472356570768654e-03 0.0000000000000000e+00  3.8430484768682584e-03 4.9813297362871741e-03 0.0000000000000000e+00  3.1934912641365392e-03 4.5571523699699246e-03 0.0000000000000000e+00  2.9894344391077575e-03 3.6938733165239033e-03 0.0000000000000000e+00  2.6924850943922229e-03 3.1971166687073576e-03 0.0000000000000000e+00  2.1667719221950673e-03 2.9017563739323882e-03 0.0000000000000000e+00  1.6830217182580234e-03 2.4403347552192610e-03 0.0000000000000000e+00  1.3935766749990546e-03 2.1362881977329880e-03 0.0000000000000000e+00  1.1079324781488660e-03 1.8727050716023359e-03 0.0000000000000000e+00  8.5071526837154096e-04 1.6268487651655641e-03 0.0000000000000000e+00  6.2252554847160512e-04 1.3849865430576205e-03 0.0000000000000000e+00  4.3165548078372259e-04 1.1479218072008462e-03 0.0000000000000000e+00  2.8040130853391191e-04 9.0622951706595986e-04 0.0000000000000000e+00  1.6959696977976611e-04 6.7760081550029792e-04 0.0000000000000000e+00  9.3401362078030355e-05 4.3827237682942782e-04 0.0000000000000000e+00  6.1115877789039738e-05 2.2871523468226906e-04 0.0000000000000000e+00  -1.0871410421029952e-03 2.3360826356144446e-04 0.0000000000000000e+00  -1.1411544966473308e-03 4.7174362285231112e-04 0.0000000000000000e+00  -1.2318841137812109e-03 7.1510078529032743e-04 0.0000000000000000e+00  -1.3668625383486087e-03 9.6955046460345240e-04 0.0000000000000000e+00  -1.5535539459957737e-03 1.2376100717795286e-03 0.0000000000000000e+00  -1.8040306886846749e-03 1.5191346956783590e-03 0.0000000000000000e+00  -2.1235004406937397e-03 1.8074907311441399e-03 0.0000000000000000e+00  -2.5266196192555391e-03 2.1089687382771522e-03 0.0000000000000000e+00  -3.0132319151891722e-03 2.3899196987482063e-03 0.0000000000000000e+00  -3.5464565007638587e-03 2.6216557068460006e-03 0.0000000000000000e+00  -4.0327790384372354e-03 2.7690401494283113e-03 0.0000000000000000e+00  -4.3335810880541148e-03 2.8532832231980779e-03 0.0000000000000000e+00  -4.4032878059477127e-03 2.9682826207646129e-03 0.0000000000000000e+00  -4.3742444033810536e-03 3.2541252523730557e-03 0.0000000000000000e+00  -4.9136582925485691e-03 4.0072967708986102e-03 0.0000000000000000e+00  -4.8073075418925840e-03 4.0224128475134660e-03 0.0000000000000000e+00  -3.0048109338966619e-03 6.2552980576543278e-03 0.0000000000000000e+00  -3.1939070572758483e-03 6.5363091916729029e-03 0.0000000000000000e+00  -3.1790492935089834e-03 6.6318254352094640e-03 0.0000000000000000e+00  -2.8822062502684986e-03 6.7721404007278132e-03 0.0000000000000000e+00  -2.5269405441031650e-03 6.9841520364477237e-03 0.0000000000000000e+00  -2.2140785768228967e-03 7.2263539933384449e-03 0.0000000000000000e+00  -1.9493376513474423e-03 7.4623279141850431e-03 0.0000000000000000e+00  -1.7295652035648010e-03 7.6987019907519749e-03 0.0000000000000000e+00  -1.5600563764032165e-03 7.9329794544990735e-03 0.0000000000000000e+00  -1.4346422263879768e-03 8.1567633389415372e-03 0.0000000000000000e+00  -1.3425010545994372e-03 8.3730511681309530e-03 0.0000000000000000e+00  -1.2791778939198204e-03 8.5832355210961608e-03 0.0000000000000000e+00  -1.2402261413991310e-03 8.7921394968594972e-03 0.0000000000000000e+00  -1.1719155884382488e-03 9.0000000000000011e-03 0.0000000000000000e+00  -1.1203547867453716e-03 9.0000000000000011e-03 0.0000000000000000e+00  -1.0777461231542941e-03 9.0000000000000011e-03 0.0000000000000000e+00  -1.0405495255796551e-03 9.0000000000000011e-03 0.0000000000000000e+00  -1.0072773661543163e-03 9.0000000000000011e-03 0.0000000000000000e+00  -9.7574933525680662e-04 9.0000000000000011e-03 0.0000000000000000e+00  -9.4806351181114020e-04 9.0000000000000011e-03 0.0000000000000000e+00  -9.2635364898057716e-04 9.0000000000000011e-03 0.0000000000000000e+00  -9.0731312479559289e-04 9.0000000000000011e-03 0.0000000000000000e+00  -8.9339370669905293e-04 9.0000000000000011e-03 0.0000000000000000e+00  -8.7480081751727589e-04 9.0000000000000011e-03 0.0000000000000000e+00  -8.5326977203071717e-04 9.0000000000000011e-03 0.0000000000000000e+00  -8.2673788661589954e-04 9.0000000000000011e-03 0.0000000000000000e+00  -7.9803944634438990e-04 9.0000000000000011e-03 0.0000000000000000e+00  -7.6903591990298923e-04 9.0000000000000011e-03 0.0000000000000000e+00  -7.3409787616027071e-04 9.0000000000000011e-03 0.0000000000000000e+00  -6.8925592061993245e-04 9.0000000000000011e-03 0.0000000000000000e+00  -6.2605100652935830e-04 9.0000000000000011e-03 0.0000000000000000e+00  -5.5172201795179276e-04 9.0000000000000011e-03 0.0000000000000000e+00  -4.8722502410882337e-04 9.0000000000000011e-03 0.0000000000000000e+00  -4.4746716646248161e-04 9.0000000000000011e-03 0.0000000000000000e+00  -4.1337672219656695e-04 9.0000000000000011e-03 0.0000000000000000e+00  -3.7301068290749039e-04 9.0000000000000011e-03 0.0000000000000000e+00  -3.4216881629956262e-04 9.0000000000000011e-03 0.0000000000000000e+00  -3.2758348660246627e-04 9.0000000000000011e-03 0.0000000000000000e+00  -3.0923414793135524e-04 9.0000000000000011e-03 0.0000000000000000e+00  -2.8708955210227305e-04 9.0000000000000011e-03 0.0000000000000000e+00  -2.4910422472858979e-04 9.0000000000000011e-03 0.0000000000000000e+00  -1.9452405032203127e-04 9.0000000000000011e-03 0.0000000000000000e+00  -1.5892035304273450e-03 2.4573919512802223e-03 0.0000000000000000e+00  -1.4740793043381193e-03 2.5847185764408093e-03 0.0000000000000000e+00  -1.3466445339940958e-03 2.7147799214414336e-03 0.0000000000000000e+00  -1.2121875786273593e-03 2.8388712928389473e-03 0.0000000000000000e+00  -1.0718902835820862e-03 2.9652268453241016e-03 0.0000000000000000e+00  -9.2856382760377173e-04 3.0828857732455011e-03 0.0000000000000000e+00  -7.8757105660777471e-04 3.1904164143598322e-03 0.0000000000000000e+00  -6.5621938085010708e-04 3.2872193558532957e-03 0.0000000000000000e+00  -5.3543945928385083e-04 3.3690434288903854e-03 0.0000000000000000e+00  -4.3335335990403386e-04 3.4340502142076843e-03 0.0000000000000000e+00  -3.5150954514809204e-04 3.4853922134099893e-03 0.0000000000000000e+00  -2.9195286992643070e-04 3.5212270708734369e-03 0.0000000000000000e+00  -2.5760673386912645e-04 3.5456876110094545e-03 0.0000000000000000e+00  -2.4670635568490554e-04 3.5609112649330576e-03 0.0000000000000000e+00  -2.6090830588475277e-04 3.5685310963040231e-03 0.0000000000000000e+00  -2.9856277900433862e-04 3.5802064335862102e-03 0.0000000000000000e+00  -3.4961451798269774e-04 3.6024997734171896e-03 0.0000000000000000e+00  -4.0531896533555677e-04 3.6405424585079049e-03 0.0000000000000000e+00  -4.5854499417839463e-04 3.6963824900015868e-03 0.0000000000000000e+00  -5.0422415465836473e-04 3.7648586052316810e-03 0.0000000000000000e+00  -5.4332338548528482e-04 3.8477247744863382e-03 0.0000000000000000e+00  -5.7385606631785103e-04 3.9405073108996422e-03 0.0000000000000000e+00  -5.9581217103872207e-04 4.0419469865862956e-03 0.0000000000000000e+00  -6.0967155817054277e-04 4.1492363901416574e-03 0.0000000000000000e+00  -6.1518871511226023e-04 4.2588354822096167e-03 0.0000000000000000e+00  -6.1384356464027744e-04 4.3676405695478584e-03 0.0000000000000000e+00  -6.0468761487024653e-04 4.4721770157375666e-03 0.0000000000000000e+00  -5.9221013939956006e-04 4.5695705995802390e-03 0.0000000000000000e+00  -5.7558192345571536e-04 4.6592564869597586e-03 0.0000000000000000e+00  -5.5612602152648979e-04 4.7405959949519908e-03 0.0000000000000000e+00  -5.3440491146772046e-04 4.8139788906851463e-03 0.0000000000000000e+00  -5.0695513834219958e-04 4.8817697355235251e-03 0.0000000000000000e+00  -4.7023502671017498e-04 4.9410239318469773e-03 0.0000000000000000e+00  -4.1826277888223825e-04 4.9896160302430916e-03 0.0000000000000000e+00  -3.4148018409122974e-04 5.0166854988512128e-03 0.0000000000000000e+00  -2.4071142161727753e-04 5.0108377921439648e-03 0.0000000000000000e+00  -1.1649259412674874e-04 4.9672323008271221e-03 0.0000000000000000e+00  2.9177738949423141e-05 4.8839992563573910e-03 0.0000000000000000e+00  1.9508419990914316e-04 4.7618674647410784e-03 0.0000000000000000e+00  3.7889512836816584e-04 4.5988925050371322e-03 0.0000000000000000e+00  5.7555951669707652e-04 4.3980514161665761e-03 0.0000000000000000e+00  7.7969522544140183e-04 4.1606702340630988e-03 0.0000000000000000e+00  9.7949075879610360e-04 3.8956811714259409e-03 0.0000000000000000e+00  1.1706679511223246e-03 3.6116196733319344e-03 0.0000000000000000e+00  1.3453014577684110e-03 3.3205716747335026e-03 0.0000000000000000e+00  1.4932092141533679e-03 3.0293021272709921e-03 0.0000000000000000e+00  1.6155552370024232e-03 2.7607959899437059e-03 0.0000000000000000e+00  1.6909809679271544e-03 2.5002781632440193e-03 0.0000000000000000e+00  1.7367470942007252e-03 2.2504022710110915e-03 0.0000000000000000e+00  1.7671171629543140e-03 2.0185681908098962e-03 0.0000000000000000e+00  1.7799177093035762e-03 1.8060576800569444e-03 0.0000000000000000e+00  1.7661097193692845e-03 1.6150609525611888e-03 0.0000000000000000e+00  1.7292180000667721e-03 1.4293831220820537e-03 0.0000000000000000e+00  1.6678538590751237e-03 1.2553904272247431e-03 0.0000000000000000e+00  1.5954953557907878e-03 1.0994338007905527e-03 0.0000000000000000e+00  1.4963317434811805e-03 9.8263105326563006e-04 0.0000000000000000e+00  1.3761851524129157e-03 8.8893351327687354e-04 0.0000000000000000e+00  1.2521650509033022e-03 8.0521385038260281e-04 0.0000000000000000e+00  1.1273722061887117e-03 7.2277568427705694e-04 0.0000000000000000e+00  1.0010303214309144e-03 6.4123389978441674e-04 0.0000000000000000e+00  8.6984741515409240e-04 5.5641786289373359e-04 0.0000000000000000e+00  7.2908256129200336e-04 4.7025736161776500e-04 0.0000000000000000e+00  5.8254035129287477e-04 3.9939363082864291e-04 0.0000000000000000e+00  4.4668811117885875e-04 3.4159457511271621e-04 0.0000000000000000e+00  3.3205225711989986e-04 3.0215031647553382e-04 0.0000000000000000e+00  2.4479102483378906e-04 2.6921580483866197e-04 0.0000000000000000e+00  1.8041682738294851e-04 2.4150478194106300e-04 0.0000000000000000e+00  1.3226645592990955e-04 2.1132184929683606e-04 0.0000000000000000e+00  9.3364422260404508e-05 1.8173092408870972e-04 0.0000000000000000e+00  5.8654084243720064e-05 1.5112282601480648e-04 0.0000000000000000e+00  2.6663817580420888e-05 1.2344656799090760e-04 0.0000000000000000e+00  -3.9432097497787844e-06 9.7106858804564818e-05 0.0000000000000000e+00  -3.3547184862037620e-05 7.4860547876637245e-05 0.0000000000000000e+00  -6.1537126022878430e-05 5.4947181202017273e-05 0.0000000000000000e+00  -8.8568941531730710e-05 3.9398630548747626e-05 0.0000000000000000e+00  -1.1370273725062477e-04 2.6105087346245161e-05 0.0000000000000000e+00  -1.3739942616121739e-04 1.6574555461010955e-05 0.0000000000000000e+00  -1.5929225412224135e-04 9.2247943601619197e-06 0.0000000000000000e+00  -1.7926018483614808e-04 4.2650007519434868e-06 0.0000000000000000e+00  -1.9822325917930289e-04 1.3283518976741187e-06 0.0000000000000000e+00  -2.1513347310418333e-04 5.5803150331898814e-09 0.0000000000000000e+00  -2.3114011636380310e-04 -2.1466592918790331e-07 0.0000000000000000e+00  -2.4564427680344485e-04 4.7625676732809221e-07 0.0000000000000000e+00  -2.5949423692911514e-04 1.6709176417572929e-06 0.0000000000000000e+00  -2.7233937540367345e-04 3.2314891712264984e-06 0.0000000000000000e+00  -2.8496996977560258e-04 4.8209517737584947e-06 0.0000000000000000e+00  -2.9707002593625469e-04 6.5188569185464423e-06 0.0000000000000000e+00  -3.0906108569402627e-04 8.0744368244238780e-06 0.0000000000000000e+00  -3.2107744309916707e-04 9.6933021581699550e-06 0.0000000000000000e+00  -3.3322572215414251e-04 1.1417290281616553e-05 0.0000000000000000e+00  -3.4556298967653869e-04 1.3545825378308281e-05 0.0000000000000000e+00  -3.5779895877865255e-04 1.6187935986248430e-05 0.0000000000000000e+00  -3.7045026009048358e-04 1.9727181201996566e-05 0.0000000000000000e+00  -3.8304927398496015e-04 2.5007851167252884e-05 0.0000000000000000e+00  -3.9464998035928313e-04 3.1615269265313972e-05 0.0000000000000000e+00  -4.0613440498262133e-04 4.0364530426903702e-05 0.0000000000000000e+00  -4.1553559317805119e-04 5.1084683091877978e-05 0.0000000000000000e+00  -4.2373684800199525e-04 6.3682357952492182e-05 0.0000000000000000e+00  -4.3029130762258573e-04 7.7866649844222287e-05 0.0000000000000000e+00  -4.3479554996359731e-04 9.3628646559781929e-05 0.0000000000000000e+00  -4.4012236212596397e-04 1.0930675016494621e-04 0.0000000000000000e+00  -4.4597409477822511e-04 1.2668670054103215e-04 0.0000000000000000e+00  -4.6323505591638675e-04 1.4231859236094244e-04 0.0000000000000000e+00  -4.9118666836903808e-04 1.6724425471680829e-04 0.0000000000000000e+00  -5.4472248472707421e-04 1.9830841558801443e-04 0.0000000000000000e+00  -6.1898434319473527e-04 2.5253419675508505e-04 0.0000000000000000e+00  -7.1625575085769964e-04 3.2822101458488610e-04 0.0000000000000000e+00  -8.2351743488256611e-04 4.2527596062809055e-04 0.0000000000000000e+00  -9.3752767223079562e-04 5.3414763913495113e-04 0.0000000000000000e+00  -1.0551242101641399e-03 6.4657985150861621e-04 0.0000000000000000e+00  -1.1865584351587197e-03 7.5945373516843578e-04 0.0000000000000000e+00  -1.3275784794641696e-03 8.8345407433810662e-04 0.0000000000000000e+00  -1.4768250518975813e-03 1.0189188555858324e-03 0.0000000000000000e+00  -1.6197426653021521e-03 1.1696626686981677e-03 0.0000000000000000e+00  -1.7400769151949933e-03 1.3316532762389051e-03 0.0000000000000000e+00  -1.7848376374241766e-03 1.5240668241331709e-03 0.0000000000000000e+00  -1.7989843785425053e-03 1.7481415623184016e-03 0.0000000000000000e+00  -1.7843571709769315e-03 1.9721779498058766e-03 0.0000000000000000e+00  -1.7545883125702991e-03 2.1655550968717823e-03 0.0000000000000000e+00  1.8210467149922809e-03 1.2735000865349046e-03 0.0000000000000000e+00  1.8111534872259649e-03 1.2393803987766517e-03 0.0000000000000000e+00  1.7576813578758133e-03 1.1902669135530517e-03 0.0000000000000000e+00  1.6715470553934346e-03 1.1407502545