<?xml version="1.0"?>
<VTKFile type="UnstructuredGrid"  version="0.1"  >
<UnstructuredGrid>
<Piece  NumberOfPoints="3879" NumberOfCells="6881">
<Points>
<DataArray  type="Float64"  NumberOfComponents="3"  format="ascii">0.207524190028372 0.2122422770132111 0  0 0 0  1 0 0  0 1 0  1 1 0  0.6249674373315121 0.2590146544375328 0  0.204663578893616 0.322657230836866 0  0.09605577522599912 0.4018360776629776 0  0.671351124618251 0.08738059142081528 0  0.7842102907526436 0.1666439122351055 0  0.8512483166984784 0.1985391006160637 0  0.6418797837909295 0.4423157172830166 0  0.9292488447973215 0.3869277868069776 0  0.3197896119137055 0.5509935221980964 0  0.3979283685568406 0.5079871620336583 0  0.1572503457993085 0.7345153245035532 0  0.3032914287999163 0.7872981443735918 0  0.3549464687598876 0.8870324161721976 0  0.9691791685505482 0.5159450047798622 0  0.9447564590470373 0.6146164845729313 0  0.7687603548175107 0.7176858127488035 0  0.8926159261971183 0.7422924070424508 0  0.2061587782631535 0.2217389244366831 0  0.2021731605082994 0.2304662099646423 0  0.1958902278109265 0.2377171008267789 0  0.1878189860121365 0.2429041729681512 0  0.1786133191209442 0.2456072006525708 0  0.1690190155206647 0.2456072006525708 0  0.1598133486294724 0.2429041729681512 0  0.1517421068306824 0.2377171008267789 0  0.1454591741333096 0.2304662099646422 0  0.1414735563784554 0.221738924436683 0  0.1401081446132369 0.212242277013211 0  0.1414735563784555 0.202745629589739 0  0.1454591741333096 0.1940183440617798 0  0.1517421068306825 0.1867674531996431 0  0.1598133486294725 0.1815803810582709 0  0.1690190155206649 0.1788773533738513 0  0.1786133191209443 0.1788773533738514 0  0.1878189860121367 0.181580381058271 0  0.1958902278109266 0.1867674531996433 0  0.2021731605082994 0.19401834406178 0  0.2061587782631535 0.2027456295897391 0  0.03333333333333333 0 0  0.06666666666666667 0 0  0.1 0 0  0.1333333333333333 0 0  0.1666666666666667 0 0  0.2 0 0  0.2333333333333333 0 0  0.2666666666666667 0 0  0.3 0 0  0.3333333333333333 0 0  0.3666666666666666 0 0  0.4 0 0  0.4333333333333333 0 0  0.4666666666666667 0 0  0.5 0 0  0.5333333333333333 0 0  0.5666666666666667 0 0  0.6 0 0  0.6333333333333333 0 0  0.6666666666666666 0 0  0.7 0 0  0.7333333333333333 0 0  0.7666666666666667 0 0  0.8 0 0  0.8333333333333334 0 0  0.8666666666666667 0 0  0.9 0 0  0.9333333333333333 0 0  0.9666666666666667 0 0  0 0.9666666666666667 0  0 0.9333333333333333 0  0 0.9 0  0 0.8666666666666667 0  0 0.8333333333333334 0  0 0.8 0  0 0.7666666666666666 0  0 0.7333333333333334 0  0 0.7 0  0 0.6666666666666667 0  0 0.6333333333333333 0  0 0.6 0  0 0.5666666666666667 0  0 0.5333333333333333 0  0 0.5 0  0 0.4666666666666667 0  0 0.4333333333333333 0  0 0.4 0  0 0.3666666666666667 0  0 0.3333333333333334 0  0 0.3 0  0 0.2666666666666667 0  0 0.2333333333333333 0  0 0.2 0  0 0.1666666666666666 0  0 0.1333333333333333 0  0 0.09999999999999998 0  0 0.06666666666666665 0  0 0.03333333333333333 0  1 0.03333333333333333 0  1 0.06666666666666667 0  1 0.1 0  1 0.1333333333333333 0  1 0.1666666666666667 0  1 0.2 0  1 0.2333333333333333 0  1 0.2666666666666667 0  1 0.3 0  1 0.3333333333333333 0  1 0.3666666666666666 0  1 0.4 0  1 0.4333333333333333 0  1 0.4666666666666667 0  1 0.5 0  1 0.5333333333333333 0  1 0.5666666666666667 0  1 0.6 0  1 0.6333333333333333 0  1 0.6666666666666666 0  1 0.7 0  1 0.7333333333333333 0  1 0.7666666666666667 0  1 0.8 0  1 0.8333333333333334 0  1 0.8666666666666667 0  1 0.9 0  1 0.9333333333333333 0  1 0.9666666666666667 0  0.9666666666666667 1 0  0.9333333333333333 1 0  0.9 1 0  0.8666666666666667 1 0  0.8333333333333334 1 0  0.8 1 0  0.7666666666666666 1 0  0.7333333333333334 1 0  0.7 1 0  0.6666666666666667 1 0  0.6333333333333333 1 0  0.6 1 0  0.5666666666666667 1 0  0.5333333333333333 1 0  0.5 1 0  0.4666666666666667 1 0  0.4333333333333333 1 0  0.4 1 0  0.3666666666666667 1 0  0.3333333333333334 1 0  0.3 1 0  0.2666666666666667 1 0  0.2333333333333333 1 0  0.2 1 0  0.1666666666666666 1 0  0.1333333333333333 1 0  0.09999999999999998 1 0  0.06666666666666665 1 0  0.03333333333333333 1 0  0.6247072676344306 0.2689501343248463 0  0.6239274716502419 0.2788583817523955 0  0.6226301867455355 0.2887122389026952 0  0.6208189686880621 0.2984846970382296 0  0.6184987819006211 0.3081489705305245 0  0.6156759858539226 0.317678570277693 0  0.6123583176357204 0.3270473763092224 0  0.6085548707439923 0.3362297093789981 0  0.6042760701622942 0.3452004013503318 0  0.5995336437856049 0.3539348641800754 0  0.5943405902749808 0.3624091573127375 0  0.5887111434291297 0.3706000532998825 0  0.582660733170558 0.3784851014649517 0  0.5762059432532257 0.3860426894390078 0  0.5693644658076293 0.3932521023987353 0  0.5621550528479018 0.4000935798443317 0  0.5545974648738458 0.4065483697616639 0  0.5467124167087765 0.4125987800202355 0  0.5385215207216315 0.4182282268660866 0  0.5300472275889694 0.4234212803767108 0  0.5213127647592257 0.4281637067534002 0  0.512342072787892 0.4324425073350981 0  0.5031597397181163 0.4362459542268262 0  0.493790933686587 0.4395636224450283 0  0.4842613339394185 0.4423864184917269 0  0.4745970604471235 0.4447066052791678 0  0.4648246023115891 0.4465178233366412 0  0.4549707451612894 0.4478151082413475 0  0.4450624977337403 0.4485949042255363 0  0.4351270178464268 0.4488550739226177 0  0.4251915379591132 0.4485949042255363 0  0.4152832905315641 0.4478151082413475 0  0.4054294333812644 0.4465178233366411 0  0.39565697524573 0.4447066052791677 0  0.385992701753435 0.4423864184917267 0  0.3764631020062665 0.4395636224450281 0  0.3670942959747371 0.4362459542268259 0  0.3579119629049616 0.4324425073350978 0  0.3489412709336278 0.4281637067533998 0  0.3402068081038843 0.4234212803767103 0  0.3317325149712221 0.4182282268660862 0  0.3235416189840771 0.412598780020235 0  0.3156565708190078 0.4065483697616634 0  0.3080989828449519 0.4000935798443311 0  0.3008895698852244 0.3932521023987346 0  0.2940480924396279 0.3860426894390071 0  0.2875933025222958 0.3784851014649511 0  0.2815428922637242 0.3706000532998818 0  0.2759134454178731 0.3624091573127368 0  0.2707203919072489 0.3539348641800746 0  0.2659779655305596 0.3452004013503309 0  0.2616991649488616 0.3362297093789972 0  0.2578957180571336 0.3270473763092215 0  0.2545780498389315 0.3176785702776921 0  0.251755253792233 0.3081489705305236 0  0.249435067004792 0.2984846970382286 0  0.2476238489473186 0.2887122389026941 0  0.2463265640426123 0.2788583817523945 0  0.2455467680584236 0.2689501343248454 0  0.2452865983613423 0.2590146544375318 0  0.2455467680584237 0.2490791745502182 0  0.2463265640426126 0.2391709271226692 0  0.247623848947319 0.2293170699723696 0  0.2494350670047924 0.2195446118368351 0  0.2517552537922335 0.2098803383445402 0  0.2545780498389321 0.2003507385973717 0  0.2578957180571343 0.1909819325658423 0  0.2616991649488624 0.1817995994960667 0  0.2659779655305604 0.172828907524733 0  0.2707203919072498 0.1640944446949895 0  0.2759134454178741 0.1556201515623273 0  0.2815428922637251 0.1474292555751825 0  0.2875933025222969 0.1395442074101132 0  0.2940480924396291 0.1319866194360571 0  0.3008895698852256 0.1247772064763297 0  0.3080989828449531 0.1179357290307334 0  0.3156565708190092 0.1114809391134012 0  0.3235416189840785 0.1054305288548295 0  0.3317325149712236 0.09980108200897844 0  0.3402068081038856 0.0946080284983544 0  0.3489412709336291 0.08986560212166514 0  0.357911962904963 0.08558680153996717 0  0.3670942959747386 0.08178335464823916 0  0.3764631020062678 0.07846568643003712 0  0.3859927017534364 0.0756428903833386 0  0.3956569752457313 0.0733227035958976 0  0.4054294333812659 0.07151148553842429 0  0.4152832905315654 0.07021420063371797 0  0.4251915379591144 0.0694344046495293 0  0.435127017846428 0.0691742349524479 0  0.4450624977337415 0.06943440464952938 0  0.4549707451612905 0.07021420063371814 0  0.4648246023115901 0.07151148553842454 0  0.4745970604471245 0.07332270359589793 0  0.4842613339394195 0.07564289038333902 0  0.4937909336865879 0.07846568643003757 0  0.5031597397181173 0.0817833546482398 0  0.5123420727878929 0.08558680153996781 0  0.5213127647592265 0.08986560212166581 0  0.53004722758897 0.0946080284983552 0  0.5385215207216321 0.09980108200897933 0  0.5467124167087771 0.1054305288548305 0  0.5545974648738462 0.1114809391134021 0  0.5621550528479023 0.1179357290307343 0  0.5693644658076298 0.1247772064763308 0  0.576205943253226 0.1319866194360582 0  0.5826607331705582 0.1395442074101142 0  0.5887111434291299 0.1474292555751835 0  0.594340590274981 0.1556201515623285 0  0.5995336437856051 0.1640944446949906 0  0.6042760701622945 0.172828907524734 0  0.6085548707439925 0.1817995994960678 0  0.6123583176357205 0.1909819325658435 0  0.6156759858539227 0.2003507385973728 0  0.6184987819006211 0.2098803383445412 0  0.6208189686880622 0.2195446118368362 0  0.6226301867455355 0.2293170699723706 0  0.6239274716502419 0.2391709271226702 0  0.6247072676344306 0.2490791745502192 0  0.203885768735257 0.3325402459548524 0  0.2015714905276826 0.3421799084407872 0  0.1977777294810124 0.3513388578120612 0  0.1925979005829864 0.3597915703383434 0  0.1861595484119405 0.3673299121842922 0  0.1786212065659918 0.373768264355338 0  0.1701684940397096 0.378948093253364 0  0.1610095446684356 0.3827418543000342 0  0.1513698821825007 0.3850561325076086 0  0.1414868670645144 0.3858339426659677 0  0.1316038519465281 0.3850561325076086 0  0.1219641894605933 0.3827418543000343 0  0.1128052400893193 0.378948093253364 0  0.1043525275630371 0.3737682643553381 0  0.09681418571708833 0.3673299121842922 0  0.09037583354604248 0.3597915703383434 0  0.08519600464801645 0.3513388578120612 0  0.08140224360134621 0.3421799084407872 0  0.07908796539377183 0.3325402459548523 0  0.07831015523541281 0.3226572308368659 0  0.07908796539377186 0.3127742157188796 0  0.08140224360134626 0.3031345532329447 0  0.08519600464801655 0.2939756038616707 0  0.0903758335460426 0.2855228913353884 0  0.0968141857
[...]
<PointData  Vectors="$u$"> 
<DataArray  type="Float64"  Name="$u$"  NumberOfComponents="3" format="ascii">4.2058516030634357e-04 7.9976938871652021e-04 0.0000000000000000e+00  0.0000000000000000e+00 0.0000000000000000e+00 0.0000000000000000e+00  -1.1339716981858068e-03 0.0000000000000000e+00 0.0000000000000000e+00  -9.5708764465018102e-05 9.4999999999999998e-03 0.0000000000000000e+00  -1.2578595160789646e-03 9.4999999999999998e-03 0.0000000000000000e+00  -1.7843081266721971e-03 2.4997087242842773e-03 0.0000000000000000e+00  1.8634822513261522e-03 1.3343868008227435e-03 0.0000000000000000e+00  1.5552013366750216e-03 2.2279019357401416e-03 0.0000000000000000e+00  -1.0239962357906271e-03 2.7346818615024021e-04 0.0000000000000000e+00  -1.4950610974483771e-03 -8.0077414719839121e-08 0.0000000000000000e+00  -1.6958615898457110e-03 2.0932105512309988e-04 0.0000000000000000e+00  1.8606768148603123e-04 3.8363592935434813e-03 0.0000000000000000e+00  -4.2410464953583750e-03 2.2820327027033333e-03 0.0000000000000000e+00  -4.2623519359704493e-04 5.7735744675089197e-03 0.0000000000000000e+00  -3.0448411401884753e-04 5.1583514986738186e-03 0.0000000000000000e+00  1.6474607758717938e-03 9.2124766630235777e-03 0.0000000000000000e+00  8.0216923271064615e-04 7.4367080380160697e-03 0.0000000000000000e+00  -6.6728730925558991e-04 9.1011598225821978e-03 0.0000000000000000e+00  -4.5807178163457998e-03 4.4740288806598477e-03 0.0000000000000000e+00  -3.1744368142691487e-03 7.0824907806881403e-03 0.0000000000000000e+00  -2.2631450850201492e-03 8.6855531009384437e-03 0.0000000000000000e+00  -2.0794308463911422e-03 8.6847673239424713e-03 0.0000000000000000e+00  5.6309634148646575e-04 9.4944222077706752e-04 0.0000000000000000e+00  7.1948424272632097e-04 1.0816302648579052e-03 0.0000000000000000e+00  8.5828071960457667e-04 1.1990996750167442e-03 0.0000000000000000e+00  9.6854408427831686e-04 1.2511612143358882e-03 0.0000000000000000e+00  1.0577629950532202e-03 1.2282909025520439e-03 0.0000000000000000e+00  1.0802550969641680e-03 1.0881235007600696e-03 0.0000000000000000e+00  1.0560582895024959e-03 8.8422452155877639e-04 0.0000000000000000e+00  9.5512146277307330e-04 7.0517997227028425e-04 0.0000000000000000e+00  8.3165899121967241e-04 6.0006195949571990e-04 0.0000000000000000e+00  7.2083562773511440e-04 5.5797841219301528e-04 0.0000000000000000e+00  6.0459773625932782e-04 5.0095160905983015e-04 0.0000000000000000e+00  5.0063794510412393e-04 4.6060074133002837e-04 0.0000000000000000e+00  4.0680478157651583e-04 4.0933708835013061e-04 0.0000000000000000e+00  3.2729125259571714e-04 3.6526551629320961e-04 0.0000000000000000e+00  2.5524396770423645e-04 3.3939303746125091e-04 0.0000000000000000e+00  2.0779264097494539e-04 3.3186233174415427e-04 0.0000000000000000e+00  1.7415945545370354e-04 3.4730223134623646e-04 0.0000000000000000e+00  1.6290474105545163e-04 3.8708750708810549e-04 0.0000000000000000e+00  1.8259948048519097e-04 4.5219999309595825e-04 0.0000000000000000e+00  2.2189240272536991e-04 5.3797512164261005e-04 0.0000000000000000e+00  3.0689136691007654e-04 6.5409172022211587e-04 0.0000000000000000e+00  0.0000000000000000e+00 0.0000000000000000e+00 0.0000000000000000e+00  -8.3846967697532454e-05 0.0000000000000000e+00 0.0000000000000000e+00  -1.1043321358282258e-04 0.0000000000000000e+00 0.0000000000000000e+00  -1.4800546578432457e-04 0.0000000000000000e+00 0.0000000000000000e+00  -1.7194982731041634e-04 0.0000000000000000e+00 0.0000000000000000e+00  -1.9860959189830617e-04 0.0000000000000000e+00 0.0000000000000000e+00  -2.2152289950369596e-04 0.0000000000000000e+00 0.0000000000000000e+00  -2.4525124506871439e-04 0.0000000000000000e+00 0.0000000000000000e+00  -2.6489483969742195e-04 0.0000000000000000e+00 0.0000000000000000e+00  -2.8127104545779436e-04 0.0000000000000000e+00 0.0000000000000000e+00  -2.9728357527921057e-04 0.0000000000000000e+00 0.0000000000000000e+00  -3.1751894978868334e-04 0.0000000000000000e+00 0.0000000000000000e+00  -3.4109085325099216e-04 0.0000000000000000e+00 0.0000000000000000e+00  -3.6826143767877949e-04 0.0000000000000000e+00 0.0000000000000000e+00  -4.0131183654775067e-04 0.0000000000000000e+00 0.0000000000000000e+00  -4.5128352557154025e-04 0.0000000000000000e+00 0.0000000000000000e+00  -5.2855558454643512e-04 0.0000000000000000e+00 0.0000000000000000e+00  -6.3058481630456215e-04 0.0000000000000000e+00 0.0000000000000000e+00  -7.0594747673003962e-04 0.0000000000000000e+00 0.0000000000000000e+00  -7.6938179515313938e-04 0.0000000000000000e+00 0.0000000000000000e+00  -8.5276281114422532e-04 0.0000000000000000e+00 0.0000000000000000e+00  -9.1189727572036717e-04 0.0000000000000000e+00 0.0000000000000000e+00  -9.3369498338717258e-04 0.0000000000000000e+00 0.0000000000000000e+00  -9.4124574361522718e-04 0.0000000000000000e+00 0.0000000000000000e+00  -9.4421522499534352e-04 0.0000000000000000e+00 0.0000000000000000e+00  -9.5898601441454106e-04 0.0000000000000000e+00 0.0000000000000000e+00  -9.7813396122234646e-04 0.0000000000000000e+00 0.0000000000000000e+00  -1.0170265116231337e-03 0.0000000000000000e+00 0.0000000000000000e+00  -1.0689875692158381e-03 0.0000000000000000e+00 0.0000000000000000e+00  -7.8306797412244355e-05 9.2432919266692871e-03 0.0000000000000000e+00  -1.9070468964246057e-05 8.9856236997136515e-03 0.0000000000000000e+00  7.9450687908562599e-05 8.7180591930245983e-03 0.0000000000000000e+00  2.2902703003409858e-04 8.4447632358953563e-03 0.0000000000000000e+00  4.2789803789586810e-04 8.1638815658494329e-03 0.0000000000000000e+00  6.8282004839342089e-04 7.8706689247998035e-03 0.0000000000000000e+00  9.9746604199406146e-04 7.5682174412862093e-03 0.0000000000000000e+00  1.3784069087048650e-03 7.2317395155423172e-03 0.0000000000000000e+00  1.8619947038635138e-03 6.8655556358583310e-03 0.0000000000000000e+00  2.4742097878693099e-03 6.4612642601516168e-03 0.0000000000000000e+00  3.2463478740189572e-03 6.0450493638556828e-03 0.0000000000000000e+00  4.1600168426452842e-03 5.6730672906363825e-03 0.0000000000000000e+00  5.1142589249287456e-03 5.4645014494429075e-03 0.0000000000000000e+00  5.0464703740485404e-03 5.6157091123290835e-03 0.0000000000000000e+00  4.0894645728919033e-03 5.3308027071727491e-03 0.0000000000000000e+00  3.3898775937439684e-03 4.8808659441992308e-03 0.0000000000000000e+00  3.2062272437598286e-03 3.8937576438778068e-03 0.0000000000000000e+00  2.8469574098145718e-03 3.3277714332960351e-03 0.0000000000000000e+00  2.3022788099049027e-03 3.0239156800838775e-03 0.0000000000000000e+00  1.7403816082837799e-03 2.4910880266611284e-03 0.0000000000000000e+00  1.4443362167210309e-03 2.1824609227645646e-03 0.0000000000000000e+00  1.1464743943157760e-03 1.9155590047046382e-03 0.0000000000000000e+00  8.8010990926319481e-04 1.6646232622918231e-03 0.0000000000000000e+00  6.4367777760195889e-04 1.4178313230894235e-03 0.0000000000000000e+00  4.4602430213234459e-04 1.1755301483971344e-03 0.0000000000000000e+00  2.8945014778109559e-04 9.2803683177162264e-04 0.0000000000000000e+00  1.7480731339378293e-04 6.9413394616721965e-04 0.0000000000000000e+00  9.6055057328968234e-05 4.4870569824895430e-04 0.0000000000000000e+00  6.2667219586212076e-05 2.3434537611208777e-04 0.0000000000000000e+00  -1.1497886785297785e-03 2.4092248284651147e-04 0.0000000000000000e+00  -1.2062687724016332e-03 4.8653706273449619e-04 0.0000000000000000e+00  -1.3011161582619638e-03 7.3739388697648643e-04 0.0000000000000000e+00  -1.4421579876712982e-03 9.9954901500797660e-04 0.0000000000000000e+00  -1.6371417237114755e-03 1.2756653135546938e-03 0.0000000000000000e+00  -1.8985132637972441e-03 1.5652468311934740e-03 0.0000000000000000e+00  -2.2314375989524750e-03 1.8616437260664809e-03 0.0000000000000000e+00  -2.6510697638897854e-03 2.1715776599108253e-03 0.0000000000000000e+00  -3.1579560379391492e-03 2.4610569583252348e-03 0.0000000000000000e+00  -3.7157310829348525e-03 2.7004651382747952e-03 0.0000000000000000e+00  -4.2296067136559489e-03 2.8517820588673517e-03 0.0000000000000000e+00  -4.5533064000540116e-03 2.9340760278480475e-03 0.0000000000000000e+00  -4.6323835101028709e-03 3.0450425036460198e-03 0.0000000000000000e+00  -4.6126953014528479e-03 3.3328350439973688e-03 0.0000000000000000e+00  -5.2714399728868112e-03 4.2137041905421042e-03 0.0000000000000000e+00  -5.1640238436157929e-03 4.2123745898199495e-03 0.0000000000000000e+00  -3.1264188339792031e-03 6.6991733055388851e-03 0.0000000000000000e+00  -3.3253444397425150e-03 6.9790924439343356e-03 0.0000000000000000e+00  -3.3049933066482476e-03 7.0662172108229846e-03 0.0000000000000000e+00  -2.9870157258278501e-03 7.2084428763095698e-03 0.0000000000000000e+00  -2.6142718894640701e-03 7.4262597536526127e-03 0.0000000000000000e+00  -2.2865965339164945e-03 7.6744800293098887e-03 0.0000000000000000e+00  -2.0093199140489870e-03 7.9168622141161625e-03 0.0000000000000000e+00  -1.7794670041276048e-03 8.1601275545919016e-03 0.0000000000000000e+00  -1.6026196394119140e-03 8.4014976056249295e-03 0.0000000000000000e+00  -1.4720212297425815e-03 8.6318775360386003e-03 0.0000000000000000e+00  -1.3761356173500076e-03 8.8545296587204583e-03 0.0000000000000000e+00  -1.3102365644156635e-03 9.0708515825467673e-03 0.0000000000000000e+00  -1.2697022588849291e-03 9.2859639870707094e-03 0.0000000000000000e+00  -1.1992930426649015e-03 9.4999999999999998e-03 0.0000000000000000e+00  -1.1462392563749749e-03 9.4999999999999998e-03 0.0000000000000000e+00  -1.1023771109952884e-03 9.4999999999999998e-03 0.0000000000000000e+00  -1.0639014308035681e-03 9.4999999999999998e-03 0.0000000000000000e+00  -1.0292996261960839e-03 9.4999999999999998e-03 0.0000000000000000e+00  -9.9618542974351586e-04 9.4999999999999998e-03 0.0000000000000000e+00  -9.6681166248993816e-04 9.4999999999999998e-03 0.0000000000000000e+00  -9.4344179058147208e-04 9.4999999999999998e-03 0.0000000000000000e+00  -9.2256788578260179e-04 9.4999999999999998e-03 0.0000000000000000e+00  -9.0688930787964270e-04 9.4999999999999998e-03 0.0000000000000000e+00  -8.8613727639942652e-04 9.4999999999999998e-03 0.0000000000000000e+00  -8.6224228793820013e-04 9.4999999999999998e-03 0.0000000000000000e+00  -8.3304886295202936e-04 9.4999999999999998e-03 0.0000000000000000e+00  -8.0159500461124530e-04 9.4999999999999998e-03 0.0000000000000000e+00  -7.6989252519047650e-04 9.4999999999999998e-03 0.0000000000000000e+00  -7.3210678470926550e-04 9.4999999999999998e-03 0.0000000000000000e+00  -6.8410897019436756e-04 9.4999999999999998e-03 0.0000000000000000e+00  -6.1684193166445861e-04 9.4999999999999998e-03 0.0000000000000000e+00  -5.3780012289769751e-04 9.4999999999999998e-03 0.0000000000000000e+00  -4.6893391352421183e-04 9.4999999999999998e-03 0.0000000000000000e+00  -4.2645418764539179e-04 9.4999999999999998e-03 0.0000000000000000e+00  -3.9054559277459862e-04 9.4999999999999998e-03 0.0000000000000000e+00  -3.4854623187088695e-04 9.4999999999999998e-03 0.0000000000000000e+00  -3.1630919424052245e-04 9.4999999999999998e-03 0.0000000000000000e+00  -3.0112585625153508e-04 9.4999999999999998e-03 0.0000000000000000e+00  -2.8209258978288150e-04 9.4999999999999998e-03 0.0000000000000000e+00  -2.5938165891289928e-04 9.4999999999999998e-03 0.0000000000000000e+00  -2.2021913300233746e-04 9.4999999999999998e-03 0.0000000000000000e+00  -1.6380139951060836e-04 9.4999999999999998e-03 0.0000000000000000e+00  -1.6749186350393233e-03 2.6371155099488715e-03 0.0000000000000000e+00  -1.5487224882059561e-03 2.7682484332417719e-03 0.0000000000000000e+00  -1.4097026645023057e-03 2.9022333062139038e-03 0.0000000000000000e+00  -1.2638742803429345e-03 3.0310601409242427e-03 0.0000000000000000e+00  -1.1121328438919110e-03 3.1626434961486093e-03 0.0000000000000000e+00  -9.5754659293897264e-04 3.2854605853193399e-03 0.0000000000000000e+00  -8.0566651842254894e-04 3.3978803926575933e-03 0.0000000000000000e+00  -6.6421760377288774e-04 3.4993212825069168e-03 0.0000000000000000e+00  -5.3409967611826664e-04 3.5851066549745835e-03 0.0000000000000000e+00  -4.2389520730555443e-04 3.6532813112607884e-03 0.0000000000000000e+00  -3.3521603564810344e-04 3.7072264550417349e-03 0.0000000000000000e+00  -2.7010936283416206e-04 3.7447109872539926e-03 0.0000000000000000e+00  -2.3172950765171582e-04 3.7701619870005418e-03 0.0000000000000000e+00  -2.1821911098786605e-04 3.7855902497184978e-03 0.0000000000000000e+00  -2.3138959090180598e-04 3.7927010901499464e-03 0.0000000000000000e+00  -2.6959066040994532e-04 3.8037679222472460e-03 0.0000000000000000e+00  -3.2214625525973391e-04 3.8255706601122369e-03 0.0000000000000000e+00  -3.8002616216625649e-04 3.8636857460534650e-03 0.0000000000000000e+00  -4.3549093945478758e-04 3.9200568920567912e-03 0.0000000000000000e+00  -4.8350338451572827e-04 3.9894362331313726e-03 0.0000000000000000e+00  -5.2483436448336499e-04 4.0735597295663744e-03 0.0000000000000000e+00  -5.5760257768038056e-04 4.1678201943651299e-03 0.0000000000000000e+00  -5.8175748486057326e-04 4.2710262313617135e-03 0.0000000000000000e+00  -5.9778155335999024e-04 4.3803013530853479e-03 0.0000000000000000e+00  -6.0539008273129103e-04 4.4920893260540105e-03 0.0000000000000000e+00  -6.0613098693529366e-04 4.6033045101182687e-03 0.0000000000000000e+00  -5.9886991088088583e-04 4.7104127569635428e-03 0.0000000000000000e+00  -5.8820786891071875e-04 4.8105204873723981e-03 0.0000000000000000e+00  -5.7314371653969306e-04 4.9030072762296147e-03 0.0000000000000000e+00  -5.5492593765022456e-04 4.9871660214847900e-03 0.0000000000000000e+00  -5.3401974561792737e-04 5.0631933619014260e-03 0.0000000000000000e+00  -5.0652249055757126e-04 5.1333284096955331e-03 0.0000000000000000e+00  -4.6872301294635952e-04 5.1939535003138670e-03 0.0000000000000000e+00  -4.1445042095385578e-04 5.2425373243917394e-03 0.0000000000000000e+00  -3.3362095267164412e-04 5.2673422915756217e-03 0.0000000000000000e+00  -2.2767160682339861e-04 5.2563740916857374e-03 0.0000000000000000e+00  -9.7293468877306845e-05 5.2049721803965592e-03 0.0000000000000000e+00  5.4987721023183373e-05 5.1116336492406326e-03 0.0000000000000000e+00  2.2780145475358960e-04 4.9778089874364861e-03 0.0000000000000000e+00  4.1872245515409937e-04 4.8019006350500408e-03 0.0000000000000000e+00  6.2235169275499079e-04 4.5875041476177037e-03 0.0000000000000000e+00  8.3342792830932045e-04 4.3363409477001633e-03 0.0000000000000000e+00  1.0399084356220256e-03 4.0577742311172400e-03 0.0000000000000000e+00  1.2375434742680335e-03 3.7605770236876445e-03 0.0000000000000000e+00  1.4181382767103007e-03 3.4574876514515398e-03 0.0000000000000000e+00  1.5732034683579206e-03 3.1554165096716554e-03 0.0000000000000000e+00  1.6969831872436620e-03 2.8774664585213853e-03 0.0000000000000000e+00  1.7683768031773370e-03 2.6049894628934742e-03 0.0000000000000000e+00  1.8144276396941078e-03 2.3415352735042883e-03 0.0000000000000000e+00  1.8456226542391077e-03 2.0980323869688902e-03 0.0000000000000000e+00  1.8586135502871529e-03 1.8753794170642724e-03 0.0000000000000000e+00  1.8426326194908456e-03 1.6753501453666509e-03 0.0000000000000000e+00  1.8009766846385062e-03 1.4801037453700109e-03 0.0000000000000000e+00  1.7350503020261416e-03 1.2954369091944156e-03 0.0000000000000000e+00  1.6597373016788606e-03 1.1286382253964155e-03 0.0000000000000000e+00  1.5580938926628310e-03 1.0042693311071089e-03 0.0000000000000000e+00  1.4319268607120253e-03 9.0982725252265674e-04 0.0000000000000000e+00  1.3015768398253161e-03 8.2531926046298053e-04 0.0000000000000000e+00  1.1707191587020172e-03 7.4122516806281668e-04 0.0000000000000000e+00  1.0383167131595638e-03 6.5784371763723379e-04 0.0000000000000000e+00  9.0113224185805715e-04 5.7099864439820837e-04 0.0000000000000000e+00  7.5423607576685702e-04 4.8239965812373574e-04 0.0000000000000000e+00  6.0149212314449375e-04 4.0991528429598054e-04 0.0000000000000000e+00  4.6021051137624789e-04 3.5070984753333382e-04 0.0000000000000000e+00  3.4133701406847689e-04 3.1079340696593276e-04 0.0000000000000000e+00  2.5120959454079394e-04 2.7722796746829992e-04 0.0000000000000000e+00  1.8497079906127341e-04 2.4918769967788898e-04 0.0000000000000000e+00  1.3562466920355053e-04 2.1821381193078059e-04 0.0000000000000000e+00  9.5820706565228432e-05 1.8788792475516220e-04 0.0000000000000000e+00  6.0253066521095619e-05 1.5631728354011608e-04 0.0000000000000000e+00  2.7438523705351909e-05 1.2788863396534788e-04 0.0000000000000000e+00  -4.0121228584373280e-06 1.0064597869346203e-04 0.0000000000000000e+00  -3.4556468965050589e-05 7.7791701028909687e-05 0.0000000000000000e+00  -6.3425058617461522e-05 5.7196310013231922e-05 0.0000000000000000e+00  -9.1442271917904259e-05 4.1196722134488563e-05 0.0000000000000000e+00  -1.1750475574083057e-04 2.7466913316943725e-05 0.0000000000000000e+00  -1.4216271106959628e-04 1.7644525064183937e-05 0.0000000000000000e+00  -1.6500609924586070e-04 1.0063132705681434e-05 0.0000000000000000e+00  -1.8588411234373928e-04 4.9397396432059131e-06 0.0000000000000000e+00  -2.0579905783103914e-04 1.9096232135038598e-06 0.0000000000000000e+00  -2.2361098534287593e-04 5.4457685702865423e-07 0.0000000000000000e+00  -2.4053930096613852e-04 3.1788470727661498e-07 0.0000000000000000e+00  -2.5593000896052939e-04 1.0315881895791698e-06 0.0000000000000000e+00  -2.7069242623747360e-04 2.2687012044682691e-06 0.0000000000000000e+00  -2.8442311263992854e-04 3.8869732095554443e-06 0.0000000000000000e+00  -2.9796515334579149e-04 5.5340458622230242e-06 0.0000000000000000e+00  -3.1097136723247598e-04 7.2956224838639656e-06 0.0000000000000000e+00  -3.2388592006374616e-04 8.9201549830012109e-06 0.0000000000000000e+00  -3.3682774368517268e-04 1.0610671457634240e-05 0.0000000000000000e+00  -3.4993107830289108e-04 1.2420967584907460e-05 0.0000000000000000e+00  -3.6322356975172245e-04 1.4666056506978086e-05 0.0000000000000000e+00  -3.7640042499186558e-04 1.7454700944146715e-05 0.0000000000000000e+00  -3.9003227777545618e-04 2.1196776793779834e-05 0.0000000000000000e+00  -4.0357949556500417e-04 2.6792129522388417e-05 0.0000000000000000e+00  -4.1604612842190678e-04 3.3778721066556318e-05 0.0000000000000000e+00  -4.2839914440298359e-04 4.3034093054791826e-05 0.0000000000000000e+00  -4.3848582798474578e-04 5.4362078304138719e-05 0.0000000000000000e+00  -4.4730103914212616e-04 6.7661920348135717e-05 0.0000000000000000e+00  -4.5434450521238562e-04 8.2611451295918630e-05 0.0000000000000000e+00  -4.5916413532169376e-04 9.9193117694018916e-05 0.0000000000000000e+00  -4.6494832274794547e-04 1.1559135151668049e-04 0.0000000000000000e+00  -4.7114377923911343e-04 1.3380338830965680e-04 0.0000000000000000e+00  -4.8980143450396850e-04 1.4985784769821242e-04 0.0000000000000000e+00  -5.1983112482769614e-04 1.7592682561366678e-04 0.0000000000000000e+00  -5.7770178292785939e-04 2.0823909607542960e-04 0.0000000000000000e+00  -6.5812753154485468e-04 2.6554017023015190e-04 0.0000000000000000e+00  -7.6364820287208590e-04 3.4590622695709124e-04 0.0000000000000000e+00  -8.8035827730941721e-04 4.4940511434929929e-04 0.0000000000000000e+00  -1.0045469634279327e-03 5.6591041402175349e-04 0.0000000000000000e+00  -1.1323605631584533e-03 6.8658872455413373e-04 0.0000000000000000e+00  -1.2745226842861997e-03 8.0759131922305627e-04 0.0000000000000000e+00  -1.4259321758070098e-03 9.4035896192801638e-04 0.0000000000000000e+00  -1.5849121342076300e-03 1.0837359168614491e-03 0.0000000000000000e+00  -1.7382106419078453e-03 1.2425280589504943e-03 0.0000000000000000e+00  -1.8609518384746222e-03 1.4117538012727981e-03 0.0000000000000000e+00  -1.8875027856166326e-03 1.6256007041939944e-03 0.0000000000000000e+00  -1.8959883426336100e-03 1.8708909017734348e-03 0.0000000000000000e+00  -1.8815108215762310e-03 2.1148710442698971e-03 0.0000000000000000e+00  -1.8518561126220302e-03 2.3268852875765068e-03 0.0000000000000000e+00  1.9058567169208550e-03 1.3194967348364836e-03 0.0000000000000000e+00  1.8964797105477200e-03 1.2829766257597863e-03 0.0000000000000000e+00  1.8410856860667101e-03 1.2307044307938320e-03 0.0000000000000000e+00  1.7510738657597771e-03 1.1777477953