<?xml version="1.0"?>
<VTKFile type="UnstructuredGrid"  version="0.1"  >
<UnstructuredGrid>
<Piece  NumberOfPoints="3879" NumberOfCells="6881">
<Points>
<DataArray  type="Float64"  NumberOfComponents="3"  format="ascii">0.207524190028372 0.2122422770132111 0  0 0 0  1 0 0  0 1 0  1 1 0  0.6249674373315121 0.2590146544375328 0  0.204663578893616 0.322657230836866 0  0.09605577522599912 0.4018360776629776 0  0.671351124618251 0.08738059142081528 0  0.7842102907526436 0.1666439122351055 0  0.8512483166984784 0.1985391006160637 0  0.6418797837909295 0.4423157172830166 0  0.9292488447973215 0.3869277868069776 0  0.3197896119137055 0.5509935221980964 0  0.3979283685568406 0.5079871620336583 0  0.1572503457993085 0.7345153245035532 0  0.3032914287999163 0.7872981443735918 0  0.3549464687598876 0.8870324161721976 0  0.9691791685505482 0.5159450047798622 0  0.9447564590470373 0.6146164845729313 0  0.7687603548175107 0.7176858127488035 0  0.8926159261971183 0.7422924070424508 0  0.2061587782631535 0.2217389244366831 0  0.2021731605082994 0.2304662099646423 0  0.1958902278109265 0.2377171008267789 0  0.1878189860121365 0.2429041729681512 0  0.1786133191209442 0.2456072006525708 0  0.1690190155206647 0.2456072006525708 0  0.1598133486294724 0.2429041729681512 0  0.1517421068306824 0.2377171008267789 0  0.1454591741333096 0.2304662099646422 0  0.1414735563784554 0.221738924436683 0  0.1401081446132369 0.212242277013211 0  0.1414735563784555 0.202745629589739 0  0.1454591741333096 0.1940183440617798 0  0.1517421068306825 0.1867674531996431 0  0.1598133486294725 0.1815803810582709 0  0.1690190155206649 0.1788773533738513 0  0.1786133191209443 0.1788773533738514 0  0.1878189860121367 0.181580381058271 0  0.1958902278109266 0.1867674531996433 0  0.2021731605082994 0.19401834406178 0  0.2061587782631535 0.2027456295897391 0  0.03333333333333333 0 0  0.06666666666666667 0 0  0.1 0 0  0.1333333333333333 0 0  0.1666666666666667 0 0  0.2 0 0  0.2333333333333333 0 0  0.2666666666666667 0 0  0.3 0 0  0.3333333333333333 0 0  0.3666666666666666 0 0  0.4 0 0  0.4333333333333333 0 0  0.4666666666666667 0 0  0.5 0 0  0.5333333333333333 0 0  0.5666666666666667 0 0  0.6 0 0  0.6333333333333333 0 0  0.6666666666666666 0 0  0.7 0 0  0.7333333333333333 0 0  0.7666666666666667 0 0  0.8 0 0  0.8333333333333334 0 0  0.8666666666666667 0 0  0.9 0 0  0.9333333333333333 0 0  0.9666666666666667 0 0  0 0.9666666666666667 0  0 0.9333333333333333 0  0 0.9 0  0 0.8666666666666667 0  0 0.8333333333333334 0  0 0.8 0  0 0.7666666666666666 0  0 0.7333333333333334 0  0 0.7 0  0 0.6666666666666667 0  0 0.6333333333333333 0  0 0.6 0  0 0.5666666666666667 0  0 0.5333333333333333 0  0 0.5 0  0 0.4666666666666667 0  0 0.4333333333333333 0  0 0.4 0  0 0.3666666666666667 0  0 0.3333333333333334 0  0 0.3 0  0 0.2666666666666667 0  0 0.2333333333333333 0  0 0.2 0  0 0.1666666666666666 0  0 0.1333333333333333 0  0 0.09999999999999998 0  0 0.06666666666666665 0  0 0.03333333333333333 0  1 0.03333333333333333 0  1 0.06666666666666667 0  1 0.1 0  1 0.1333333333333333 0  1 0.1666666666666667 0  1 0.2 0  1 0.2333333333333333 0  1 0.2666666666666667 0  1 0.3 0  1 0.3333333333333333 0  1 0.3666666666666666 0  1 0.4 0  1 0.4333333333333333 0  1 0.4666666666666667 0  1 0.5 0  1 0.5333333333333333 0  1 0.5666666666666667 0  1 0.6 0  1 0.6333333333333333 0  1 0.6666666666666666 0  1 0.7 0  1 0.7333333333333333 0  1 0.7666666666666667 0  1 0.8 0  1 0.8333333333333334 0  1 0.8666666666666667 0  1 0.9 0  1 0.9333333333333333 0  1 0.9666666666666667 0  0.9666666666666667 1 0  0.9333333333333333 1 0  0.9 1 0  0.8666666666666667 1 0  0.8333333333333334 1 0  0.8 1 0  0.7666666666666666 1 0  0.7333333333333334 1 0  0.7 1 0  0.6666666666666667 1 0  0.6333333333333333 1 0  0.6 1 0  0.5666666666666667 1 0  0.5333333333333333 1 0  0.5 1 0  0.4666666666666667 1 0  0.4333333333333333 1 0  0.4 1 0  0.3666666666666667 1 0  0.3333333333333334 1 0  0.3 1 0  0.2666666666666667 1 0  0.2333333333333333 1 0  0.2 1 0  0.1666666666666666 1 0  0.1333333333333333 1 0  0.09999999999999998 1 0  0.06666666666666665 1 0  0.03333333333333333 1 0  0.6247072676344306 0.2689501343248463 0  0.6239274716502419 0.2788583817523955 0  0.6226301867455355 0.2887122389026952 0  0.6208189686880621 0.2984846970382296 0  0.6184987819006211 0.3081489705305245 0  0.6156759858539226 0.317678570277693 0  0.6123583176357204 0.3270473763092224 0  0.6085548707439923 0.3362297093789981 0  0.6042760701622942 0.3452004013503318 0  0.5995336437856049 0.3539348641800754 0  0.5943405902749808 0.3624091573127375 0  0.5887111434291297 0.3706000532998825 0  0.582660733170558 0.3784851014649517 0  0.5762059432532257 0.3860426894390078 0  0.5693644658076293 0.3932521023987353 0  0.5621550528479018 0.4000935798443317 0  0.5545974648738458 0.4065483697616639 0  0.5467124167087765 0.4125987800202355 0  0.5385215207216315 0.4182282268660866 0  0.5300472275889694 0.4234212803767108 0  0.5213127647592257 0.4281637067534002 0  0.512342072787892 0.4324425073350981 0  0.5031597397181163 0.4362459542268262 0  0.493790933686587 0.4395636224450283 0  0.4842613339394185 0.4423864184917269 0  0.4745970604471235 0.4447066052791678 0  0.4648246023115891 0.4465178233366412 0  0.4549707451612894 0.4478151082413475 0  0.4450624977337403 0.4485949042255363 0  0.4351270178464268 0.4488550739226177 0  0.4251915379591132 0.4485949042255363 0  0.4152832905315641 0.4478151082413475 0  0.4054294333812644 0.4465178233366411 0  0.39565697524573 0.4447066052791677 0  0.385992701753435 0.4423864184917267 0  0.3764631020062665 0.4395636224450281 0  0.3670942959747371 0.4362459542268259 0  0.3579119629049616 0.4324425073350978 0  0.3489412709336278 0.4281637067533998 0  0.3402068081038843 0.4234212803767103 0  0.3317325149712221 0.4182282268660862 0  0.3235416189840771 0.412598780020235 0  0.3156565708190078 0.4065483697616634 0  0.3080989828449519 0.4000935798443311 0  0.3008895698852244 0.3932521023987346 0  0.2940480924396279 0.3860426894390071 0  0.2875933025222958 0.3784851014649511 0  0.2815428922637242 0.3706000532998818 0  0.2759134454178731 0.3624091573127368 0  0.2707203919072489 0.3539348641800746 0  0.2659779655305596 0.3452004013503309 0  0.2616991649488616 0.3362297093789972 0  0.2578957180571336 0.3270473763092215 0  0.2545780498389315 0.3176785702776921 0  0.251755253792233 0.3081489705305236 0  0.249435067004792 0.2984846970382286 0  0.2476238489473186 0.2887122389026941 0  0.2463265640426123 0.2788583817523945 0  0.2455467680584236 0.2689501343248454 0  0.2452865983613423 0.2590146544375318 0  0.2455467680584237 0.2490791745502182 0  0.2463265640426126 0.2391709271226692 0  0.247623848947319 0.2293170699723696 0  0.2494350670047924 0.2195446118368351 0  0.2517552537922335 0.2098803383445402 0  0.2545780498389321 0.2003507385973717 0  0.2578957180571343 0.1909819325658423 0  0.2616991649488624 0.1817995994960667 0  0.2659779655305604 0.172828907524733 0  0.2707203919072498 0.1640944446949895 0  0.2759134454178741 0.1556201515623273 0  0.2815428922637251 0.1474292555751825 0  0.2875933025222969 0.1395442074101132 0  0.2940480924396291 0.1319866194360571 0  0.3008895698852256 0.1247772064763297 0  0.3080989828449531 0.1179357290307334 0  0.3156565708190092 0.1114809391134012 0  0.3235416189840785 0.1054305288548295 0  0.3317325149712236 0.09980108200897844 0  0.3402068081038856 0.0946080284983544 0  0.3489412709336291 0.08986560212166514 0  0.357911962904963 0.08558680153996717 0  0.3670942959747386 0.08178335464823916 0  0.3764631020062678 0.07846568643003712 0  0.3859927017534364 0.0756428903833386 0  0.3956569752457313 0.0733227035958976 0  0.4054294333812659 0.07151148553842429 0  0.4152832905315654 0.07021420063371797 0  0.4251915379591144 0.0694344046495293 0  0.435127017846428 0.0691742349524479 0  0.4450624977337415 0.06943440464952938 0  0.4549707451612905 0.07021420063371814 0  0.4648246023115901 0.07151148553842454 0  0.4745970604471245 0.07332270359589793 0  0.4842613339394195 0.07564289038333902 0  0.4937909336865879 0.07846568643003757 0  0.5031597397181173 0.0817833546482398 0  0.5123420727878929 0.08558680153996781 0  0.5213127647592265 0.08986560212166581 0  0.53004722758897 0.0946080284983552 0  0.5385215207216321 0.09980108200897933 0  0.5467124167087771 0.1054305288548305 0  0.5545974648738462 0.1114809391134021 0  0.5621550528479023 0.1179357290307343 0  0.5693644658076298 0.1247772064763308 0  0.576205943253226 0.1319866194360582 0  0.5826607331705582 0.1395442074101142 0  0.5887111434291299 0.1474292555751835 0  0.594340590274981 0.1556201515623285 0  0.5995336437856051 0.1640944446949906 0  0.6042760701622945 0.172828907524734 0  0.6085548707439925 0.1817995994960678 0  0.6123583176357205 0.1909819325658435 0  0.6156759858539227 0.2003507385973728 0  0.6184987819006211 0.2098803383445412 0  0.6208189686880622 0.2195446118368362 0  0.6226301867455355 0.2293170699723706 0  0.6239274716502419 0.2391709271226702 0  0.6247072676344306 0.2490791745502192 0  0.203885768735257 0.3325402459548524 0  0.2015714905276826 0.3421799084407872 0  0.1977777294810124 0.3513388578120612 0  0.1925979005829864 0.3597915703383434 0  0.1861595484119405 0.3673299121842922 0  0.1786212065659918 0.373768264355338 0  0.1701684940397096 0.378948093253364 0  0.1610095446684356 0.3827418543000342 0  0.1513698821825007 0.3850561325076086 0  0.1414868670645144 0.3858339426659677 0  0.1316038519465281 0.3850561325076086 0  0.1219641894605933 0.3827418543000343 0  0.1128052400893193 0.378948093253364 0  0.1043525275630371 0.3737682643553381 0  0.09681418571708833 0.3673299121842922 0  0.09037583354604248 0.3597915703383434 0  0.08519600464801645 0.3513388578120612 0  0.08140224360134621 0.3421799084407872 0  0.07908796539377183 0.3325402459548523 0  0.07831015523541281 0.3226572308368659 0  0.07908796539377186 0.3127742157188796 0  0.08140224360134626 0.3031345532329447 0  0.08519600464801655 0.2939756038616707 0  0.0903758335460426 0.2855228913353884 0  0.0968141857
[...]
<PointData  Vectors="$u$"> 
<DataArray  type="Float64"  Name="$u$"  NumberOfComponents="3" format="ascii">3.6162271860424916e-04 6.7133589249608995e-04 0.0000000000000000e+00  0.0000000000000000e+00 0.0000000000000000e+00 0.0000000000000000e+00  -8.7728868670578029e-04 0.0000000000000000e+00 0.0000000000000000e+00  -1.6077016845847801e-04 7.4999999999999997e-03 0.0000000000000000e+00  -1.0608639775015346e-03 7.4999999999999997e-03 0.0000000000000000e+00  -1.4014601650091509e-03 1.8445658474056427e-03 0.0000000000000000e+00  1.5142434770968611e-03 1.1005653778624691e-03 0.0000000000000000e+00  1.3144681998237756e-03 1.9559993834346572e-03 0.0000000000000000e+00  -7.8423027531594747e-04 2.4868072981734521e-04 0.0000000000000000e+00  -1.1641849316356785e-03 1.7857692356501454e-05 0.0000000000000000e+00  -1.3261844804540947e-03 2.1891889320105090e-04 0.0000000000000000e+00  -2.9619789449568395e-05 2.9596095621144398e-03 0.0000000000000000e+00  -3.4125873129835439e-03 2.0641909139591237e-03 0.0000000000000000e+00  -4.5408228650333540e-04 4.5799977548422882e-03 0.0000000000000000e+00  -3.2198782654799360e-04 4.1353233118250447e-03 0.0000000000000000e+00  1.1129414380349572e-03 7.1804806762759245e-03 0.0000000000000000e+00  4.1661537462993694e-04 5.9592433210937032e-03 0.0000000000000000e+00  -6.1830109784342306e-04 7.1881973714965942e-03 0.0000000000000000e+00  -3.6277280587266106e-03 3.6839656348063949e-03 0.0000000000000000e+00  -2.6667936717347674e-03 5.3814172736619667e-03 0.0000000000000000e+00  -1.8944554512661165e-03 6.8171507715777497e-03 0.0000000000000000e+00  -1.7381032473777691e-03 6.7514114824983864e-03 0.0000000000000000e+00  4.8533193105618124e-04 7.9322888075606410e-04 0.0000000000000000e+00  6.1476031335330717e-04 9.0223226998173076e-04 0.0000000000000000e+00  7.2953163911852888e-04 9.9592533312314684e-04 0.0000000000000000e+00  8.1794308190010281e-04 1.0360382990770762e-03 0.0000000000000000e+00  8.8457781802417498e-04 1.0182166834877106e-03 0.0000000000000000e+00  8.9382851499502465e-04 9.1215998967549689e-04 0.0000000000000000e+00  8.7202434691199511e-04 7.5660678840022255e-04 0.0000000000000000e+00  7.9991760599959320e-04 6.2385963119573602e-04 0.0000000000000000e+00  6.9480609268679895e-04 5.4844763710096343e-04 0.0000000000000000e+00  6.0128822585396244e-04 5.1093072972772957e-04 0.0000000000000000e+00  5.0459356709769011e-04 4.6251804978834389e-04 0.0000000000000000e+00  4.1891705314153006e-04 4.2356032259037549e-04 0.0000000000000000e+00  3.4148347102307998e-04 3.7605055135886000e-04 0.0000000000000000e+00  2.7573132058993208e-04 3.3390142382976355e-04 0.0000000000000000e+00  2.1687962246467340e-04 3.0701419027256348e-04 0.0000000000000000e+00  1.7794355660479417e-04 2.9631884977102211e-04 0.0000000000000000e+00  1.5068675494745378e-04 3.0586255862811155e-04 0.0000000000000000e+00  1.4286813882239492e-04 3.3680372934905803e-04 0.0000000000000000e+00  1.6041839103771372e-04 3.8970924923840142e-04 0.0000000000000000e+00  1.9610571690822654e-04 4.6129867886508710e-04 0.0000000000000000e+00  2.6739689751827545e-04 5.5802189244517539e-04 0.0000000000000000e+00  0.0000000000000000e+00 0.0000000000000000e+00 0.0000000000000000e+00  -7.3089970342111747e-05 0.0000000000000000e+00 0.0000000000000000e+00  -9.8210146629420909e-05 0.0000000000000000e+00 0.0000000000000000e+00  -1.3027950939129021e-04 0.0000000000000000e+00 0.0000000000000000e+00  -1.5132599006339146e-04 0.0000000000000000e+00 0.0000000000000000e+00  -1.7264358452536517e-04 0.0000000000000000e+00 0.0000000000000000e+00  -1.9034452400130340e-04 0.0000000000000000e+00 0.0000000000000000e+00  -2.0757619589692800e-04 0.0000000000000000e+00 0.0000000000000000e+00  -2.2101454689715656e-04 0.0000000000000000e+00 0.0000000000000000e+00  -2.3125284013211908e-04 0.0000000000000000e+00 0.0000000000000000e+00  -2.4110086120077422e-04 0.0000000000000000e+00 0.0000000000000000e+00  -2.5442482541575403e-04 0.0000000000000000e+00 0.0000000000000000e+00  -2.7048031258078181e-04 0.0000000000000000e+00 0.0000000000000000e+00  -2.8946318918906025e-04 0.0000000000000000e+00 0.0000000000000000e+00  -3.1287704943693592e-04 0.0000000000000000e+00 0.0000000000000000e+00  -3.4951026562486101e-04 0.0000000000000000e+00 0.0000000000000000e+00  -4.0698182362022909e-04 0.0000000000000000e+00 0.0000000000000000e+00  -4.8329911853423958e-04 0.0000000000000000e+00 0.0000000000000000e+00  -5.3903912969759853e-04 0.0000000000000000e+00 0.0000000000000000e+00  -5.8688816635857669e-04 0.0000000000000000e+00 0.0000000000000000e+00  -6.5174111929277559e-04 0.0000000000000000e+00 0.0000000000000000e+00  -6.9575791082702218e-04 0.0000000000000000e+00 0.0000000000000000e+00  -7.0940348932729792e-04 0.0000000000000000e+00 0.0000000000000000e+00  -7.1221761243751196e-04 0.0000000000000000e+00 0.0000000000000000e+00  -7.1287522348612313e-04 0.0000000000000000e+00 0.0000000000000000e+00  -7.2461731735116845e-04 0.0000000000000000e+00 0.0000000000000000e+00  -7.4131886148776191e-04 0.0000000000000000e+00 0.0000000000000000e+00  -7.7532434486474503e-04 0.0000000000000000e+00 0.0000000000000000e+00  -8.2080353700333941e-04 0.0000000000000000e+00 0.0000000000000000e+00  -1.4721546361632669e-04 7.2849825929021369e-03 0.0000000000000000e+00  -1.0124837460542131e-04 7.0687850561575545e-03 0.0000000000000000e+00  -2.4364967052807355e-05 6.8441535768612796e-03 0.0000000000000000e+00  9.2519855152111124e-05 6.6144188511449093e-03 0.0000000000000000e+00  2.4844525810444718e-04 6.3775838001816510e-03 0.0000000000000000e+00  4.4817422712909230e-04 6.1312653321418508e-03 0.0000000000000000e+00  6.9264808825029566e-04 5.8776513853983020e-03 0.0000000000000000e+00  9.8483098733184314e-04 5.5964841514259877e-03 0.0000000000000000e+00  1.3535896205715220e-03 5.2896170808537091e-03 0.0000000000000000e+00  1.8232814679277219e-03 4.9510393293187268e-03 0.0000000000000000e+00  2.4172207235111094e-03 4.6140147715543174e-03 0.0000000000000000e+00  3.0917311589817760e-03 4.3432535787560778e-03 0.0000000000000000e+00  3.6667269931084448e-03 4.2102973293624531e-03 0.0000000000000000e+00  3.6431930199980010e-03 4.2141496578080029e-03 0.0000000000000000e+00  3.1542725737105873e-03 4.0146463048281698e-03 0.0000000000000000e+00  2.6556730276727320e-03 3.6680363057511188e-03 0.0000000000000000e+00  2.3824620579002424e-03 3.1799050889160900e-03 0.0000000000000000e+00  2.2458341894498616e-03 2.8506056797550478e-03 0.0000000000000000e+00  1.8193536116054899e-03 2.5757098409178300e-03 0.0000000000000000e+00  1.4577988235342952e-03 2.1986454297841093e-03 0.0000000000000000e+00  1.2121685411399699e-03 1.9266225222973432e-03 0.0000000000000000e+00  9.7089199330811402e-04 1.6902327562744958e-03 0.0000000000000000e+00  7.4776278286040716e-04 1.4691371237769400e-03 0.0000000000000000e+00  5.4858925218738246e-04 1.2506209860896373e-03 0.0000000000000000e+00  3.8128503005943327e-04 1.0362614564869508e-03 0.0000000000000000e+00  2.4845333795447250e-04 8.1834641531361332e-04 0.0000000000000000e+00  1.5095395518914436e-04 6.1138140991811847e-04 0.0000000000000000e+00  8.3708220797291168e-05 3.9629200380413357e-04 0.0000000000000000e+00  5.5033404709642968e-05 2.0619916632900602e-04 0.0000000000000000e+00  -8.9035489853824619e-04 2.0871559597929448e-04 0.0000000000000000e+00  -9.3679385334095931e-04 4.2132734781644051e-04 0.0000000000000000e+00  -1.0148430256289775e-03 6.3894218532550297e-04 0.0000000000000000e+00  -1.1310584011626228e-03 8.6664488337353672e-04 0.0000000000000000e+00  -1.2918604568839278e-03 1.1064694172085005e-03 0.0000000000000000e+00  -1.5078777461933540e-03 1.3591077069657034e-03 0.0000000000000000e+00  -1.7841051896617640e-03 1.6181593895616627e-03 0.0000000000000000e+00  -2.1330409063775868e-03 1.8884879176712750e-03 0.0000000000000000e+00  -2.5525781313974058e-03 2.1389168580758060e-03 0.0000000000000000e+00  -3.0052128271955002e-03 2.3444919924085969e-03 0.0000000000000000e+00  -3.4049364955389466e-03 2.4797747883189328e-03 0.0000000000000000e+00  -3.6432980854682706e-03 2.5718958141754396e-03 0.0000000000000000e+00  -3.6961879767010365e-03 2.6985581405021921e-03 0.0000000000000000e+00  -3.6612535181700500e-03 2.9734553699162490e-03 0.0000000000000000e+00  -3.9697290494725415e-03 3.4310158136807781e-03 0.0000000000000000e+00  -3.7916560265006511e-03 3.4930829354010489e-03 0.0000000000000000e+00  -2.6779139023240853e-03 4.9160645654760578e-03 0.0000000000000000e+00  -2.7788447711807967e-03 5.2038946566830340e-03 0.0000000000000000e+00  -2.7419860693281197e-03 5.3356851208547114e-03 0.0000000000000000e+00  -2.4954699453537221e-03 5.4793927008372767e-03 0.0000000000000000e+00  -2.1918591587768545e-03 5.6753168849488127e-03 0.0000000000000000e+00  -1.9218174289402290e-03 5.8964612403820289e-03 0.0000000000000000e+00  -1.6926120601990901e-03 6.1110204133139855e-03 0.0000000000000000e+00  -1.5012657210465743e-03 6.3247789904720391e-03 0.0000000000000000e+00  -1.3525527985425937e-03 6.5362673285467065e-03 0.0000000000000000e+00  -1.2420297678687937e-03 6.7386501533735783e-03 0.0000000000000000e+00  -1.1607906733083957e-03 6.9342024230252854e-03 0.0000000000000000e+00  -1.1050928208664894e-03 7.1242098959702878e-03 0.0000000000000000e+00  -1.0708767113875280e-03 7.3125860736898184e-03 0.0000000000000000e+00  -1.0094474784706348e-03 7.4999999999999997e-03 0.0000000000000000e+00  -9.6301761056988039e-04 7.4999999999999997e-03 0.0000000000000000e+00  -9.2489005498704881e-04 7.4999999999999997e-03 0.0000000000000000e+00  -8.9230614339489724e-04 7.4999999999999997e-03 0.0000000000000000e+00  -8.6381378515900330e-04 7.4999999999999997e-03 0.0000000000000000e+00  -8.3778146199491369e-04 7.4999999999999997e-03 0.0000000000000000e+00  -8.1576592777095303e-04 7.4999999999999997e-03 0.0000000000000000e+00  -7.9941547923471792e-04 7.4999999999999997e-03 0.0000000000000000e+00  -7.8598561687526919e-04 7.4999999999999997e-03 0.0000000000000000e+00  -7.7715286777238154e-04 7.4999999999999997e-03 0.0000000000000000e+00  -7.6466616701257976e-04 7.4999999999999997e-03 0.0000000000000000e+00  -7.4973082323008544e-04 7.4999999999999997e-03 0.0000000000000000e+00  -7.3066863071912349e-04 7.4999999999999997e-03 0.0000000000000000e+00  -7.0974641087154342e-04 7.4999999999999997e-03 0.0000000000000000e+00  -6.8846225798410525e-04 7.4999999999999997e-03 0.0000000000000000e+00  -6.6198418016583376e-04 7.4999999999999997e-03 0.0000000000000000e+00  -6.2698457162464120e-04 7.4999999999999997e-03 0.0000000000000000e+00  -5.7675806630653451e-04 7.4999999999999997e-03 0.0000000000000000e+00  -5.1753394019555046e-04 7.4999999999999997e-03 0.0000000000000000e+00  -4.6677363781551484e-04 7.4999999999999997e-03 0.0000000000000000e+00  -4.3558667769721498e-04 7.4999999999999997e-03 0.0000000000000000e+00  -4.0769014888811001e-04 7.4999999999999997e-03 0.0000000000000000e+00  -3.7344547595340876e-04 7.4999999999999997e-03 0.0000000000000000e+00  -3.4764629630441185e-04 7.4999999999999997e-03 0.0000000000000000e+00  -3.3539019474183098e-04 7.4999999999999997e-03 0.0000000000000000e+00  -3.1962047214358818e-04 7.4999999999999997e-03 0.0000000000000000e+00  -2.9983824249966550e-04 7.4999999999999997e-03 0.0000000000000000e+00  -2.6625069066067947e-04 7.4999999999999997e-03 0.0000000000000000e+00  -2.1827771005025111e-04 7.4999999999999997e-03 0.0000000000000000e+00  -1.3266622613962288e-03 1.9615992883011118e-03 0.0000000000000000e+00  -1.2408208955128079e-03 2.0751136266110438e-03 0.0000000000000000e+00  -1.1438989152220207e-03 2.1888619423000187e-03 0.0000000000000000e+00  -1.0404634465144157e-03 2.2959495089929370e-03 0.0000000000000000e+00  -9.3171597126920456e-04 2.4040962264290089e-03 0.0000000000000000e+00  -8.1980534797907692e-04 2.5043794994403018e-03 0.0000000000000000e+00  -7.0931963330732436e-04 2.5956480335089052e-03 0.0000000000000000e+00  -6.0632152881043039e-04 2.6772422140183315e-03 0.0000000000000000e+00  -5.1187857466262576e-04 2.7459529160978229e-03 0.0000000000000000e+00  -4.3279250154606519e-04 2.8003043943876180e-03 0.0000000000000000e+00  -3.7040572786845548e-04 2.8427835274046661e-03 0.0000000000000000e+00  -3.2664032437456340e-04 2.8726660910559101e-03 0.0000000000000000e+00  -3.0362714261791276e-04 2.8931677313949497e-03 0.0000000000000000e+00  -2.9981996780672435e-04 2.9066156897695470e-03 0.0000000000000000e+00  -3.1645213027772361e-04 2.9143485245347882e-03 0.0000000000000000e+00  -3.5194101101348584e-04 2.9260752232925119e-03 0.0000000000000000e+00  -3.9813818185535806e-04 2.9475514171921607e-03 0.0000000000000000e+00  -4.4736133595188742e-04 2.9827414394177128e-03 0.0000000000000000e+00  -4.9417537152124413e-04 3.0338762814593554e-03 0.0000000000000000e+00  -5.3361669270219681e-04 3.0963567087185940e-03 0.0000000000000000e+00  -5.6705362029718296e-04 3.1719090401173137e-03 0.0000000000000000e+00  -5.9231963514649335e-04 3.2567227889202370e-03 0.0000000000000000e+00  -6.0942785608761275e-04 3.3494421782557086e-03 0.0000000000000000e+00  -6.1879973927603910e-04 3.4475994293373031e-03 0.0000000000000000e+00  -6.2031581691404344e-04 3.5479015459406299e-03 0.0000000000000000e+00  -6.1512040358340468e-04 3.6473354983972491e-03 0.0000000000000000e+00  -6.0274632858187116e-04 3.7427251585411487e-03 0.0000000000000000e+00  -5.8707550771368994e-04 3.8313014066088309e-03 0.0000000000000000e+00  -5.6762224018881713e-04 3.9125417459315833e-03 0.0000000000000000e+00  -5.4558051769608732e-04 3.9857063264649266e-03 0.0000000000000000e+00  -5.2155579093130378e-04 4.0511696010411278e-03 0.0000000000000000e+00  -4.9308944696276622e-04 4.1109112052977797e-03 0.0000000000000000e+00  -4.5733726506185445e-04 4.1629856174721595e-03 0.0000000000000000e+00  -4.0923728032762321e-04 4.2057924610206555e-03 0.0000000000000000e+00  -3.4139108887447920e-04 4.2308965159059582e-03 0.0000000000000000e+00  -2.5375537000584864e-04 4.2292540279483025e-03 0.0000000000000000e+00  -1.4691445305524094e-04 4.1967430672820768e-03 0.0000000000000000e+00  -2.1710272589993770e-05 4.1317032690053905e-03 0.0000000000000000e+00  1.2107116499599188e-04 4.0339991881363823e-03 0.0000000000000000e+00  2.7962110535671107e-04 3.9015732064586932e-03 0.0000000000000000e+00  4.5028037119167777e-04 3.7360424641578222e-03 0.0000000000000000e+00  6.2785165683881719e-04 3.5376600349642938e-03 0.0000000000000000e+00  8.0184933682231037e-04 3.3137889530060836e-03 0.0000000000000000e+00  9.6833279505546604e-04 3.0715882209683206e-03 0.0000000000000000e+00  1.1197050978357253e-03 2.8210951651815122e-03 0.0000000000000000e+00  1.2441718316195435e-03 2.5678080494181098e-03 0.0000000000000000e+00  1.3477227987408660e-03 2.3318494470608081e-03 0.0000000000000000e+00  1.4245254624113155e-03 2.1086052926076989e-03 0.0000000000000000e+00  1.4746293116222867e-03 1.9010029204352193e-03 0.0000000000000000e+00  1.5055676786312169e-03 1.7119608088721687e-03 0.0000000000000000e+00  1.5192057396432297e-03 1.5386508662735671e-03 0.0000000000000000e+00  1.5144064459571790e-03 1.3826593102463482e-03 0.0000000000000000e+00  1.4904715991564507e-03 1.2345865419387764e-03 0.0000000000000000e+00  1.4443532018839648e-03 1.0992857914129486e-03 0.0000000000000000e+00  1.3783035049924777e-03 9.7989929649404200e-04 0.0000000000000000e+00  1.2917566515517880e-03 8.7772272766216180e-04 0.0000000000000000e+00  1.1922545270215291e-03 7.8897450849628849e-04 0.0000000000000000e+00  1.0878333218472945e-03 7.1139937821227425e-04 0.0000000000000000e+00  9.8221834005107322e-04 6.3672881340128516e-04 0.0000000000000000e+00  8.7481555649817321e-04 5.6377229061108254e-04 0.0000000000000000e+00  7.6270934679655738e-04 4.8828710618336647e-04 0.0000000000000000e+00  6.4187088097120365e-04 4.1256389409151601e-04 0.0000000000000000e+00  5.1582244658823404e-04 3.4952699607021423e-04 0.0000000000000000e+00  3.9821475565087388e-04 2.9831766836989300e-04 0.0000000000000000e+00  2.9819688808694798e-04 2.6248926772579680e-04 0.0000000000000000e+00  2.2119619365401738e-04 2.3313351173429072e-04 0.0000000000000000e+00  1.6380477474879204e-04 2.0806444270784105e-04 0.0000000000000000e+00  1.2036314595887014e-04 1.8157256566234681e-04 0.0000000000000000e+00  8.5091631573218354e-05 1.5549394910645064e-04 0.0000000000000000e+00  5.3733889990011689e-05 1.2892036461319381e-04 0.0000000000000000e+00  2.4916113837817973e-05 1.0464426817082605e-04 0.0000000000000000e+00  -2.4941047473907180e-06 8.1956164447287235e-05 0.0000000000000000e+00  -2.8685322465177679e-05 6.2475473809441362e-05 0.0000000000000000e+00  -5.3445152060422197e-05 4.5366718946029398e-05 0.0000000000000000e+00  -7.7010675280839638e-05 3.1855266984725891e-05 0.0000000000000000e+00  -9.8853347073207356e-05 2.0442960627298412e-05 0.0000000000000000e+00  -1.1922757420365033e-04 1.2249335479974459e-05 0.0000000000000000e+00  -1.3787473014852027e-04 5.9727982426168534e-06 0.0000000000000000e+00  -1.5477120044624773e-04 1.7982280716572782e-06 0.0000000000000000e+00  -1.7058092170212398e-04 -6.3847162688576966e-07 0.0000000000000000e+00  -1.8454919247316449e-04 -1.6918439103145945e-06 0.0000000000000000e+00  -1.9759631973704941e-04 -1.7820786923613471e-06 0.0000000000000000e+00  -2.0928554017013670e-04 -1.0946488330665847e-06 0.0000000000000000e+00  -2.2028309059519030e-04 6.7708462403441731e-09 0.0000000000000000e+00  -2.3038860907190266e-04 1.4057441954636170e-06 0.0000000000000000e+00  -2.4022559929642301e-04 2.8172087400671255e-06 0.0000000000000000e+00  -2.4957214467395634e-04 4.3067643634136845e-06 0.0000000000000000e+00  -2.5877974807288369e-04 5.6405935350859584e-06 0.0000000000000000e+00  -2.6800756122739248e-04 7.0214004067051780e-06 0.0000000000000000e+00  -2.7729791191463470e-04 8.4644623942946647e-06 0.0000000000000000e+00  -2.8676751811454541e-04 1.0220164860796085e-05 0.0000000000000000e+00  -2.9617937379980734e-04 1.2389813413686031e-05 0.0000000000000000e+00  -3.0590304153644020e-04 1.5284313839982307e-05 0.0000000000000000e+00  -3.1565300238270817e-04 1.9574159385754272e-05 0.0000000000000000e+00  -3.2465715157451949e-04 2.4977598644574293e-05 0.0000000000000000e+00  -3.3355088242519233e-04 3.2128200533123020e-05 0.0000000000000000e+00  -3.4090102404936103e-04 4.0917567578110882e-05 0.0000000000000000e+00  -3.4728845498631865e-04 5.1281025557295340e-05 0.0000000000000000e+00  -3.5242745809852997e-04 6.3002055801012348e-05 0.0000000000000000e+00  -3.5604278703293252e-04 7.6104412097059400e-05 0.0000000000000000e+00  -3.6018638221054487e-04 8.9335940754818119e-05 0.0000000000000000e+00  -3.6517693087059842e-04 1.0392822957011220e-04 0.0000000000000000e+00  -3.7883484667941634e-04 1.1776308227516193e-04 0.0000000000000000e+00  -4.0143027861219764e-04 1.3885394816238618e-04 0.0000000000000000e+00  -4.4387340609789978e-04 1.6572963266270276e-04 0.0000000000000000e+00  -5.0241791836980708e-04 2.1103724747047845e-04 0.0000000000000000e+00  -5.7850022769964757e-04 2.7362462178109859e-04 0.0000000000000000e+00  -6.6143617313732127e-04 3.5300856935361686e-04 0.0000000000000000e+00  -7.4886901489006421e-04 4.4096189433320875e-04 0.0000000000000000e+00  -8.3952776571581136e-04 5.3083307163201432e-04 0.0000000000000000e+00  -9.4196458058337770e-04 6.2103551804574880e-04 0.0000000000000000e+00  -1.0544513939834521e-03 7.2044759367051133e-04 0.0000000000000000e+00  -1.1754261902772161e-03 8.3160505779838610e-04 0.0000000000000000e+00  -1.2919211135384041e-03 9.5883930424040930e-04 0.0000000000000000e+00  -1.3921995502621616e-03 1.1003028457894110e-03 0.0000000000000000e+00  -1.4600383487585840e-03 1.2481087124318077e-03 0.0000000000000000e+00  -1.4889383355793132e-03 1.4095606154902803e-03 0.0000000000000000e+00  -1.4840844634235891e-03 1.5730489957057395e-03 0.0000000000000000e+00  -1.4573104782942669e-03 1.7161728864882606e-03 0.0000000000000000e+00  1.5400748429766479e-03 1.0905608677440675e-03 0.0000000000000000e+00  1.5273490839082596e-03 1.0633045211465759e-03 0.0000000000000000e+00  1.4798157848709824e-03 1.0240053582194629e-03 0.0000000000000000e+00  1.4064291878526992e-03 9.8510