<?xml version="1.0"?>
<VTKFile type="UnstructuredGrid"  version="0.1"  >
<UnstructuredGrid>
<Piece  NumberOfPoints="3879" NumberOfCells="6881">
<Points>
<DataArray  type="Float64"  NumberOfComponents="3"  format="ascii">0.207524190028372 0.2122422770132111 0  0 0 0  1 0 0  0 1 0  1 1 0  0.6249674373315121 0.2590146544375328 0  0.204663578893616 0.322657230836866 0  0.09605577522599912 0.4018360776629776 0  0.671351124618251 0.08738059142081528 0  0.7842102907526436 0.1666439122351055 0  0.8512483166984784 0.1985391006160637 0  0.6418797837909295 0.4423157172830166 0  0.9292488447973215 0.3869277868069776 0  0.3197896119137055 0.5509935221980964 0  0.3979283685568406 0.5079871620336583 0  0.1572503457993085 0.7345153245035532 0  0.3032914287999163 0.7872981443735918 0  0.3549464687598876 0.8870324161721976 0  0.9691791685505482 0.5159450047798622 0  0.9447564590470373 0.6146164845729313 0  0.7687603548175107 0.7176858127488035 0  0.8926159261971183 0.7422924070424508 0  0.2061587782631535 0.2217389244366831 0  0.2021731605082994 0.2304662099646423 0  0.1958902278109265 0.2377171008267789 0  0.1878189860121365 0.2429041729681512 0  0.1786133191209442 0.2456072006525708 0  0.1690190155206647 0.2456072006525708 0  0.1598133486294724 0.2429041729681512 0  0.1517421068306824 0.2377171008267789 0  0.1454591741333096 0.2304662099646422 0  0.1414735563784554 0.221738924436683 0  0.1401081446132369 0.212242277013211 0  0.1414735563784555 0.202745629589739 0  0.1454591741333096 0.1940183440617798 0  0.1517421068306825 0.1867674531996431 0  0.1598133486294725 0.1815803810582709 0  0.1690190155206649 0.1788773533738513 0  0.1786133191209443 0.1788773533738514 0  0.1878189860121367 0.181580381058271 0  0.1958902278109266 0.1867674531996433 0  0.2021731605082994 0.19401834406178 0  0.2061587782631535 0.2027456295897391 0  0.03333333333333333 0 0  0.06666666666666667 0 0  0.1 0 0  0.1333333333333333 0 0  0.1666666666666667 0 0  0.2 0 0  0.2333333333333333 0 0  0.2666666666666667 0 0  0.3 0 0  0.3333333333333333 0 0  0.3666666666666666 0 0  0.4 0 0  0.4333333333333333 0 0  0.4666666666666667 0 0  0.5 0 0  0.5333333333333333 0 0  0.5666666666666667 0 0  0.6 0 0  0.6333333333333333 0 0  0.6666666666666666 0 0  0.7 0 0  0.7333333333333333 0 0  0.7666666666666667 0 0  0.8 0 0  0.8333333333333334 0 0  0.8666666666666667 0 0  0.9 0 0  0.9333333333333333 0 0  0.9666666666666667 0 0  0 0.9666666666666667 0  0 0.9333333333333333 0  0 0.9 0  0 0.8666666666666667 0  0 0.8333333333333334 0  0 0.8 0  0 0.7666666666666666 0  0 0.7333333333333334 0  0 0.7 0  0 0.6666666666666667 0  0 0.6333333333333333 0  0 0.6 0  0 0.5666666666666667 0  0 0.5333333333333333 0  0 0.5 0  0 0.4666666666666667 0  0 0.4333333333333333 0  0 0.4 0  0 0.3666666666666667 0  0 0.3333333333333334 0  0 0.3 0  0 0.2666666666666667 0  0 0.2333333333333333 0  0 0.2 0  0 0.1666666666666666 0  0 0.1333333333333333 0  0 0.09999999999999998 0  0 0.06666666666666665 0  0 0.03333333333333333 0  1 0.03333333333333333 0  1 0.06666666666666667 0  1 0.1 0  1 0.1333333333333333 0  1 0.1666666666666667 0  1 0.2 0  1 0.2333333333333333 0  1 0.2666666666666667 0  1 0.3 0  1 0.3333333333333333 0  1 0.3666666666666666 0  1 0.4 0  1 0.4333333333333333 0  1 0.4666666666666667 0  1 0.5 0  1 0.5333333333333333 0  1 0.5666666666666667 0  1 0.6 0  1 0.6333333333333333 0  1 0.6666666666666666 0  1 0.7 0  1 0.7333333333333333 0  1 0.7666666666666667 0  1 0.8 0  1 0.8333333333333334 0  1 0.8666666666666667 0  1 0.9 0  1 0.9333333333333333 0  1 0.9666666666666667 0  0.9666666666666667 1 0  0.9333333333333333 1 0  0.9 1 0  0.8666666666666667 1 0  0.8333333333333334 1 0  0.8 1 0  0.7666666666666666 1 0  0.7333333333333334 1 0  0.7 1 0  0.6666666666666667 1 0  0.6333333333333333 1 0  0.6 1 0  0.5666666666666667 1 0  0.5333333333333333 1 0  0.5 1 0  0.4666666666666667 1 0  0.4333333333333333 1 0  0.4 1 0  0.3666666666666667 1 0  0.3333333333333334 1 0  0.3 1 0  0.2666666666666667 1 0  0.2333333333333333 1 0  0.2 1 0  0.1666666666666666 1 0  0.1333333333333333 1 0  0.09999999999999998 1 0  0.06666666666666665 1 0  0.03333333333333333 1 0  0.6247072676344306 0.2689501343248463 0  0.6239274716502419 0.2788583817523955 0  0.6226301867455355 0.2887122389026952 0  0.6208189686880621 0.2984846970382296 0  0.6184987819006211 0.3081489705305245 0  0.6156759858539226 0.317678570277693 0  0.6123583176357204 0.3270473763092224 0  0.6085548707439923 0.3362297093789981 0  0.6042760701622942 0.3452004013503318 0  0.5995336437856049 0.3539348641800754 0  0.5943405902749808 0.3624091573127375 0  0.5887111434291297 0.3706000532998825 0  0.582660733170558 0.3784851014649517 0  0.5762059432532257 0.3860426894390078 0  0.5693644658076293 0.3932521023987353 0  0.5621550528479018 0.4000935798443317 0  0.5545974648738458 0.4065483697616639 0  0.5467124167087765 0.4125987800202355 0  0.5385215207216315 0.4182282268660866 0  0.5300472275889694 0.4234212803767108 0  0.5213127647592257 0.4281637067534002 0  0.512342072787892 0.4324425073350981 0  0.5031597397181163 0.4362459542268262 0  0.493790933686587 0.4395636224450283 0  0.4842613339394185 0.4423864184917269 0  0.4745970604471235 0.4447066052791678 0  0.4648246023115891 0.4465178233366412 0  0.4549707451612894 0.4478151082413475 0  0.4450624977337403 0.4485949042255363 0  0.4351270178464268 0.4488550739226177 0  0.4251915379591132 0.4485949042255363 0  0.4152832905315641 0.4478151082413475 0  0.4054294333812644 0.4465178233366411 0  0.39565697524573 0.4447066052791677 0  0.385992701753435 0.4423864184917267 0  0.3764631020062665 0.4395636224450281 0  0.3670942959747371 0.4362459542268259 0  0.3579119629049616 0.4324425073350978 0  0.3489412709336278 0.4281637067533998 0  0.3402068081038843 0.4234212803767103 0  0.3317325149712221 0.4182282268660862 0  0.3235416189840771 0.412598780020235 0  0.3156565708190078 0.4065483697616634 0  0.3080989828449519 0.4000935798443311 0  0.3008895698852244 0.3932521023987346 0  0.2940480924396279 0.3860426894390071 0  0.2875933025222958 0.3784851014649511 0  0.2815428922637242 0.3706000532998818 0  0.2759134454178731 0.3624091573127368 0  0.2707203919072489 0.3539348641800746 0  0.2659779655305596 0.3452004013503309 0  0.2616991649488616 0.3362297093789972 0  0.2578957180571336 0.3270473763092215 0  0.2545780498389315 0.3176785702776921 0  0.251755253792233 0.3081489705305236 0  0.249435067004792 0.2984846970382286 0  0.2476238489473186 0.2887122389026941 0  0.2463265640426123 0.2788583817523945 0  0.2455467680584236 0.2689501343248454 0  0.2452865983613423 0.2590146544375318 0  0.2455467680584237 0.2490791745502182 0  0.2463265640426126 0.2391709271226692 0  0.247623848947319 0.2293170699723696 0  0.2494350670047924 0.2195446118368351 0  0.2517552537922335 0.2098803383445402 0  0.2545780498389321 0.2003507385973717 0  0.2578957180571343 0.1909819325658423 0  0.2616991649488624 0.1817995994960667 0  0.2659779655305604 0.172828907524733 0  0.2707203919072498 0.1640944446949895 0  0.2759134454178741 0.1556201515623273 0  0.2815428922637251 0.1474292555751825 0  0.2875933025222969 0.1395442074101132 0  0.2940480924396291 0.1319866194360571 0  0.3008895698852256 0.1247772064763297 0  0.3080989828449531 0.1179357290307334 0  0.3156565708190092 0.1114809391134012 0  0.3235416189840785 0.1054305288548295 0  0.3317325149712236 0.09980108200897844 0  0.3402068081038856 0.0946080284983544 0  0.3489412709336291 0.08986560212166514 0  0.357911962904963 0.08558680153996717 0  0.3670942959747386 0.08178335464823916 0  0.3764631020062678 0.07846568643003712 0  0.3859927017534364 0.0756428903833386 0  0.3956569752457313 0.0733227035958976 0  0.4054294333812659 0.07151148553842429 0  0.4152832905315654 0.07021420063371797 0  0.4251915379591144 0.0694344046495293 0  0.435127017846428 0.0691742349524479 0  0.4450624977337415 0.06943440464952938 0  0.4549707451612905 0.07021420063371814 0  0.4648246023115901 0.07151148553842454 0  0.4745970604471245 0.07332270359589793 0  0.4842613339394195 0.07564289038333902 0  0.4937909336865879 0.07846568643003757 0  0.5031597397181173 0.0817833546482398 0  0.5123420727878929 0.08558680153996781 0  0.5213127647592265 0.08986560212166581 0  0.53004722758897 0.0946080284983552 0  0.5385215207216321 0.09980108200897933 0  0.5467124167087771 0.1054305288548305 0  0.5545974648738462 0.1114809391134021 0  0.5621550528479023 0.1179357290307343 0  0.5693644658076298 0.1247772064763308 0  0.576205943253226 0.1319866194360582 0  0.5826607331705582 0.1395442074101142 0  0.5887111434291299 0.1474292555751835 0  0.594340590274981 0.1556201515623285 0  0.5995336437856051 0.1640944446949906 0  0.6042760701622945 0.172828907524734 0  0.6085548707439925 0.1817995994960678 0  0.6123583176357205 0.1909819325658435 0  0.6156759858539227 0.2003507385973728 0  0.6184987819006211 0.2098803383445412 0  0.6208189686880622 0.2195446118368362 0  0.6226301867455355 0.2293170699723706 0  0.6239274716502419 0.2391709271226702 0  0.6247072676344306 0.2490791745502192 0  0.203885768735257 0.3325402459548524 0  0.2015714905276826 0.3421799084407872 0  0.1977777294810124 0.3513388578120612 0  0.1925979005829864 0.3597915703383434 0  0.1861595484119405 0.3673299121842922 0  0.1786212065659918 0.373768264355338 0  0.1701684940397096 0.378948093253364 0  0.1610095446684356 0.3827418543000342 0  0.1513698821825007 0.3850561325076086 0  0.1414868670645144 0.3858339426659677 0  0.1316038519465281 0.3850561325076086 0  0.1219641894605933 0.3827418543000343 0  0.1128052400893193 0.378948093253364 0  0.1043525275630371 0.3737682643553381 0  0.09681418571708833 0.3673299121842922 0  0.09037583354604248 0.3597915703383434 0  0.08519600464801645 0.3513388578120612 0  0.08140224360134621 0.3421799084407872 0  0.07908796539377183 0.3325402459548523 0  0.07831015523541281 0.3226572308368659 0  0.07908796539377186 0.3127742157188796 0  0.08140224360134626 0.3031345532329447 0  0.08519600464801655 0.2939756038616707 0  0.0903758335460426 0.2855228913353884 0  0.0968141857
[...]
<PointData  Vectors="$u$"> 
<DataArray  type="Float64"  Name="$u$"  NumberOfComponents="3" format="ascii">3.7037040915771467e-04 6.8941220378745949e-04 0.0000000000000000e+00  0.0000000000000000e+00 0.0000000000000000e+00 0.0000000000000000e+00  -9.0999567164969390e-04 0.0000000000000000e+00 0.0000000000000000e+00  -1.6163859223795448e-04 7.7499999999999999e-03 0.0000000000000000e+00  -1.0954468857274388e-03 7.7499999999999999e-03 0.0000000000000000e+00  -1.4495046207494945e-03 1.9195676305688724e-03 0.0000000000000000e+00  1.5634481064507838e-03 1.1332755815144655e-03 0.0000000000000000e+00  1.3528317819620202e-03 1.9943631086849051e-03 0.0000000000000000e+00  -8.1471334095524971e-04 2.5380058854616183e-04 0.0000000000000000e+00  -1.2062307406906028e-03 1.6147563987213644e-05 0.0000000000000000e+00  -1.3730219433774847e-03 2.1911078258218434e-04 0.0000000000000000e+00  -6.9919481909007404e-06 3.0646834720259300e-03 0.0000000000000000e+00  -3.5209117169409227e-03 2.0994850671243828e-03 0.0000000000000000e+00  -4.5625861754747699e-04 4.7302611060382012e-03 0.0000000000000000e+00  -3.2073753500311438e-04 4.2683294398550434e-03 0.0000000000000000e+00  1.1682003881787713e-03 7.4309548056915699e-03 0.0000000000000000e+00  4.4859295712197596e-04 6.1475486354766800e-03 0.0000000000000000e+00  -6.3494250375573233e-04 7.4274674771034419e-03 0.0000000000000000e+00  -3.7408473113133196e-03 3.7738314244786806e-03 0.0000000000000000e+00  -2.7355030389682156e-03 5.5824094151456557e-03 0.0000000000000000e+00  -1.9500625244494568e-03 7.0472037814395183e-03 0.0000000000000000e+00  -1.7901909773714131e-03 6.9896865407294813e-03 0.0000000000000000e+00  4.9745464835602104e-04 8.1500991561995659e-04 0.0000000000000000e+00  6.3056178809616447e-04 9.2738070305938816e-04 0.0000000000000000e+00  7.4878182291999280e-04 1.0242581548350160e-03 0.0000000000000000e+00  8.4010226470245257e-04 1.0657418337354583e-03 0.0000000000000000e+00  9.0949780602871599e-04 1.0473627990950545e-03 0.0000000000000000e+00  9.1954971407751010e-04 9.3736286825807065e-04 0.0000000000000000e+00  8.9777539656735671e-04 7.7590065020817869e-04 0.0000000000000000e+00  8.2264608525078116e-04 6.3769238793636698e-04 0.0000000000000000e+00  7.1467022728092340e-04 5.5888704719204985e-04 0.0000000000000000e+00  6.1860253047866479e-04 5.2032343974026292e-04 0.0000000000000000e+00  5.1902201556498014e-04 4.7051428196745367e-04 0.0000000000000000e+00  4.3075303963119917e-04 4.3101732476683301e-04 0.0000000000000000e+00  3.5099465032295958e-04 3.8268271643800763e-04 0.0000000000000000e+00  2.8329882304404440e-04 3.3995079727311975e-04 0.0000000000000000e+00  2.2260979973753344e-04 3.1292514420287981e-04 0.0000000000000000e+00  1.8249037585991228e-04 3.0244619368793624e-04 0.0000000000000000e+00  1.5436499448732367e-04 3.1265993992346113e-04 0.0000000000000000e+00  1.4614573207550404e-04 3.4475633681704137e-04 0.0000000000000000e+00  1.6409819567532246e-04 3.9935352562878396e-04 0.0000000000000000e+00  2.0047856188875940e-04 4.7304602195807742e-04 0.0000000000000000e+00  2.7374895462512904e-04 5.7264003910298010e-04 0.0000000000000000e+00  0.0000000000000000e+00 0.0000000000000000e+00 0.0000000000000000e+00  -7.4854352504234121e-05 0.0000000000000000e+00 0.0000000000000000e+00  -1.0030492731829322e-04 0.0000000000000000e+00 0.0000000000000000e+00  -1.3322450487882048e-04 0.0000000000000000e+00 0.0000000000000000e+00  -1.5473945280510272e-04 0.0000000000000000e+00 0.0000000000000000e+00  -1.7678310867248422e-04 0.0000000000000000e+00 0.0000000000000000e+00  -1.9515945637595838e-04 0.0000000000000000e+00 0.0000000000000000e+00  -2.1318885975859389e-04 0.0000000000000000e+00 0.0000000000000000e+00  -2.2735958024865151e-04 0.0000000000000000e+00 0.0000000000000000e+00  -2.3830239410233507e-04 0.0000000000000000e+00 0.0000000000000000e+00  -2.4885885057697899e-04 0.0000000000000000e+00 0.0000000000000000e+00  -2.6300328448031457e-04 0.0000000000000000e+00 0.0000000000000000e+00  -2.7996552317481973e-04 0.0000000000000000e+00 0.0000000000000000e+00  -2.9994760532505696e-04 0.0000000000000000e+00 0.0000000000000000e+00  -3.2454176245058668e-04 0.0000000000000000e+00 0.0000000000000000e+00  -3.6282047281993368e-04 0.0000000000000000e+00 0.0000000000000000e+00  -4.2273374300095916e-04 0.0000000000000000e+00 0.0000000000000000e+00  -5.0219746922563157e-04 0.0000000000000000e+00 0.0000000000000000e+00  -5.6032352919892941e-04 0.0000000000000000e+00 0.0000000000000000e+00  -6.1013970936446386e-04 0.0000000000000000e+00 0.0000000000000000e+00  -6.7744634177293846e-04 0.0000000000000000e+00 0.0000000000000000e+00  -7.2336110784789365e-04 0.0000000000000000e+00 0.0000000000000000e+00  -7.3792319546487403e-04 0.0000000000000000e+00 0.0000000000000000e+00  -7.4121190272066339e-04 0.0000000000000000e+00 0.0000000000000000e+00  -7.4207473951070789e-04 0.0000000000000000e+00 0.0000000000000000e+00  -7.5416695658345710e-04 0.0000000000000000e+00 0.0000000000000000e+00  -7.7119975551789128e-04 0.0000000000000000e+00 0.0000000000000000e+00  -8.0589174952734209e-04 0.0000000000000000e+00 0.0000000000000000e+00  -8.5230169277620313e-04 0.0000000000000000e+00 0.0000000000000000e+00  -1.4760667763523151e-04 7.5291267813789638e-03 0.0000000000000000e+00  -9.9985113419524748e-05 7.3070808152227206e-03 0.0000000000000000e+00  -2.0396526665072301e-05 7.0763855597176500e-03 0.0000000000000000e+00  1.0059398975630242e-04 6.8404659892470372e-03 0.0000000000000000e+00  2.6192974793450940e-04 6.5973339279279848e-03 0.0000000000000000e+00  4.6861024736596284e-04 6.3443176295545937e-03 0.0000000000000000e+00  7.2187198580271074e-04 6.0837071019507897e-03 0.0000000000000000e+00  1.0250818416567310e-03 5.7945410009054843e-03 0.0000000000000000e+00  1.4081995304398283e-03 5.4788807870255309e-03 0.0000000000000000e+00  1.8959209034561685e-03 5.1306545237902448e-03 0.0000000000000000e+00  2.5130493212916680e-03 4.7816831754801227e-03 0.0000000000000000e+00  3.2196577237413805e-03 4.4978543101257280e-03 0.0000000000000000e+00  3.8378585857776586e-03 4.3570837909592498e-03 0.0000000000000000e+00  3.8042427574151885e-03 4.3745912870011110e-03 0.0000000000000000e+00  3.2694980503983899e-03 4.1636536164916223e-03 0.0000000000000000e+00  2.7439630220808479e-03 3.8042578141444052e-03 0.0000000000000000e+00  2.4785065807175891e-03 3.2673875454718249e-03 0.0000000000000000e+00  2.3219078613638164e-03 2.9173665720717938e-03 0.0000000000000000e+00  1.8753035120920643e-03 2.6365893338901507e-03 0.0000000000000000e+00  1.4996054584733940e-03 2.2478423998724358e-03 0.0000000000000000e+00  1.2454014704910232e-03 1.9694198737110194e-03 0.0000000000000000e+00  9.9646618245457911e-04 1.7273758682143747e-03 0.0000000000000000e+00  7.6716828932043419e-04 1.5012819009783736e-03 0.0000000000000000e+00  5.6266806256711707e-04 1.2780113479377976e-03 0.0000000000000000e+00  3.9097137098481914e-04 1.0590312454108995e-03 0.0000000000000000e+00  2.5465885183930336e-04 8.3631228824579548e-04 0.0000000000000000e+00  1.5461671757727220e-04 6.2490675798623210e-04 0.0000000000000000e+00  8.5635930458383440e-05 4.0491756776376756e-04 0.0000000000000000e+00  5.6274203841989793e-05 2.1080295835046250e-04 0.0000000000000000e+00  -9.2341195522374598e-04 2.1324713445183046e-04 0.0000000000000000e+00  -9.7113536515785147e-04 4.3051109408700372e-04 0.0000000000000000e+00  -1.0513389888758687e-03 6.5283503589955161e-04 0.0000000000000000e+00  -1.1707515899011802e-03 8.8545979925648078e-04 0.0000000000000000e+00  -1.3359879708934970e-03 1.1305071105122369e-03 0.0000000000000000e+00  -1.5579509711894605e-03 1.3885562267452998e-03 0.0000000000000000e+00  -1.8417119940551208e-03 1.6531562750582590e-03 0.0000000000000000e+00  -2.2001924707597880e-03 1.9294300608892246e-03 0.0000000000000000e+00  -2.6316296270333982e-03 2.1856575515624200e-03 0.0000000000000000e+00  -3.0985013356365091e-03 2.3961663978199783e-03 0.0000000000000000e+00  -3.5132912321794636e-03 2.5339905746498267e-03 0.0000000000000000e+00  -3.7621190964230874e-03 2.6252415761143740e-03 0.0000000000000000e+00  -3.8183683696451469e-03 2.7509691125065074e-03 0.0000000000000000e+00  -3.7825118873660649e-03 3.0293363306665576e-03 0.0000000000000000e+00  -4.1150081956821570e-03 3.5181658125701181e-03 0.0000000000000000e+00  -3.9567985391503338e-03 3.5738444263953345e-03 0.0000000000000000e+00  -2.7286264033040365e-03 5.1378195089098475e-03 0.0000000000000000e+00  -2.8490898072039725e-03 5.4242352275036126e-03 0.0000000000000000e+00  -2.8195543087508835e-03 5.5496376193813037e-03 0.0000000000000000e+00  -2.5665320923609881e-03 5.6919830826241222e-03 0.0000000000000000e+00  -2.2545362652537670e-03 5.8903558690307006e-03 0.0000000000000000e+00  -1.9774134329461068e-03 6.1153323251206390e-03 0.0000000000000000e+00  -1.7423186587999402e-03 6.3337825740614681e-03 0.0000000000000000e+00  -1.5462182623340048e-03 6.5516550536771929e-03 0.0000000000000000e+00  -1.3939794194694093e-03 6.7672700823850273e-03 0.0000000000000000e+00  -1.2808929130307526e-03 6.9735704695183531e-03 0.0000000000000000e+00  -1.1977646584598934e-03 7.1729324636412486e-03 0.0000000000000000e+00  -1.1407392337214085e-03 7.3666608026178885e-03 0.0000000000000000e+00  -1.1056989188500726e-03 7.5588190997156589e-03 0.0000000000000000e+00  -1.0430084628355115e-03 7.7499999999999999e-03 0.0000000000000000e+00  -9.9562624066668656e-04 7.7499999999999999e-03 0.0000000000000000e+00  -9.5666619579628338e-04 7.7499999999999999e-03 0.0000000000000000e+00  -9.2324408471086065e-04 7.7499999999999999e-03 0.0000000000000000e+00  -8.9390339599370596e-04 7.7499999999999999e-03 0.0000000000000000e+00  -8.6692573883882145e-04 7.7499999999999999e-03 0.0000000000000000e+00  -8.4395963216840164e-04 7.7499999999999999e-03 0.0000000000000000e+00  -8.2673650233653262e-04 7.7499999999999999e-03 0.0000000000000000e+00  -8.1241609409020735e-04 7.7499999999999999e-03 0.0000000000000000e+00  -8.0280060868080779e-04 7.7499999999999999e-03 0.0000000000000000e+00  -7.8937302957461512e-04 7.7499999999999999e-03 0.0000000000000000e+00  -7.7342073222818383e-04 7.7499999999999999e-03 0.0000000000000000e+00  -7.5319634155454737e-04 7.7499999999999999e-03 0.0000000000000000e+00  -7.3105727576431060e-04 7.7499999999999999e-03 0.0000000000000000e+00  -7.0855342809653316e-04 7.7499999999999999e-03 0.0000000000000000e+00  -6.8071138994484017e-04 7.7499999999999999e-03 0.0000000000000000e+00  -6.4409368138986433e-04 7.7499999999999999e-03 0.0000000000000000e+00  -5.9173600138865670e-04 7.7499999999999999e-03 0.0000000000000000e+00  -5.3005529288972135e-04 7.7499999999999999e-03 0.0000000000000000e+00  -4.7709877090698356e-04 7.7499999999999999e-03 0.0000000000000000e+00  -4.4451602718506507e-04 7.7499999999999999e-03 0.0000000000000000e+00  -4.1552342558999386e-04 7.7499999999999999e-03 0.0000000000000000e+00  -3.8012840784700625e-04 7.7499999999999999e-03 0.0000000000000000e+00  -3.5341819016724456e-04 7.7499999999999999e-03 0.0000000000000000e+00  -3.4074454758735857e-04 7.7499999999999999e-03 0.0000000000000000e+00  -3.2451456097772074e-04 7.7499999999999999e-03 0.0000000000000000e+00  -3.0427712215684176e-04 7.7499999999999999e-03 0.0000000000000000e+00  -2.6986229789600219e-04 7.7499999999999999e-03 0.0000000000000000e+00  -2.2066380434893770e-04 7.7499999999999999e-03 0.0000000000000000e+00  -1.3706918464013854e-03 2.0390896344043290e-03 0.0000000000000000e+00  -1.2805150328608899e-03 2.1554022287158616e-03 0.0000000000000000e+00  -1.1789881607571153e-03 2.2723090540786996e-03 0.0000000000000000e+00  -1.0707860211925616e-03 2.3825285052075356e-03 0.0000000000000000e+00  -9.5714320432405153e-04 2.4939779000520525e-03 0.0000000000000000e+00  -8.4030789058459120e-04 2.5973765302432401e-03 0.0000000000000000e+00  -7.2501099965365044e-04 2.6915520833568798e-03 0.0000000000000000e+00  -6.1752583561617712e-04 2.7758505702380324e-03 0.0000000000000000e+00  -5.1889762726349575e-04 2.8469155054835407e-03 0.0000000000000000e+00  -4.3614227090002446e-04 2.9032076668941897e-03 0.0000000000000000e+00  -3.7064169695559849e-04 2.9473256526130428e-03 0.0000000000000000e+00  -3.2434905942317746e-04 2.9783674014698396e-03 0.0000000000000000e+00  -2.9953457071220385e-04 2.9997013216144374e-03 0.0000000000000000e+00  -2.9462178490410022e-04 3.0136406044075042e-03 0.0000000000000000e+00  -3.1091444898694086e-04 3.0215841079361439e-03 0.0000000000000000e+00  -3.4680999774757397e-04 3.0335756160479728e-03 0.0000000000000000e+00  -3.9384031613685840e-04 3.0555197577881582e-03 0.0000000000000000e+00  -4.4412927366496778e-04 3.0915591620099899e-03 0.0000000000000000e+00  -4.9197529814972308e-04 3.1439126204757350e-03 0.0000000000000000e+00  -5.3237367700202090e-04 3.2078597737935834e-03 0.0000000000000000e+00  -5.6664785847879943e-04 3.2851450038213449e-03 0.0000000000000000e+00  -5.9264174658123822e-04 3.3718243403982949e-03 0.0000000000000000e+00  -6.1037283710295778e-04 3.4665480173670187e-03 0.0000000000000000e+00  -6.2027454802773320e-04 3.5667770992039976e-03 0.0000000000000000e+00  -6.2220555388743963e-04 3.6691579897082855e-03 0.0000000000000000e+00  -6.1737255064108474e-04 3.7706439917367337e-03 0.0000000000000000e+00  -6.0523376599053191e-04 3.8679942512356638e-03 0.0000000000000000e+00  -5.8979005253030029e-04 3.9584070130350927e-03 0.0000000000000000e+00  -5.7050038051183638e-04 4.0413551833492940e-03 0.0000000000000000e+00  -5.4859295706106634e-04 4.1161154042288674e-03 0.0000000000000000e+00  -5.2466942387246877e-04 4.1830783659736089e-03 0.0000000000000000e+00  -4.9611757530985457e-04 4.2443026474720839e-03 0.0000000000000000e+00  -4.5996781270947300e-04 4.2977005423125089e-03 0.0000000000000000e+00  -4.1098998891563797e-04 4.3415964409036405e-03 0.0000000000000000e+00  -3.4143431391808705e-04 4.3671620829448272e-03 0.0000000000000000e+00  -2.5136922523323808e-04 4.3649652628365426e-03 0.0000000000000000e+00  -1.4136661832772973e-04 4.3307503698162978e-03 0.0000000000000000e+00  -1.2429913149455394e-05 4.2627986723697111e-03 0.0000000000000000e+00  1.3459199816649465e-04 4.1610800775069030e-03 0.0000000000000000e+00  2.9779627611400543e-04 4.0235203902529012e-03 0.0000000000000000e+00  4.7328570047258780e-04 3.8519354400849094e-03 0.0000000000000000e+00  6.5579295187873608e-04 3.6467405472604356e-03 0.0000000000000000e+00  8.3457030902639126e-04 3.4155727739845964e-03 0.0000000000000000e+00  1.0055780675632660e-03 3.1658452721768280e-03 0.0000000000000000e+00  1.1612092163044605e-03 2.9079444247793944e-03 0.0000000000000000e+00  1.2895291593650374e-03 2.6475951068996718e-03 0.0000000000000000e+00  1.3966493585611222e-03 2.4054324196843002e-03 0.0000000000000000e+00  1.4751307832788390e-03 2.1757957556999795e-03 0.0000000000000000e+00  1.5246255310794111e-03 1.9613643969365862e-03 0.0000000000000000e+00  1.5548882337614671e-03 1.7649815595709821e-03 0.0000000000000000e+00  1.5680915149329331e-03 1.5846349975477568e-03 0.0000000000000000e+00  1.5615619605550801e-03 1.4222112403252519e-03 0.0000000000000000e+00  1.5358523669339276e-03 1.2673345325249538e-03 0.0000000000000000e+00  1.4873714136061636e-03 1.1256472558589458e-03 0.0000000000000000e+00  1.4195997859503169e-03 1.0009508616896162e-03 0.0000000000000000e+00  1.3299776701204929e-03 8.9714137471400240e-04 0.0000000000000000e+00  1.2267677894358571e-03 8.0715170459935064e-04 0.0000000000000000e+00  1.1186988619487912e-03 7.2820835645682515e-04 0.0000000000000000e+00  1.0095556544920299e-03 6.5206176176456506e-04 0.0000000000000000e+00  8.9869460576811873e-04 5.7752788978406413e-04 0.0000000000000000e+00  7.8312863571531710e-04 5.0034801324146886e-04 0.0000000000000000e+00  6.5868907604901101e-04 4.2275817287357642e-04 0.0000000000000000e+00  5.2894950753993881e-04 3.5829182488135414e-04 0.0000000000000000e+00  4.0802295671988145e-04 3.0587875675046013e-04 0.0000000000000000e+00  3.0528744897023394e-04 2.6933828319809154e-04 0.0000000000000000e+00  2.2629930548520534e-04 2.3931558207659532e-04 0.0000000000000000e+00  1.6749229901150183e-04 2.1373894386785041e-04 0.0000000000000000e+00  1.2304375939700704e-04 1.8659205454634654e-04 0.0000000000000000e+00  8.6978795460772751e-05 1.5988717712368708e-04 0.0000000000000000e+00  5.4899705119645944e-05 1.3261044140675790e-04 0.0000000000000000e+00  2.5412515158579928e-05 1.0773226901396455e-04 0.0000000000000000e+00  -2.6560802243410723e-06 8.4415074308885675e-05 0.0000000000000000e+00  -2.9522797097048173e-05 6.4447011836476584e-05 0.0000000000000000e+00  -5.4917132047924193e-05 4.6858289916073337e-05 0.0000000000000000e+00  -7.9139073883203838e-05 3.2996177620786230e-05 0.0000000000000000e+00  -1.0160050851038086e-04 2.1266229136425260e-05 0.0000000000000000e+00  -1.2258444388492393e-04 1.2850748975819382e-05 0.0000000000000000e+00  -1.4181869921765910e-04 6.3999961901369285e-06 0.0000000000000000e+00  -1.5926263153563259e-04 2.1033707698408104e-06 0.0000000000000000e+00  -1.7562347651489175e-04 -4.0676562344367685e-07 0.0000000000000000e+00  -1.9009972257046011e-04 -1.4920585201289520e-06 0.0000000000000000e+00  -2.0365090148150242e-04 -1.5918822323502806e-06 0.0000000000000000e+00  -2.1581399175030880e-04 -8.9255763110837954e-07 0.0000000000000000e+00  -2.2728709869406511e-04 2.3475103382960969e-07 0.0000000000000000e+00  -2.3784585522558128e-04 1.6697589998436767e-06 0.0000000000000000e+00  -2.4814269000653918e-04 3.1187579168159184e-06 0.0000000000000000e+00  -2.5794022544024293e-04 4.6496127199226802e-06 0.0000000000000000e+00  -2.6760214426796512e-04 6.0247051087514482e-06 0.0000000000000000e+00  -2.7728540734635809e-04 7.4489064456991541e-06 0.0000000000000000e+00  -2.8704128897946203e-04 8.9410661693483629e-06 0.0000000000000000e+00  -2.9697929472555587e-04 1.0760124046342837e-05 0.0000000000000000e+00  -3.0685283840686366e-04 1.3009623177120630e-05 0.0000000000000000e+00  -3.1705432183184767e-04 1.6011952385085315e-05 0.0000000000000000e+00  -3.2727123134359409e-04 2.0466927316328401e-05 0.0000000000000000e+00  -3.3670115012752430e-04 2.6071676995828210e-05 0.0000000000000000e+00  -3.4601892450518266e-04 3.3489214603495467e-05 0.0000000000000000e+00  -3.5370677131681453e-04 4.2602350124459701e-05 0.0000000000000000e+00  -3.6039173409056763e-04 5.3341238699349942e-05 0.0000000000000000e+00  -3.6576171982354743e-04 6.5479036187944393e-05 0.0000000000000000e+00  -3.6952189286609030e-04 7.9034275800851344e-05 0.0000000000000000e+00  -3.7384764785191210e-04 9.2692122008526017e-05 0.0000000000000000e+00  -3.7896835750713504e-04 1.0776816483756028e-04 0.0000000000000000e+00  -3.9317231520848850e-04 1.2194479511677194e-04 0.0000000000000000e+00  -4.1657840220739339e-04 1.4370299704938151e-04 0.0000000000000000e+00  -4.6069557979518051e-04 1.7131636344986634e-04 0.0000000000000000e+00  -5.2159644021644775e-04 2.1809539688271500e-04 0.0000000000000000e+00  -6.0084839322286623e-04 2.8279889713119698e-04 0.0000000000000000e+00  -6.8738827835464276e-04 3.6498983551028571e-04 0.0000000000000000e+00  -7.7875081669984071e-04 4.5622036563480956e-04 0.0000000000000000e+00  -8.7340873508558897e-04 5.4958334169054833e-04 0.0000000000000000e+00  -9.8023668949908890e-04 6.4329942944199635e-04 0.0000000000000000e+00  -1.0971413685028264e-03 7.4657327415521605e-04 0.0000000000000000e+00  -1.2226367246547199e-03 8.6169004405105721e-04 0.0000000000000000e+00  -1.3431503644129527e-03 9.9294943881176245e-04 0.0000000000000000e+00  -1.4473636390423025e-03 1.1381607703757782e-03 0.0000000000000000e+00  -1.5144610352631753e-03 1.2909624520122780e-03 0.0000000000000000e+00  -1.5404425656283392e-03 1.4619367107251012e-03 0.0000000000000000e+00  -1.5336165778758104e-03 1.6357128715893052e-03 0.0000000000000000e+00  -1.5076854276640927e-03 1.7873206564300345e-03 0.0000000000000000e+00  1.5916162848103467e-03 1.1226665775767395e-03 0.0000000000000000e+00  1.5795442048369738e-03 1.0941300425109050e-03 0.0000000000000000e+00  1.5311236105238857e-03 1.0530264195934053e-03 0.0000000000000000e+00  1.4556392840624926e-03 1.0122