<?xml version="1.0"?>
<VTKFile type="UnstructuredGrid"  version="0.1"  >
<UnstructuredGrid>
<Piece  NumberOfPoints="3879" NumberOfCells="6881">
<Points>
<DataArray  type="Float64"  NumberOfComponents="3"  format="ascii">0.207524190028372 0.2122422770132111 0  0 0 0  1 0 0  0 1 0  1 1 0  0.6249674373315121 0.2590146544375328 0  0.204663578893616 0.322657230836866 0  0.09605577522599912 0.4018360776629776 0  0.671351124618251 0.08738059142081528 0  0.7842102907526436 0.1666439122351055 0  0.8512483166984784 0.1985391006160637 0  0.6418797837909295 0.4423157172830166 0  0.9292488447973215 0.3869277868069776 0  0.3197896119137055 0.5509935221980964 0  0.3979283685568406 0.5079871620336583 0  0.1572503457993085 0.7345153245035532 0  0.3032914287999163 0.7872981443735918 0  0.3549464687598876 0.8870324161721976 0  0.9691791685505482 0.5159450047798622 0  0.9447564590470373 0.6146164845729313 0  0.7687603548175107 0.7176858127488035 0  0.8926159261971183 0.7422924070424508 0  0.2061587782631535 0.2217389244366831 0  0.2021731605082994 0.2304662099646423 0  0.1958902278109265 0.2377171008267789 0  0.1878189860121365 0.2429041729681512 0  0.1786133191209442 0.2456072006525708 0  0.1690190155206647 0.2456072006525708 0  0.1598133486294724 0.2429041729681512 0  0.1517421068306824 0.2377171008267789 0  0.1454591741333096 0.2304662099646422 0  0.1414735563784554 0.221738924436683 0  0.1401081446132369 0.212242277013211 0  0.1414735563784555 0.202745629589739 0  0.1454591741333096 0.1940183440617798 0  0.1517421068306825 0.1867674531996431 0  0.1598133486294725 0.1815803810582709 0  0.1690190155206649 0.1788773533738513 0  0.1786133191209443 0.1788773533738514 0  0.1878189860121367 0.181580381058271 0  0.1958902278109266 0.1867674531996433 0  0.2021731605082994 0.19401834406178 0  0.2061587782631535 0.2027456295897391 0  0.03333333333333333 0 0  0.06666666666666667 0 0  0.1 0 0  0.1333333333333333 0 0  0.1666666666666667 0 0  0.2 0 0  0.2333333333333333 0 0  0.2666666666666667 0 0  0.3 0 0  0.3333333333333333 0 0  0.3666666666666666 0 0  0.4 0 0  0.4333333333333333 0 0  0.4666666666666667 0 0  0.5 0 0  0.5333333333333333 0 0  0.5666666666666667 0 0  0.6 0 0  0.6333333333333333 0 0  0.6666666666666666 0 0  0.7 0 0  0.7333333333333333 0 0  0.7666666666666667 0 0  0.8 0 0  0.8333333333333334 0 0  0.8666666666666667 0 0  0.9 0 0  0.9333333333333333 0 0  0.9666666666666667 0 0  0 0.9666666666666667 0  0 0.9333333333333333 0  0 0.9 0  0 0.8666666666666667 0  0 0.8333333333333334 0  0 0.8 0  0 0.7666666666666666 0  0 0.7333333333333334 0  0 0.7 0  0 0.6666666666666667 0  0 0.6333333333333333 0  0 0.6 0  0 0.5666666666666667 0  0 0.5333333333333333 0  0 0.5 0  0 0.4666666666666667 0  0 0.4333333333333333 0  0 0.4 0  0 0.3666666666666667 0  0 0.3333333333333334 0  0 0.3 0  0 0.2666666666666667 0  0 0.2333333333333333 0  0 0.2 0  0 0.1666666666666666 0  0 0.1333333333333333 0  0 0.09999999999999998 0  0 0.06666666666666665 0  0 0.03333333333333333 0  1 0.03333333333333333 0  1 0.06666666666666667 0  1 0.1 0  1 0.1333333333333333 0  1 0.1666666666666667 0  1 0.2 0  1 0.2333333333333333 0  1 0.2666666666666667 0  1 0.3 0  1 0.3333333333333333 0  1 0.3666666666666666 0  1 0.4 0  1 0.4333333333333333 0  1 0.4666666666666667 0  1 0.5 0  1 0.5333333333333333 0  1 0.5666666666666667 0  1 0.6 0  1 0.6333333333333333 0  1 0.6666666666666666 0  1 0.7 0  1 0.7333333333333333 0  1 0.7666666666666667 0  1 0.8 0  1 0.8333333333333334 0  1 0.8666666666666667 0  1 0.9 0  1 0.9333333333333333 0  1 0.9666666666666667 0  0.9666666666666667 1 0  0.9333333333333333 1 0  0.9 1 0  0.8666666666666667 1 0  0.8333333333333334 1 0  0.8 1 0  0.7666666666666666 1 0  0.7333333333333334 1 0  0.7 1 0  0.6666666666666667 1 0  0.6333333333333333 1 0  0.6 1 0  0.5666666666666667 1 0  0.5333333333333333 1 0  0.5 1 0  0.4666666666666667 1 0  0.4333333333333333 1 0  0.4 1 0  0.3666666666666667 1 0  0.3333333333333334 1 0  0.3 1 0  0.2666666666666667 1 0  0.2333333333333333 1 0  0.2 1 0  0.1666666666666666 1 0  0.1333333333333333 1 0  0.09999999999999998 1 0  0.06666666666666665 1 0  0.03333333333333333 1 0  0.6247072676344306 0.2689501343248463 0  0.6239274716502419 0.2788583817523955 0  0.6226301867455355 0.2887122389026952 0  0.6208189686880621 0.2984846970382296 0  0.6184987819006211 0.3081489705305245 0  0.6156759858539226 0.317678570277693 0  0.6123583176357204 0.3270473763092224 0  0.6085548707439923 0.3362297093789981 0  0.6042760701622942 0.3452004013503318 0  0.5995336437856049 0.3539348641800754 0  0.5943405902749808 0.3624091573127375 0  0.5887111434291297 0.3706000532998825 0  0.582660733170558 0.3784851014649517 0  0.5762059432532257 0.3860426894390078 0  0.5693644658076293 0.3932521023987353 0  0.5621550528479018 0.4000935798443317 0  0.5545974648738458 0.4065483697616639 0  0.5467124167087765 0.4125987800202355 0  0.5385215207216315 0.4182282268660866 0  0.5300472275889694 0.4234212803767108 0  0.5213127647592257 0.4281637067534002 0  0.512342072787892 0.4324425073350981 0  0.5031597397181163 0.4362459542268262 0  0.493790933686587 0.4395636224450283 0  0.4842613339394185 0.4423864184917269 0  0.4745970604471235 0.4447066052791678 0  0.4648246023115891 0.4465178233366412 0  0.4549707451612894 0.4478151082413475 0  0.4450624977337403 0.4485949042255363 0  0.4351270178464268 0.4488550739226177 0  0.4251915379591132 0.4485949042255363 0  0.4152832905315641 0.4478151082413475 0  0.4054294333812644 0.4465178233366411 0  0.39565697524573 0.4447066052791677 0  0.385992701753435 0.4423864184917267 0  0.3764631020062665 0.4395636224450281 0  0.3670942959747371 0.4362459542268259 0  0.3579119629049616 0.4324425073350978 0  0.3489412709336278 0.4281637067533998 0  0.3402068081038843 0.4234212803767103 0  0.3317325149712221 0.4182282268660862 0  0.3235416189840771 0.412598780020235 0  0.3156565708190078 0.4065483697616634 0  0.3080989828449519 0.4000935798443311 0  0.3008895698852244 0.3932521023987346 0  0.2940480924396279 0.3860426894390071 0  0.2875933025222958 0.3784851014649511 0  0.2815428922637242 0.3706000532998818 0  0.2759134454178731 0.3624091573127368 0  0.2707203919072489 0.3539348641800746 0  0.2659779655305596 0.3452004013503309 0  0.2616991649488616 0.3362297093789972 0  0.2578957180571336 0.3270473763092215 0  0.2545780498389315 0.3176785702776921 0  0.251755253792233 0.3081489705305236 0  0.249435067004792 0.2984846970382286 0  0.2476238489473186 0.2887122389026941 0  0.2463265640426123 0.2788583817523945 0  0.2455467680584236 0.2689501343248454 0  0.2452865983613423 0.2590146544375318 0  0.2455467680584237 0.2490791745502182 0  0.2463265640426126 0.2391709271226692 0  0.247623848947319 0.2293170699723696 0  0.2494350670047924 0.2195446118368351 0  0.2517552537922335 0.2098803383445402 0  0.2545780498389321 0.2003507385973717 0  0.2578957180571343 0.1909819325658423 0  0.2616991649488624 0.1817995994960667 0  0.2659779655305604 0.172828907524733 0  0.2707203919072498 0.1640944446949895 0  0.2759134454178741 0.1556201515623273 0  0.2815428922637251 0.1474292555751825 0  0.2875933025222969 0.1395442074101132 0  0.2940480924396291 0.1319866194360571 0  0.3008895698852256 0.1247772064763297 0  0.3080989828449531 0.1179357290307334 0  0.3156565708190092 0.1114809391134012 0  0.3235416189840785 0.1054305288548295 0  0.3317325149712236 0.09980108200897844 0  0.3402068081038856 0.0946080284983544 0  0.3489412709336291 0.08986560212166514 0  0.357911962904963 0.08558680153996717 0  0.3670942959747386 0.08178335464823916 0  0.3764631020062678 0.07846568643003712 0  0.3859927017534364 0.0756428903833386 0  0.3956569752457313 0.0733227035958976 0  0.4054294333812659 0.07151148553842429 0  0.4152832905315654 0.07021420063371797 0  0.4251915379591144 0.0694344046495293 0  0.435127017846428 0.0691742349524479 0  0.4450624977337415 0.06943440464952938 0  0.4549707451612905 0.07021420063371814 0  0.4648246023115901 0.07151148553842454 0  0.4745970604471245 0.07332270359589793 0  0.4842613339394195 0.07564289038333902 0  0.4937909336865879 0.07846568643003757 0  0.5031597397181173 0.0817833546482398 0  0.5123420727878929 0.08558680153996781 0  0.5213127647592265 0.08986560212166581 0  0.53004722758897 0.0946080284983552 0  0.5385215207216321 0.09980108200897933 0  0.5467124167087771 0.1054305288548305 0  0.5545974648738462 0.1114809391134021 0  0.5621550528479023 0.1179357290307343 0  0.5693644658076298 0.1247772064763308 0  0.576205943253226 0.1319866194360582 0  0.5826607331705582 0.1395442074101142 0  0.5887111434291299 0.1474292555751835 0  0.594340590274981 0.1556201515623285 0  0.5995336437856051 0.1640944446949906 0  0.6042760701622945 0.172828907524734 0  0.6085548707439925 0.1817995994960678 0  0.6123583176357205 0.1909819325658435 0  0.6156759858539227 0.2003507385973728 0  0.6184987819006211 0.2098803383445412 0  0.6208189686880622 0.2195446118368362 0  0.6226301867455355 0.2293170699723706 0  0.6239274716502419 0.2391709271226702 0  0.6247072676344306 0.2490791745502192 0  0.203885768735257 0.3325402459548524 0  0.2015714905276826 0.3421799084407872 0  0.1977777294810124 0.3513388578120612 0  0.1925979005829864 0.3597915703383434 0  0.1861595484119405 0.3673299121842922 0  0.1786212065659918 0.373768264355338 0  0.1701684940397096 0.378948093253364 0  0.1610095446684356 0.3827418543000342 0  0.1513698821825007 0.3850561325076086 0  0.1414868670645144 0.3858339426659677 0  0.1316038519465281 0.3850561325076086 0  0.1219641894605933 0.3827418543000343 0  0.1128052400893193 0.378948093253364 0  0.1043525275630371 0.3737682643553381 0  0.09681418571708833 0.3673299121842922 0  0.09037583354604248 0.3597915703383434 0  0.08519600464801645 0.3513388578120612 0  0.08140224360134621 0.3421799084407872 0  0.07908796539377183 0.3325402459548523 0  0.07831015523541281 0.3226572308368659 0  0.07908796539377186 0.3127742157188796 0  0.08140224360134626 0.3031345532329447 0  0.08519600464801655 0.2939756038616707 0  0.0903758335460426 0.2855228913353884 0  0.0968141857
[...]
<PointData  Vectors="$u$"> 
<DataArray  type="Float64"  Name="$u$"  NumberOfComponents="3" format="ascii">2.0811065325688688e-04 3.9177275910960512e-04 0.0000000000000000e+00  0.0000000000000000e+00 0.0000000000000000e+00 0.0000000000000000e+00  -4.7735264755773102e-04 0.0000000000000000e+00 0.0000000000000000e+00  -6.5772182532583009e-05 4.2500000000000003e-03 0.0000000000000000e+00  -5.5884641883759882e-04 4.2500000000000003e-03 0.0000000000000000e+00  -7.8991260641735647e-04 1.0163892100900126e-03 0.0000000000000000e+00  8.2191951869849155e-04 6.3871636067090048e-04 0.0000000000000000e+00  7.1168799336900968e-04 1.2052838666237002e-03 0.0000000000000000e+00  -4.2063715173657553e-04 1.4645520436515303e-04 0.0000000000000000e+00  -6.4233701080998527e-04 1.8767415589219991e-05 0.0000000000000000e+00  -7.3741609699733254e-04 1.5360313361687084e-04 0.0000000000000000e+00  -1.0973156370014514e-04 1.6610690281641642e-03 0.0000000000000000e+00  -1.9465812605176684e-03 1.3109409769102840e-03 0.0000000000000000e+00  -3.1071129664728153e-04 2.6062411178708464e-03 0.0000000000000000e+00  -2.4536263036721351e-04 2.3387304887005828e-03 0.0000000000000000e+00  6.0083429696695489e-04 4.0333613149582132e-03 0.0000000000000000e+00  2.2702797279320318e-04 3.4065080128475615e-03 0.0000000000000000e+00  -3.2003918686099796e-04 4.0733583940932945e-03 0.0000000000000000e+00  -2.0593015666672924e-03 2.2437729152942742e-03 0.0000000000000000e+00  -1.5925329066622731e-03 2.9460778677898015e-03 0.0000000000000000e+00  -1.0784114904274554e-03 3.8667871143045047e-03 0.0000000000000000e+00  -9.7828366939366868e-04 3.7727943986227554e-03 0.0000000000000000e+00  2.7796378721542750e-04 4.6101743322936371e-04 0.0000000000000000e+00  3.5110985996688682e-04 5.2263563033087975e-04 0.0000000000000000e+00  4.1545813259988984e-04 5.7367621571481381e-04 0.0000000000000000e+00  4.6464124591444485e-04 5.9571328630053546e-04 0.0000000000000000e+00  4.9925383334769279e-04 5.8409427405537904e-04 0.0000000000000000e+00  5.0502848429212445e-04 5.2529561114468765e-04 0.0000000000000000e+00  4.9203456840559844e-04 4.3993969391570742e-04 0.0000000000000000e+00  4.5218790314946846e-04 3.6803034794517271e-04 0.0000000000000000e+00  3.9342157431183694e-04 3.2791955566435017e-04 0.0000000000000000e+00  3.4006245138364094e-04 3.0661600825881096e-04 0.0000000000000000e+00  2.8580875107430125e-04 2.7997553909439501e-04 0.0000000000000000e+00  2.3754816409875894e-04 2.5575343523682103e-04 0.0000000000000000e+00  1.9380928280810094e-04 2.2752274983679196e-04 0.0000000000000000e+00  1.5639296191917687e-04 2.0201844630610841e-04 0.0000000000000000e+00  1.2368056519881040e-04 1.8495531966213397e-04 0.0000000000000000e+00  1.0164597575709084e-04 1.7755351143883762e-04 0.0000000000000000e+00  8.6290018677741254e-05 1.8227565636500214e-04 0.0000000000000000e+00  8.2489355715332206e-05 1.9964420594563944e-04 0.0000000000000000e+00  9.2275792257920719e-05 2.2994786989092905e-04 0.0000000000000000e+00  1.1379347238495231e-04 2.7145948866029343e-04 0.0000000000000000e+00  1.5319116318120415e-04 3.2670194910342176e-04 0.0000000000000000e+00  0.0000000000000000e+00 0.0000000000000000e+00 0.0000000000000000e+00  -4.1952984201690856e-05 0.0000000000000000e+00 0.0000000000000000e+00  -5.8241394840573987e-05 0.0000000000000000e+00 0.0000000000000000e+00  -7.6146843517387584e-05 0.0000000000000000e+00 0.0000000000000000e+00  -8.8896115994513959e-05 0.0000000000000000e+00 0.0000000000000000e+00  -1.0056833203495189e-04 0.0000000000000000e+00 0.0000000000000000e+00  -1.1035827080887080e-04 0.0000000000000000e+00 0.0000000000000000e+00  -1.1929020006932656e-04 0.0000000000000000e+00 0.0000000000000000e+00  -1.2599090075503038e-04 0.0000000000000000e+00 0.0000000000000000e+00  -1.3043313561871637e-04 0.0000000000000000e+00 0.0000000000000000e+00  -1.3447307227247376e-04 0.0000000000000000e+00 0.0000000000000000e+00  -1.4033675534774076e-04 0.0000000000000000e+00 0.0000000000000000e+00  -1.4768102009812497e-04 0.0000000000000000e+00 0.0000000000000000e+00  -1.5673626401212595e-04 0.0000000000000000e+00 0.0000000000000000e+00  -1.6810129819516654e-04 0.0000000000000000e+00 0.0000000000000000e+00  -1.8697434449099727e-04 0.0000000000000000e+00 0.0000000000000000e+00  -2.1698593804000943e-04 0.0000000000000000e+00 0.0000000000000000e+00  -2.5748851585279651e-04 0.0000000000000000e+00 0.0000000000000000e+00  -2.8667584354407825e-04 0.0000000000000000e+00 0.0000000000000000e+00  -3.1199085746272290e-04 0.0000000000000000e+00 0.0000000000000000e+00  -3.4676517839742635e-04 0.0000000000000000e+00 0.0000000000000000e+00  -3.6954093993678586e-04 0.0000000000000000e+00 0.0000000000000000e+00  -3.7551315583066760e-04 0.0000000000000000e+00 0.0000000000000000e+00  -3.7561473076245329e-04 0.0000000000000000e+00 0.0000000000000000e+00  -3.7546909545942408e-04 0.0000000000000000e+00 0.0000000000000000e+00  -3.8240041169678921e-04 0.0000000000000000e+00 0.0000000000000000e+00  -3.9291744368326082e-04 0.0000000000000000e+00 0.0000000000000000e+00  -4.1421582590205839e-04 0.0000000000000000e+00 0.0000000000000000e+00  -4.4252639542601685e-04 0.0000000000000000e+00 0.0000000000000000e+00  -5.8092179143477659e-05 4.1250421969153250e-03 0.0000000000000000e+00  -3.2550018401980093e-05 3.9993052638841314e-03 0.0000000000000000e+00  1.0640547179585970e-05 3.8686295018893848e-03 0.0000000000000000e+00  7.6006877210003059e-05 3.7352792402880874e-03 0.0000000000000000e+00  1.6348775040628892e-04 3.5974723556579358e-03 0.0000000000000000e+00  2.7523218868725358e-04 3.4553779631105357e-03 0.0000000000000000e+00  4.1073733623539689e-04 3.3095332747402296e-03 0.0000000000000000e+00  5.7035112971690581e-04 3.1500703195805374e-03 0.0000000000000000e+00  7.6883419092341155e-04 2.9766542916320419e-03 0.0000000000000000e+00  1.0208648337084079e-03 2.7882261101563844e-03 0.0000000000000000e+00  1.3324561154531450e-03 2.6116611492035431e-03 0.0000000000000000e+00  1.6572126899411946e-03 2.4816617919401181e-03 0.0000000000000000e+00  1.8816605022928944e-03 2.4138961487762700e-03 0.0000000000000000e+00  1.8933668117970489e-03 2.3740205453095758e-03 0.0000000000000000e+00  1.7155217487356872e-03 2.2802172407751209e-03 0.0000000000000000e+00  1.4780407494089844e-03 2.1007565178620450e-03 0.0000000000000000e+00  1.3357975844661171e-03 1.8499963284681041e-03 0.0000000000000000e+00  1.2562121822519761e-03 1.6737459032867700e-03 0.0000000000000000e+00  1.0323013604587750e-03 1.5124373535502372e-03 0.0000000000000000e+00  8.3653352197932520e-04 1.2993936838866316e-03 0.0000000000000000e+00  6.9938628871578660e-04 1.1409118708231515e-03 0.0000000000000000e+00  5.6200367319149717e-04 1.0024193082196066e-03 0.0000000000000000e+00  4.3231052262291992e-04 8.7121040736574734e-04 0.0000000000000000e+00  3.1690589278008454e-04 7.4088342410550724e-04 0.0000000000000000e+00  2.2010293857497587e-04 6.1311756037556306e-04 0.0000000000000000e+00  1.4362088717509143e-04 4.8399957410933547e-04 0.0000000000000000e+00  8.7700546671875998e-05 3.6064472345582094e-04 0.0000000000000000e+00  4.9138772611475491e-05 2.3472679668320331e-04 0.0000000000000000e+00  3.2331783037800405e-05 1.2125709646122831e-04 0.0000000000000000e+00  -4.8529609641616690e-04 1.2890834973211364e-04 0.0000000000000000e+00  -5.1287336936691450e-04 2.5974062394440374e-04 0.0000000000000000e+00  -5.5929639733310287e-04 3.9411305745511735e-04 0.0000000000000000e+00  -6.2845785976538325e-04 5.3462144369248129e-04 0.0000000000000000e+00  -7.2393592386144783e-04 6.8205064315570352e-04 0.0000000000000000e+00  -8.5193013412600813e-04 8.3781813504217031e-04 0.0000000000000000e+00  -1.0158049617765407e-03 9.9751318497011431e-04 0.0000000000000000e+00  -1.2221396623505504e-03 1.1632800690477368e-03 0.0000000000000000e+00  -1.4681549926688587e-03 1.3163266336267928e-03 0.0000000000000000e+00  -1.7284749379825367e-03 1.4424275169528714e-03 0.0000000000000000e+00  -1.9493407824133222e-03 1.5288626628086365e-03 0.0000000000000000e+00  -2.0759315514029017e-03 1.5999297817856312e-03 0.0000000000000000e+00  -2.1009980051352331e-03 1.6932695969943713e-03 0.0000000000000000e+00  -2.0947395957622585e-03 1.8646670563810639e-03 0.0000000000000000e+00  -2.1742144169250807e-03 2.0540432828682403e-03 0.0000000000000000e+00  -1.9698329261655691e-03 2.1803125097914293e-03 0.0000000000000000e+00  -1.7141319519524548e-03 2.4912768845263503e-03 0.0000000000000000e+00  -1.6853943972693030e-03 2.7165178730623480e-03 0.0000000000000000e+00  -1.6153299055832067e-03 2.8377272854831236e-03 0.0000000000000000e+00  -1.4513814569998029e-03 2.9523102958755225e-03 0.0000000000000000e+00  -1.2621987408638334e-03 3.0871395439603429e-03 0.0000000000000000e+00  -1.0947865921358459e-03 3.2308660773760242e-03 0.0000000000000000e+00  -9.5246989336694829e-04 3.3695045772093035e-03 0.0000000000000000e+00  -8.3364083601782882e-04 3.5061433760566990e-03 0.0000000000000000e+00  -7.4083311182084435e-04 3.6405789651844087e-03 0.0000000000000000e+00  -6.7164547333123327e-04 3.7690346650672071e-03 0.0000000000000000e+00  -6.2088219062782842e-04 3.8929943042695305e-03 0.0000000000000000e+00  -5.8631030691773606e-04 4.0133844728074556e-03 0.0000000000000000e+00  -5.6519717651001649e-04 4.1318834916296236e-03 0.0000000000000000e+00  -5.2652155456016988e-04 4.2500000000000003e-03 0.0000000000000000e+00  -4.9752648189418794e-04 4.2500000000000003e-03 0.0000000000000000e+00  -4.7399981507802836e-04 4.2500000000000003e-03 0.0000000000000000e+00  -4.5469916977676928e-04 4.2500000000000003e-03 0.0000000000000000e+00  -4.3838199473839664e-04 4.2500000000000003e-03 0.0000000000000000e+00  -4.2437258173495492e-04 4.2500000000000003e-03 0.0000000000000000e+00  -4.1324394589346369e-04 4.2500000000000003e-03 0.0000000000000000e+00  -4.0564583783345869e-04 4.2500000000000003e-03 0.0000000000000000e+00  -4.0019446933799803e-04 4.2500000000000003e-03 0.0000000000000000e+00  -3.9720952948657198e-04 4.2500000000000003e-03 0.0000000000000000e+00  -3.9222655487195000e-04 4.2500000000000003e-03 0.0000000000000000e+00  -3.8560789465747706e-04 4.2500000000000003e-03 0.0000000000000000e+00  -3.7667121683672921e-04 4.2500000000000003e-03 0.0000000000000000e+00  -3.6662721824792024e-04 4.2500000000000003e-03 0.0000000000000000e+00  -3.5638968970337886e-04 4.2500000000000003e-03 0.0000000000000000e+00  -3.4311332551887491e-04 4.2500000000000003e-03 0.0000000000000000e+00  -3.2498587020391112e-04 4.2500000000000003e-03 0.0000000000000000e+00  -2.9824148962410838e-04 4.2500000000000003e-03 0.0000000000000000e+00  -2.6644532594339378e-04 4.2500000000000003e-03 0.0000000000000000e+00  -2.3936447003828506e-04 4.2500000000000003e-03 0.0000000000000000e+00  -2.2297779285174055e-04 4.2500000000000003e-03 0.0000000000000000e+00  -2.0810547385693889e-04 4.2500000000000003e-03 0.0000000000000000e+00  -1.8925986749549788e-04 4.2500000000000003e-03 0.0000000000000000e+00  -1.7518598781469420e-04 4.2500000000000003e-03 0.0000000000000000e+00  -1.6826844925394962e-04 4.2500000000000003e-03 0.0000000000000000e+00  -1.5913375956164651e-04 4.2500000000000003e-03 0.0000000000000000e+00  -1.4724272090915378e-04 4.2500000000000003e-03 0.0000000000000000e+00  -1.2745443262730916e-04 4.2500000000000003e-03 0.0000000000000000e+00  -9.9287719068436318e-05 4.2500000000000003e-03 0.0000000000000000e+00  -7.5168025502600651e-04 1.0844662588208327e-03 0.0000000000000000e+00  -7.0729455588035284e-04 1.1490952595975081e-03 0.0000000000000000e+00  -6.5678116351346974e-04 1.2132902091603309e-03 0.0000000000000000e+00  -6.0269993934916437e-04 1.2736012707988778e-03 0.0000000000000000e+00  -5.4579079986530473e-04 1.3338710934373259e-03 0.0000000000000000e+00  -4.8722960832507390e-04 1.3896880367558553e-03 0.0000000000000000e+00  -4.2959794478975559e-04 1.4401727200565042e-03 0.0000000000000000e+00  -3.7612642710689554e-04 1.4848430349522555e-03 0.0000000000000000e+00  -3.2760970439910586e-04 1.5220634503121510e-03 0.0000000000000000e+00  -2.8777248330833470e-04 1.5511480726109785e-03 0.0000000000000000e+00  -2.5726847380724371e-04 1.5730175671447042e-03 0.0000000000000000e+00  -2.3742349605285936e-04 1.5881103463583680e-03 0.0000000000000000e+00  -2.2907315734467588e-04 1.5975969152129505e-03 0.0000000000000000e+00  -2.3154485157047432e-04 1.6034435720995745e-03 0.0000000000000000e+00  -2.4528708169543954e-04 1.6063219211560602e-03 0.0000000000000000e+00  -2.6916526227244126e-04 1.6116336958652312e-03 0.0000000000000000e+00  -2.9892805054757481e-04 1.6229141735752039e-03 0.0000000000000000e+00  -3.2984273788136761e-04 1.6421850841334218e-03 0.0000000000000000e+00  -3.5929265183919139e-04 1.6709774763575508e-03 0.0000000000000000e+00  -3.8384582759310587e-04 1.7067214406126493e-03 0.0000000000000000e+00  -4.0488828362104435e-04 1.7504012697647975e-03 0.0000000000000000e+00  -4.2073184827925335e-04 1.8001691605820853e-03 0.0000000000000000e+00  -4.3137418183679518e-04 1.8549643631733700e-03 0.0000000000000000e+00  -4.3707595283574654e-04 1.9134360449649650e-03 0.0000000000000000e+00  -4.3788786839899364e-04 1.9736670476771497e-03 0.0000000000000000e+00  -4.3420894734324091e-04 2.0336868299228512e-03 0.0000000000000000e+00  -4.2620627493388088e-04 2.0916502765032791e-03 0.0000000000000000e+00  -4.1584354955997657e-04 2.1457233483637961e-03 0.0000000000000000e+00  -4.0319404396871409e-04 2.1956245548235614e-03 0.0000000000000000e+00  -3.8885542500506035e-04 2.2407211472320007e-03 0.0000000000000000e+00  -3.7324071599721019e-04 2.2812509099286089e-03 0.0000000000000000e+00  -3.5532284625401357e-04 2.3181543804983284e-03 0.0000000000000000e+00  -3.3356055560353350e-04 2.3507487775894010e-03 0.0000000000000000e+00  -3.0496351425870696e-04 2.3780260441892808e-03 0.0000000000000000e+00  -2.6592304521511724e-04 2.3956343055746778e-03 0.0000000000000000e+00  -2.1577839188336223e-04 2.3986977053856327e-03 0.0000000000000000e+00  -1.5514093115141586e-04 2.3847428186823524e-03 0.0000000000000000e+00  -8.3889926766588814e-05 2.3528417163221128e-03 0.0000000000000000e+00  -2.4900673064728526e-06 2.3023748985094524e-03 0.0000000000000000e+00  8.8172907875698619e-05 2.2322756885628718e-03 0.0000000000000000e+00  1.8659333650616970e-04 2.1428333426348695e-03 0.0000000000000000e+00  2.8929793555910885e-04 2.0337030808156970e-03 0.0000000000000000e+00  3.9034286109446170e-04 1.9091491408096881e-03 0.0000000000000000e+00  4.8765723567467391e-04 1.7730588929120393e-03 0.0000000000000000e+00  5.7590102173137503e-04 1.6309606804414964e-03 0.0000000000000000e+00  6.4840618024287230e-04 1.4863687507114384e-03 0.0000000000000000e+00  7.0823527209776455e-04 1.3510126332485204e-03 0.0000000000000000e+00  7.5361773207263379e-04 1.2229051669329742e-03 0.0000000000000000e+00  7.8546092167093096e-04 1.1059981423815453e-03 0.0000000000000000e+00  8.0637549746134351e-04 1.0009122194099278e-03 0.0000000000000000e+00  8.1678027217352484e-04 9.0492860823137612e-04 0.0000000000000000e+00  8.1795683322052166e-04 8.1824818349940441e-04 0.0000000000000000e+00  8.0845155515559344e-04 7.3715953833653901e-04 0.0000000000000000e+00  7.8722107663075529e-04 6.6264241133961966e-04 0.0000000000000000e+00  7.5432910178653849e-04 5.9479406135117766e-04 0.0000000000000000e+00  7.1055687106161931e-04 5.3355316131900165e-04 0.0000000000000000e+00  6.5948172155601899e-04 4.8013825439170043e-04 0.0000000000000000e+00  6.0519723322084533e-04 4.3277256995068273e-04 0.0000000000000000e+00  5.4935437053331502e-04 3.8733002889142492e-04 0.0000000000000000e+00  4.9179649234175923e-04 3.4291200104078233e-04 0.0000000000000000e+00  4.3059651919675248e-04 2.9688777897293479e-04 0.0000000000000000e+00  3.6359651916718580e-04 2.5168017502130670e-04 0.0000000000000000e+00  2.9329737102969095e-04 2.1315981914763331e-04 0.0000000000000000e+00  2.2706888655708800e-04 1.8212072278327230e-04 0.0000000000000000e+00  1.7040141594091383e-04 1.5957599272824655e-04 0.0000000000000000e+00  1.2651960492328213e-04 1.4150968630315353e-04 0.0000000000000000e+00  9.3723948392609831e-05 1.2559357329855540e-04 0.0000000000000000e+00  6.8725441429615222e-05 1.0950056614264831e-04 0.0000000000000000e+00  4.8334565498191556e-05 9.3510739920519201e-05 0.0000000000000000e+00  3.0298994270616021e-05 7.7643839654234489e-05 0.0000000000000000e+00  1.3653850619554648e-05 6.2855238352328414e-05 0.0000000000000000e+00  -2.1348779201202355e-06 4.9446458480415051e-05 0.0000000000000000e+00  -1.7067563130330416e-05 3.7572520677171970e-05 0.0000000000000000e+00  -3.1290497950113462e-05 2.7427066310485843e-05 0.0000000000000000e+00  -4.4614712787911035e-05 1.9203504322354412e-05 0.0000000000000000e+00  -5.6979264464431248e-05 1.2350230159123463e-05 0.0000000000000000e+00  -6.8414169170989770e-05 7.3326402981525754e-06 0.0000000000000000e+00  -7.8768317178879842e-05 3.4756483547613582e-06 0.0000000000000000e+00  -8.8152165088388996e-05 8.8009196500452540e-07 0.0000000000000000e+00  -9.6755180293890702e-05 -6.8440256497672708e-07 0.0000000000000000e+00  -1.0430765355612732e-04 -1.4413884512286913e-06 0.0000000000000000e+00  -1.1124120009580509e-04 -1.6015032495257225e-06 0.0000000000000000e+00  -1.1739647048828302e-04 -1.2854933016546768e-06 0.0000000000000000e+00  -1.2304895690257590e-04 -7.2278055999804143e-07 0.0000000000000000e+00  -1.2820681836654154e-04 2.9110810345325209e-08 0.0000000000000000e+00  -1.3313289243441692e-04 8.0193771499986873e-07 0.0000000000000000e+00  -1.3776796837339014e-04 1.6288735427900235e-06 0.0000000000000000e+00  -1.4228502784056869e-04 2.3587858647253589e-06 0.0000000000000000e+00  -1.4682101880666976e-04 3.1299507111738126e-06 0.0000000000000000e+00  -1.5133378782081078e-04 3.9251477999056360e-06 0.0000000000000000e+00  -1.5597489101917958e-04 4.8879309703592967e-06 0.0000000000000000e+00  -1.6060949572528066e-04 6.0807358785582354e-06 0.0000000000000000e+00  -1.6535418324217275e-04 7.6769145503880256e-06 0.0000000000000000e+00  -1.7018398998516052e-04 9.9941814575868692e-06 0.0000000000000000e+00  -1.7466311771334930e-04 1.2955685666556775e-05 0.0000000000000000e+00  -1.7902413589147015e-04 1.6863081093266672e-05 0.0000000000000000e+00  -1.8270179174878208e-04 2.1678258447274264e-05 0.0000000000000000e+00  -1.8582390926916490e-04 2.7367004146048326e-05 0.0000000000000000e+00  -1.8836042394427570e-04 3.3809093783105293e-05 0.0000000000000000e+00  -1.9017905927048136e-04 4.1060655978439770e-05 0.0000000000000000e+00  -1.9214947210934700e-04 4.8464621749521790e-05 0.0000000000000000e+00  -1.9516534064220852e-04 5.6454576148718088e-05 0.0000000000000000e+00  -2.0227609506923887e-04 6.4680244747480431e-05 0.0000000000000000e+00  -2.1497461030907879e-04 7.6217596334357890e-05 0.0000000000000000e+00  -2.3802871026241298e-04 9.1813717624023488e-05 0.0000000000000000e+00  -2.7000233467263637e-04 1.1709741283274106e-04 0.0000000000000000e+00  -3.1137805296904740e-04 1.5191247922194143e-04 0.0000000000000000e+00  -3.5637027471071918e-04 1.9593255316721804e-04 0.0000000000000000e+00  -4.0351167795456700e-04 2.4425884600474897e-04 0.0000000000000000e+00  -4.5309264063740547e-04 2.9332142844964266e-04 0.0000000000000000e+00  -5.0900963264993856e-04 3.4279114628945533e-04 0.0000000000000000e+00  -5.7202968144201278e-04 3.9674715914485325e-04 0.0000000000000000e+00  -6.4033116176039626e-04 4.5838624248347647e-04 0.0000000000000000e+00  -7.0725541456457609e-04 5.2958496354661255e-04 0.0000000000000000e+00  -7.6510563513000986e-04 6.1016896046940964e-04 0.0000000000000000e+00  -8.0700915702832255e-04 6.9518458801141533e-04 0.0000000000000000e+00  -8.2975831082531665e-04 7.8120347632641208e-04 0.0000000000000000e+00  -8.3208623731439047e-04 8.6537149900735538e-04 0.0000000000000000e+00  -8.1782404876993078e-04 9.4246001180819700e-04 0.0000000000000000e+00  8.3054860737607572e-04 6.3591825705508552e-04 0.0000000000000000e+00  8.1874212770220061e-04 6.2336624890888025e-04 0.0000000000000000e+00  7.8828878231238875e-04 6.0438961210016763e-04 0.0000000000000000e+00  7.4433082783815455e-04 5.858