<?xml version="1.0"?>
<VTKFile type="UnstructuredGrid"  version="0.1"  >
<UnstructuredGrid>
<Piece  NumberOfPoints="3879" NumberOfCells="6881">
<Points>
<DataArray  type="Float64"  NumberOfComponents="3"  format="ascii">0.207524190028372 0.2122422770132111 0  0 0 0  1 0 0  0 1 0  1 1 0  0.6249674373315121 0.2590146544375328 0  0.204663578893616 0.322657230836866 0  0.09605577522599912 0.4018360776629776 0  0.671351124618251 0.08738059142081528 0  0.7842102907526436 0.1666439122351055 0  0.8512483166984784 0.1985391006160637 0  0.6418797837909295 0.4423157172830166 0  0.9292488447973215 0.3869277868069776 0  0.3197896119137055 0.5509935221980964 0  0.3979283685568406 0.5079871620336583 0  0.1572503457993085 0.7345153245035532 0  0.3032914287999163 0.7872981443735918 0  0.3549464687598876 0.8870324161721976 0  0.9691791685505482 0.5159450047798622 0  0.9447564590470373 0.6146164845729313 0  0.7687603548175107 0.7176858127488035 0  0.8926159261971183 0.7422924070424508 0  0.2061587782631535 0.2217389244366831 0  0.2021731605082994 0.2304662099646423 0  0.1958902278109265 0.2377171008267789 0  0.1878189860121365 0.2429041729681512 0  0.1786133191209442 0.2456072006525708 0  0.1690190155206647 0.2456072006525708 0  0.1598133486294724 0.2429041729681512 0  0.1517421068306824 0.2377171008267789 0  0.1454591741333096 0.2304662099646422 0  0.1414735563784554 0.221738924436683 0  0.1401081446132369 0.212242277013211 0  0.1414735563784555 0.202745629589739 0  0.1454591741333096 0.1940183440617798 0  0.1517421068306825 0.1867674531996431 0  0.1598133486294725 0.1815803810582709 0  0.1690190155206649 0.1788773533738513 0  0.1786133191209443 0.1788773533738514 0  0.1878189860121367 0.181580381058271 0  0.1958902278109266 0.1867674531996433 0  0.2021731605082994 0.19401834406178 0  0.2061587782631535 0.2027456295897391 0  0.03333333333333333 0 0  0.06666666666666667 0 0  0.1 0 0  0.1333333333333333 0 0  0.1666666666666667 0 0  0.2 0 0  0.2333333333333333 0 0  0.2666666666666667 0 0  0.3 0 0  0.3333333333333333 0 0  0.3666666666666666 0 0  0.4 0 0  0.4333333333333333 0 0  0.4666666666666667 0 0  0.5 0 0  0.5333333333333333 0 0  0.5666666666666667 0 0  0.6 0 0  0.6333333333333333 0 0  0.6666666666666666 0 0  0.7 0 0  0.7333333333333333 0 0  0.7666666666666667 0 0  0.8 0 0  0.8333333333333334 0 0  0.8666666666666667 0 0  0.9 0 0  0.9333333333333333 0 0  0.9666666666666667 0 0  0 0.9666666666666667 0  0 0.9333333333333333 0  0 0.9 0  0 0.8666666666666667 0  0 0.8333333333333334 0  0 0.8 0  0 0.7666666666666666 0  0 0.7333333333333334 0  0 0.7 0  0 0.6666666666666667 0  0 0.6333333333333333 0  0 0.6 0  0 0.5666666666666667 0  0 0.5333333333333333 0  0 0.5 0  0 0.4666666666666667 0  0 0.4333333333333333 0  0 0.4 0  0 0.3666666666666667 0  0 0.3333333333333334 0  0 0.3 0  0 0.2666666666666667 0  0 0.2333333333333333 0  0 0.2 0  0 0.1666666666666666 0  0 0.1333333333333333 0  0 0.09999999999999998 0  0 0.06666666666666665 0  0 0.03333333333333333 0  1 0.03333333333333333 0  1 0.06666666666666667 0  1 0.1 0  1 0.1333333333333333 0  1 0.1666666666666667 0  1 0.2 0  1 0.2333333333333333 0  1 0.2666666666666667 0  1 0.3 0  1 0.3333333333333333 0  1 0.3666666666666666 0  1 0.4 0  1 0.4333333333333333 0  1 0.4666666666666667 0  1 0.5 0  1 0.5333333333333333 0  1 0.5666666666666667 0  1 0.6 0  1 0.6333333333333333 0  1 0.6666666666666666 0  1 0.7 0  1 0.7333333333333333 0  1 0.7666666666666667 0  1 0.8 0  1 0.8333333333333334 0  1 0.8666666666666667 0  1 0.9 0  1 0.9333333333333333 0  1 0.9666666666666667 0  0.9666666666666667 1 0  0.9333333333333333 1 0  0.9 1 0  0.8666666666666667 1 0  0.8333333333333334 1 0  0.8 1 0  0.7666666666666666 1 0  0.7333333333333334 1 0  0.7 1 0  0.6666666666666667 1 0  0.6333333333333333 1 0  0.6 1 0  0.5666666666666667 1 0  0.5333333333333333 1 0  0.5 1 0  0.4666666666666667 1 0  0.4333333333333333 1 0  0.4 1 0  0.3666666666666667 1 0  0.3333333333333334 1 0  0.3 1 0  0.2666666666666667 1 0  0.2333333333333333 1 0  0.2 1 0  0.1666666666666666 1 0  0.1333333333333333 1 0  0.09999999999999998 1 0  0.06666666666666665 1 0  0.03333333333333333 1 0  0.6247072676344306 0.2689501343248463 0  0.6239274716502419 0.2788583817523955 0  0.6226301867455355 0.2887122389026952 0  0.6208189686880621 0.2984846970382296 0  0.6184987819006211 0.3081489705305245 0  0.6156759858539226 0.317678570277693 0  0.6123583176357204 0.3270473763092224 0  0.6085548707439923 0.3362297093789981 0  0.6042760701622942 0.3452004013503318 0  0.5995336437856049 0.3539348641800754 0  0.5943405902749808 0.3624091573127375 0  0.5887111434291297 0.3706000532998825 0  0.582660733170558 0.3784851014649517 0  0.5762059432532257 0.3860426894390078 0  0.5693644658076293 0.3932521023987353 0  0.5621550528479018 0.4000935798443317 0  0.5545974648738458 0.4065483697616639 0  0.5467124167087765 0.4125987800202355 0  0.5385215207216315 0.4182282268660866 0  0.5300472275889694 0.4234212803767108 0  0.5213127647592257 0.4281637067534002 0  0.512342072787892 0.4324425073350981 0  0.5031597397181163 0.4362459542268262 0  0.493790933686587 0.4395636224450283 0  0.4842613339394185 0.4423864184917269 0  0.4745970604471235 0.4447066052791678 0  0.4648246023115891 0.4465178233366412 0  0.4549707451612894 0.4478151082413475 0  0.4450624977337403 0.4485949042255363 0  0.4351270178464268 0.4488550739226177 0  0.4251915379591132 0.4485949042255363 0  0.4152832905315641 0.4478151082413475 0  0.4054294333812644 0.4465178233366411 0  0.39565697524573 0.4447066052791677 0  0.385992701753435 0.4423864184917267 0  0.3764631020062665 0.4395636224450281 0  0.3670942959747371 0.4362459542268259 0  0.3579119629049616 0.4324425073350978 0  0.3489412709336278 0.4281637067533998 0  0.3402068081038843 0.4234212803767103 0  0.3317325149712221 0.4182282268660862 0  0.3235416189840771 0.412598780020235 0  0.3156565708190078 0.4065483697616634 0  0.3080989828449519 0.4000935798443311 0  0.3008895698852244 0.3932521023987346 0  0.2940480924396279 0.3860426894390071 0  0.2875933025222958 0.3784851014649511 0  0.2815428922637242 0.3706000532998818 0  0.2759134454178731 0.3624091573127368 0  0.2707203919072489 0.3539348641800746 0  0.2659779655305596 0.3452004013503309 0  0.2616991649488616 0.3362297093789972 0  0.2578957180571336 0.3270473763092215 0  0.2545780498389315 0.3176785702776921 0  0.251755253792233 0.3081489705305236 0  0.249435067004792 0.2984846970382286 0  0.2476238489473186 0.2887122389026941 0  0.2463265640426123 0.2788583817523945 0  0.2455467680584236 0.2689501343248454 0  0.2452865983613423 0.2590146544375318 0  0.2455467680584237 0.2490791745502182 0  0.2463265640426126 0.2391709271226692 0  0.247623848947319 0.2293170699723696 0  0.2494350670047924 0.2195446118368351 0  0.2517552537922335 0.2098803383445402 0  0.2545780498389321 0.2003507385973717 0  0.2578957180571343 0.1909819325658423 0  0.2616991649488624 0.1817995994960667 0  0.2659779655305604 0.172828907524733 0  0.2707203919072498 0.1640944446949895 0  0.2759134454178741 0.1556201515623273 0  0.2815428922637251 0.1474292555751825 0  0.2875933025222969 0.1395442074101132 0  0.2940480924396291 0.1319866194360571 0  0.3008895698852256 0.1247772064763297 0  0.3080989828449531 0.1179357290307334 0  0.3156565708190092 0.1114809391134012 0  0.3235416189840785 0.1054305288548295 0  0.3317325149712236 0.09980108200897844 0  0.3402068081038856 0.0946080284983544 0  0.3489412709336291 0.08986560212166514 0  0.357911962904963 0.08558680153996717 0  0.3670942959747386 0.08178335464823916 0  0.3764631020062678 0.07846568643003712 0  0.3859927017534364 0.0756428903833386 0  0.3956569752457313 0.0733227035958976 0  0.4054294333812659 0.07151148553842429 0  0.4152832905315654 0.07021420063371797 0  0.4251915379591144 0.0694344046495293 0  0.435127017846428 0.0691742349524479 0  0.4450624977337415 0.06943440464952938 0  0.4549707451612905 0.07021420063371814 0  0.4648246023115901 0.07151148553842454 0  0.4745970604471245 0.07332270359589793 0  0.4842613339394195 0.07564289038333902 0  0.4937909336865879 0.07846568643003757 0  0.5031597397181173 0.0817833546482398 0  0.5123420727878929 0.08558680153996781 0  0.5213127647592265 0.08986560212166581 0  0.53004722758897 0.0946080284983552 0  0.5385215207216321 0.09980108200897933 0  0.5467124167087771 0.1054305288548305 0  0.5545974648738462 0.1114809391134021 0  0.5621550528479023 0.1179357290307343 0  0.5693644658076298 0.1247772064763308 0  0.576205943253226 0.1319866194360582 0  0.5826607331705582 0.1395442074101142 0  0.5887111434291299 0.1474292555751835 0  0.594340590274981 0.1556201515623285 0  0.5995336437856051 0.1640944446949906 0  0.6042760701622945 0.172828907524734 0  0.6085548707439925 0.1817995994960678 0  0.6123583176357205 0.1909819325658435 0  0.6156759858539227 0.2003507385973728 0  0.6184987819006211 0.2098803383445412 0  0.6208189686880622 0.2195446118368362 0  0.6226301867455355 0.2293170699723706 0  0.6239274716502419 0.2391709271226702 0  0.6247072676344306 0.2490791745502192 0  0.203885768735257 0.3325402459548524 0  0.2015714905276826 0.3421799084407872 0  0.1977777294810124 0.3513388578120612 0  0.1925979005829864 0.3597915703383434 0  0.1861595484119405 0.3673299121842922 0  0.1786212065659918 0.373768264355338 0  0.1701684940397096 0.378948093253364 0  0.1610095446684356 0.3827418543000342 0  0.1513698821825007 0.3850561325076086 0  0.1414868670645144 0.3858339426659677 0  0.1316038519465281 0.3850561325076086 0  0.1219641894605933 0.3827418543000343 0  0.1128052400893193 0.378948093253364 0  0.1043525275630371 0.3737682643553381 0  0.09681418571708833 0.3673299121842922 0  0.09037583354604248 0.3597915703383434 0  0.08519600464801645 0.3513388578120612 0  0.08140224360134621 0.3421799084407872 0  0.07908796539377183 0.3325402459548523 0  0.07831015523541281 0.3226572308368659 0  0.07908796539377186 0.3127742157188796 0  0.08140224360134626 0.3031345532329447 0  0.08519600464801655 0.2939756038616707 0  0.0903758335460426 0.2855228913353884 0  0.0968141857
[...]
<PointData  Vectors="$u$"> 
<DataArray  type="Float64"  Name="$u$"  NumberOfComponents="3" format="ascii">1.1092459659459147e-04 2.0724342934343236e-04 0.0000000000000000e+00  0.0000000000000000e+00 0.0000000000000000e+00 0.0000000000000000e+00  -2.5237626122036599e-04 0.0000000000000000e+00 0.0000000000000000e+00  -3.3582037767947195e-05 2.2500000000000003e-03 0.0000000000000000e+00  -2.9468379602400795e-04 2.2500000000000003e-03 0.0000000000000000e+00  -4.1743927809588288e-04 5.3710891465923367e-04 0.0000000000000000e+00  4.3418809433220823e-04 3.3832942828375661e-04 0.0000000000000000e+00  3.7643654547770496e-04 6.3716591280158343e-04 0.0000000000000000e+00  -2.2212159233965214e-04 7.8420654944358632e-05 0.0000000000000000e+00  -3.3989776108856281e-04 1.0322896967726963e-05 0.0000000000000000e+00  -3.9003400741281915e-04 8.2254582657059525e-05 0.0000000000000000e+00  -5.8082726693126014e-05 8.7831828685949699e-04 0.0000000000000000e+00  -1.0280732356401168e-03 6.9717785161971582e-04 0.0000000000000000e+00  -1.6402240591776248e-04 1.3797725564110379e-03 0.0000000000000000e+00  -1.2998922023293969e-04 1.2380830475084328e-03 0.0000000000000000e+00  3.1800547101954385e-04 2.1345304792039824e-03 0.0000000000000000e+00  1.2117366431613635e-04 1.8044121639662746e-03 0.0000000000000000e+00  -1.6762858095879606e-04 2.1560733806752891e-03 0.0000000000000000e+00  -1.0817897639513602e-03 1.1849572197003076e-03 0.0000000000000000e+00  -8.4113615197797895e-04 1.5570117048128650e-03 0.0000000000000000e+00  -5.7009150773045881e-04 2.0464012316495162e-03 0.0000000000000000e+00  -5.1703130184358619e-04 1.9959255014109778e-03 0.0000000000000000e+00  1.4755168693441210e-04 2.4355300276057294e-04 0.0000000000000000e+00  1.8623354367489905e-04 2.7622166054634104e-04 0.0000000000000000e+00  2.2018762154998024e-04 3.0272721836100335e-04 0.0000000000000000e+00  2.4608686924675451e-04 3.1498613601735521e-04 0.0000000000000000e+00  2.6305285286057763e-04 3.0845345548906610e-04 0.0000000000000000e+00  2.6644567572382946e-04 2.7797096585450661e-04 0.0000000000000000e+00  2.5939695828834327e-04 2.3322663259361400e-04 0.0000000000000000e+00  2.3839073341869763e-04 1.9582290515203699e-04 0.0000000000000000e+00  2.0813070390632120e-04 1.7495646467983325e-04 0.0000000000000000e+00  1.7970495533741696e-04 1.6312332534749912e-04 0.0000000000000000e+00  1.5119635408693616e-04 1.4940930611912330e-04 0.0000000000000000e+00  1.2574012247757777e-04 1.3608829628155558e-04 0.0000000000000000e+00  1.0259453140754336e-04 1.2115348711651925e-04 0.0000000000000000e+00  8.2689388434932542e-05 1.0770843892987220e-04 0.0000000000000000e+00  6.5697903437633980e-05 9.8520913691654453e-05 0.0000000000000000e+00  5.4077676230545028e-05 9.4501394972798780e-05 0.0000000000000000e+00  4.6102311667023366e-05 9.7025586851117235e-05 0.0000000000000000e+00  4.4316944571819796e-05 1.0614947295609325e-04 0.0000000000000000e+00  4.9280077620135521e-05 1.2226294598300009e-04 0.0000000000000000e+00  6.1173578575105772e-05 1.4419365727365115e-04 0.0000000000000000e+00  8.1202038925921025e-05 1.7311514848899646e-04 0.0000000000000000e+00  0.0000000000000000e+00 0.0000000000000000e+00 0.0000000000000000e+00  -2.1374240520285955e-05 0.0000000000000000e+00 0.0000000000000000e+00  -3.0831525022298013e-05 0.0000000000000000e+00 0.0000000000000000e+00  -3.9943454657803702e-05 0.0000000000000000e+00 0.0000000000000000e+00  -4.6997099149152204e-05 0.0000000000000000e+00 0.0000000000000000e+00  -5.3121024762958111e-05 0.0000000000000000e+00 0.0000000000000000e+00  -5.8365729128265212e-05 0.0000000000000000e+00 0.0000000000000000e+00  -6.3057746141874932e-05 0.0000000000000000e+00 0.0000000000000000e+00  -6.6676095267000136e-05 0.0000000000000000e+00 0.0000000000000000e+00  -6.9011022800236343e-05 0.0000000000000000e+00 0.0000000000000000e+00  -7.1163377434287677e-05 0.0000000000000000e+00 0.0000000000000000e+00  -7.4253875539389370e-05 0.0000000000000000e+00 0.0000000000000000e+00  -7.8137554628884053e-05 0.0000000000000000e+00 0.0000000000000000e+00  -8.2960610421333955e-05 0.0000000000000000e+00 0.0000000000000000e+00  -8.8948823440298074e-05 0.0000000000000000e+00 0.0000000000000000e+00  -9.8994794280382874e-05 0.0000000000000000e+00 0.0000000000000000e+00  -1.1473306714997850e-04 0.0000000000000000e+00 0.0000000000000000e+00  -1.3609991669994760e-04 0.0000000000000000e+00 0.0000000000000000e+00  -1.5146730421313330e-04 0.0000000000000000e+00 0.0000000000000000e+00  -1.6495922991040739e-04 0.0000000000000000e+00 0.0000000000000000e+00  -1.8323703654480006e-04 0.0000000000000000e+00 0.0000000000000000e+00  -1.9518880821482395e-04 0.0000000000000000e+00 0.0000000000000000e+00  -1.9839537019703332e-04 0.0000000000000000e+00 0.0000000000000000e+00  -1.9832015107821611e-04 0.0000000000000000e+00 0.0000000000000000e+00  -1.9832408506710207e-04 0.0000000000000000e+00 0.0000000000000000e+00  -2.0194829416111747e-04 0.0000000000000000e+00 0.0000000000000000e+00  -2.0757918901313582e-04 0.0000000000000000e+00 0.0000000000000000e+00  -2.1894511363928273e-04 0.0000000000000000e+00 0.0000000000000000e+00  -2.3398967194991280e-04 0.0000000000000000e+00 0.0000000000000000e+00  -2.9416244497847608e-05 2.1838087571539083e-03 0.0000000000000000e+00  -1.6014363515110421e-05 2.1172073730399729e-03 0.0000000000000000e+00  6.9439739494052063e-06 2.0479293719746659e-03 0.0000000000000000e+00  4.1469259043048248e-05 1.9773844255236185e-03 0.0000000000000000e+00  8.7820253117931559e-05 1.9043026263102180e-03 0.0000000000000000e+00  1.4684488542741626e-04 1.8292426943330481e-03 0.0000000000000000e+00  2.1848356095897862e-04 1.7517532273875066e-03 0.0000000000000000e+00  3.0297327522285861e-04 1.6675992002481508e-03 0.0000000000000000e+00  4.0775204038319581e-04 1.5755360551799337e-03 0.0000000000000000e+00  5.4122449512792703e-04 1.4761632079798301e-03 0.0000000000000000e+00  7.0524887636604647e-04 1.3835774555217878e-03 0.0000000000000000e+00  8.7630422754156280e-04 1.3135688186499284e-03 0.0000000000000000e+00  9.9412621579713311e-04 1.2784407347935097e-03 0.0000000000000000e+00  1.0001075987233830e-03 1.2558960189309239e-03 0.0000000000000000e+00  9.0631787314130016e-04 1.2060573198138494e-03 0.0000000000000000e+00  7.8159866275433350e-04 1.1105821319688806e-03 0.0000000000000000e+00  7.0487477804860241e-04 9.8121889526958488e-04 0.0000000000000000e+00  6.6063893860787281e-04 8.8565435860557377e-04 0.0000000000000000e+00  5.4401088583616694e-04 7.9913753571267941e-04 0.0000000000000000e+00  4.4158646460194258e-04 6.8786081695500537e-04 0.0000000000000000e+00  3.6908513600975137e-04 6.0382933639555741e-04 0.0000000000000000e+00  2.9695747909299985e-04 5.3053319573523252e-04 0.0000000000000000e+00  2.2855709882993623e-04 4.6102673183892894e-04 0.0000000000000000e+00  1.6780446298582163e-04 3.9212003588055648e-04 0.0000000000000000e+00  1.1667945804920454e-04 3.2455364063602816e-04 0.0000000000000000e+00  7.6277048169501037e-05 2.5640989977807109e-04 0.0000000000000000e+00  4.6733520022307091e-05 1.9073155149677346e-04 0.0000000000000000e+00  2.6401123523736236e-05 1.2473649740062640e-04 0.0000000000000000e+00  1.7095846642160308e-05 6.3925026911971792e-05 0.0000000000000000e+00  -2.5671146333687805e-04 6.8523412576946912e-05 0.0000000000000000e+00  -2.7127222086951536e-04 1.3777549906266123e-04 0.0000000000000000e+00  -2.9588156021127907e-04 2.0915948601422040e-04 0.0000000000000000e+00  -3.3256827634863304e-04 2.8381112406202619e-04 0.0000000000000000e+00  -3.8315942020002706e-04 3.6179585555650595e-04 0.0000000000000000e+00  -4.5080035917276494e-04 4.4438558492203393e-04 0.0000000000000000e+00  -5.3768609212678732e-04 5.2917804998830304e-04 0.0000000000000000e+00  -6.4678825005995227e-04 6.1674663709736851e-04 0.0000000000000000e+00  -7.7682347728918999e-04 6.9773689697291078e-04 0.0000000000000000e+00  -9.1423737961227329e-04 7.6434737694313823e-04 0.0000000000000000e+00  -1.0300146717502055e-03 8.0989398649744114e-04 0.0000000000000000e+00  -1.0961592051436505e-03 8.4879589351875677e-04 0.0000000000000000e+00  -1.1089465011511058e-03 8.9842309646577631e-04 0.0000000000000000e+00  -1.1052058994975925e-03 9.8717627187156691e-04 0.0000000000000000e+00  -1.1395272012089867e-03 1.0849473432541048e-03 0.0000000000000000e+00  -1.0361157305417000e-03 1.1578595752037642e-03 0.0000000000000000e+00  -9.0591070088135025e-04 1.3170804923738023e-03 0.0000000000000000e+00  -8.9013579014502299e-04 1.4358824347626765e-03 0.0000000000000000e+00  -8.5373364189770564e-04 1.5005374317494887e-03 0.0000000000000000e+00  -7.6721386300250137e-04 1.5615694025132721e-03 0.0000000000000000e+00  -6.6749680265243113e-04 1.6333214444739458e-03 0.0000000000000000e+00  -5.7901127674972355e-04 1.7089542478815427e-03 0.0000000000000000e+00  -5.0351170342818126e-04 1.7825538811813463e-03 0.0000000000000000e+00  -4.4059769398324602e-04 1.8551557292296860e-03 0.0000000000000000e+00  -3.9144477210682234e-04 1.9264119275804879e-03 0.0000000000000000e+00  -3.5467054663394548e-04 1.9944877457899047e-03 0.0000000000000000e+00  -3.2768283706484326e-04 2.0603344983578424e-03 0.0000000000000000e+00  -3.0933110021402462e-04 2.1243997845726411e-03 0.0000000000000000e+00  -2.9817710763850992e-04 2.1871881127863129e-03 0.0000000000000000e+00  -2.7755583717829920e-04 2.2500000000000003e-03 0.0000000000000000e+00  -2.6218751164229026e-04 2.2500000000000003e-03 0.0000000000000000e+00  -2.4963995822123902e-04 2.2500000000000003e-03 0.0000000000000000e+00  -2.3941440490766802e-04 2.2500000000000003e-03 0.0000000000000000e+00  -2.3071869434903357e-04 2.2500000000000003e-03 0.0000000000000000e+00  -2.2331211081868841e-04 2.2500000000000003e-03 0.0000000000000000e+00  -2.1742341400839442e-04 2.2500000000000003e-03 0.0000000000000000e+00  -2.1333357913008071e-04 2.2500000000000003e-03 0.0000000000000000e+00  -2.1051191914083829e-04 2.2500000000000003e-03 0.0000000000000000e+00  -2.0887624677678503e-04 2.2500000000000003e-03 0.0000000000000000e+00  -2.0628665444134486e-04 2.2500000000000003e-03 0.0000000000000000e+00  -2.0274970736346596e-04 2.2500000000000003e-03 0.0000000000000000e+00  -1.9802327964869171e-04 2.2500000000000003e-03 0.0000000000000000e+00  -1.9270203895461519e-04 2.2500000000000003e-03 0.0000000000000000e+00  -1.8728310035058787e-04 2.2500000000000003e-03 0.0000000000000000e+00  -1.8024422467236402e-04 2.2500000000000003e-03 0.0000000000000000e+00  -1.7066792230286084e-04 2.2500000000000003e-03 0.0000000000000000e+00  -1.5654262729316646e-04 2.2500000000000003e-03 0.0000000000000000e+00  -1.3978318905706656e-04 2.2500000000000003e-03 0.0000000000000000e+00  -1.2545181176581711e-04 2.2500000000000003e-03 0.0000000000000000e+00  -1.1676150453261328e-04 2.2500000000000003e-03 0.0000000000000000e+00  -1.0887454829281034e-04 2.2500000000000003e-03 0.0000000000000000e+00  -9.8916475479035701e-05 2.2500000000000003e-03 0.0000000000000000e+00  -9.1568559650715109e-05 2.2500000000000003e-03 0.0000000000000000e+00  -8.7840165955909496e-05 2.2500000000000003e-03 0.0000000000000000e+00  -8.3028315856844184e-05 2.2500000000000003e-03 0.0000000000000000e+00  -7.6666106649604594e-05 2.2500000000000003e-03 0.0000000000000000e+00  -6.6226876464318073e-05 2.2500000000000003e-03 0.0000000000000000e+00  -5.1286725471831592e-05 2.2500000000000003e-03 0.0000000000000000e+00  -3.9723364376593535e-04 5.7329101510157415e-04 0.0000000000000000e+00  -3.7378719955919913e-04 6.0747454092311760e-04 0.0000000000000000e+00  -3.4710194817252947e-04 6.4137932705788932e-04 0.0000000000000000e+00  -3.1849247986798272e-04 6.7341881230556207e-04 0.0000000000000000e+00  -2.8842695573346621e-04 7.0522221905372159e-04 0.0000000000000000e+00  -2.5749123355309932e-04 7.3483068921568020e-04 0.0000000000000000e+00  -2.2708037090580268e-04 7.6160074404212411e-04 0.0000000000000000e+00  -1.9880514509378202e-04 7.8525184023759483e-04 0.0000000000000000e+00  -1.7317742525823273e-04 8.0496550251574206e-04 0.0000000000000000e+00  -1.5216601060929059e-04 8.2041904540356011e-04 0.0000000000000000e+00  -1.3605957464768697e-04 8.3198399563065789e-04 0.0000000000000000e+00  -1.2562579579189967e-04 8.4004482263736033e-04 0.0000000000000000e+00  -1.2121717260144662e-04 8.4504615395132425e-04 0.0000000000000000e+00  -1.2263563447557240e-04 8.4820756323235845e-04 0.0000000000000000e+00  -1.2994641499921626e-04 8.4987225481910852e-04 0.0000000000000000e+00  -1.4248674413308517e-04 8.5276128074104776e-04 0.0000000000000000e+00  -1.5817157408420081e-04 8.5879036077271000e-04 0.0000000000000000e+00  -1.7447778412824286e-04 8.6903244389363490e-04 0.0000000000000000e+00  -1.9003265520278661e-04 8.8423487883588126e-04 0.0000000000000000e+00  -2.0294346855783083e-04 9.0317201427067540e-04 0.0000000000000000e+00  -2.1409872539563022e-04 9.2622938709490657e-04 0.0000000000000000e+00  -2.2249398993009074e-04 9.5258942314098676e-04 0.0000000000000000e+00  -2.2814157257638746e-04 9.8159749170017912e-04 0.0000000000000000e+00  -2.3115623721359582e-04 1.0125227952588621e-03 0.0000000000000000e+00  -2.3162651647683978e-04 1.0444173985259082e-03 0.0000000000000000e+00  -2.2967047013702790e-04 1.0761828553660215e-03 0.0000000000000000e+00  -2.2550493899947948e-04 1.1068970738748736e-03 0.0000000000000000e+00  -2.2001529225545310e-04 1.1355354991526112e-03 0.0000000000000000e+00  -2.1334381585679012e-04 1.1619867852393352e-03 0.0000000000000000e+00  -2.0575874567801419e-04 1.1858845718609339e-03 0.0000000000000000e+00  -1.9744590144638594e-04 1.2073804180464632e-03 0.0000000000000000e+00  -1.8793190366593257e-04 1.2268842871395094e-03 0.0000000000000000e+00  -1.7639522684403854e-04 1.2441436199425247e-03 0.0000000000000000e+00  -1.6116043490440660e-04 1.2585079006358815e-03 0.0000000000000000e+00  -1.4054317751472807e-04 1.2677250346612465e-03 0.0000000000000000e+00  -1.1406585783444923e-04 1.2693250867128586e-03 0.0000000000000000e+00  -8.2050937062671180e-05 1.2619596591740209e-03 0.0000000000000000e+00  -4.4412604609006599e-05 1.2451311814813645e-03 0.0000000000000000e+00  -1.4047152864994827e-06 1.2184209907657435e-03 0.0000000000000000e+00  4.6535597749716513e-05 1.1813955827667060e-03 0.0000000000000000e+00  9.8522874933025840e-05 1.1340519682249669e-03 0.0000000000000000e+00  1.5277756241557195e-04 1.0763269467440415e-03 0.0000000000000000e+00  2.0616123070917784e-04 1.0104947838847618e-03 0.0000000000000000e+00  2.5764225997480577e-04 9.3852620787828551e-04 0.0000000000000000e+00  3.0419416609558372e-04 8.6332383630710759e-04 0.0000000000000000e+00  3.4251353967851359e-04 7.8685568911657385e-04 0.0000000000000000e+00  3.7414274912101234e-04 7.1530749999021838e-04 0.0000000000000000e+00  3.9816134393857788e-04 6.4762320186988501e-04 0.0000000000000000e+00  4.1501647738839611e-04 5.8577889644094373e-04 0.0000000000000000e+00  4.2597709040347097e-04 5.3011442082880490e-04 0.0000000000000000e+00  4.3150405952663756e-04 4.7945893864006773e-04 0.0000000000000000e+00  4.3205418832426972e-04 4.3348603306739199e-04 0.0000000000000000e+00  4.2699178978009591e-04 3.9064908251328984e-04 0.0000000000000000e+00  4.1577472564935299e-04 3.5131136378323627e-04 0.0000000000000000e+00  3.9842954663476930e-04 3.1540709668931598e-04 0.0000000000000000e+00  3.7535455109244560e-04 2.8298497232786895e-04 0.0000000000000000e+00  3.4841203869741510e-04 2.5468891317745107e-04 0.0000000000000000e+00  3.1981210841671624e-04 2.2954677395658265e-04 0.0000000000000000e+00  2.9038694280234949e-04 2.0555707044299859e-04 0.0000000000000000e+00  2.6009743631819142e-04 1.8199591198253296e-04 0.0000000000000000e+00  2.2780224480387442e-04 1.5756695447677977e-04 0.0000000000000000e+00  1.9247107650948681e-04 1.3381870697329147e-04 0.0000000000000000e+00  1.5550801121856525e-04 1.1330054612878263e-04 0.0000000000000000e+00  1.2062223059940863e-04 9.6845108391487069e-05 0.0000000000000000e+00  9.0684504047105759e-05 8.4737347469390851e-05 0.0000000000000000e+00  6.7460537390768015e-05 7.5125206204538372e-05 0.0000000000000000e+00  5.0067999516891027e-05 6.6553089530503750e-05 0.0000000000000000e+00  3.6774874565965055e-05 5.8044495221453352e-05 0.0000000000000000e+00  2.5906709718854408e-05 4.9524234816957357e-05 0.0000000000000000e+00  1.6326489237437200e-05 4.1160130682982081e-05 0.0000000000000000e+00  7.4642441290204634e-06 3.3295841276048904e-05 0.0000000000000000e+00  -9.2356120770266331e-07 2.6223962100226323e-05 0.0000000000000000e+00  -8.8445943006387002e-06 1.9907515070783663e-05 0.0000000000000000e+00  -1.6417541833776979e-05 1.4559252794670810e-05 0.0000000000000000e+00  -2.3476809538613868e-05 1.0187382932861938e-05 0.0000000000000000e+00  -3.0033708582113359e-05 6.5742782321756820e-06 0.0000000000000000e+00  -3.6098845850282386e-05 3.8950100753164848e-06 0.0000000000000000e+00  -4.1578831391115431e-05 1.8537969274686700e-06 0.0000000000000000e+00  -4.6582044643133458e-05 4.8053429502228162e-07 0.0000000000000000e+00  -5.1123903736311770e-05 -3.5143974948730125e-07 0.0000000000000000e+00  -5.5137117830052590e-05 -7.6745356110227685e-07 0.0000000000000000e+00  -5.8810541970258813e-05 -8.4955355923053598e-07 0.0000000000000000e+00  -6.2086907013873704e-05 -6.7931419717292553e-07 0.0000000000000000e+00  -6.5071663957337936e-05 -3.8068286858142646e-07 0.0000000000000000e+00  -6.7819501588257388e-05 1.1787801034745120e-08 0.0000000000000000e+00  -7.0428449251311605e-05 4.2644346967412058e-07 0.0000000000000000e+00  -7.2890556910093143e-05 8.6512600088606323e-07 0.0000000000000000e+00  -7.5287574226602275e-05 1.2451077085814589e-06 0.0000000000000000e+00  -7.7698510767734206e-05 1.6550572535778809e-06 0.0000000000000000e+00  -8.0079606339756524e-05 2.0786116798546795e-06 0.0000000000000000e+00  -8.2543558911613550e-05 2.5833899609551945e-06 0.0000000000000000e+00  -8.5018192168320175e-05 3.2177705055775473e-06 0.0000000000000000e+00  -8.7507406494206298e-05 4.0573581279616091e-06 0.0000000000000000e+00  -9.0072449823296356e-05 5.2637362620650349e-06 0.0000000000000000e+00  -9.2472729945915268e-05 6.8253955234631228e-06 0.0000000000000000e+00  -9.4769822057995935e-05 8.8790584531906919e-06 0.0000000000000000e+00  -9.6751238247288118e-05 1.1417812791391135e-05 0.0000000000000000e+00  -9.8416672586448356e-05 1.4400420488530101e-05 0.0000000000000000e+00  -9.9801562346012803e-05 1.7794276931078580e-05 0.0000000000000000e+00  -1.0081601427761733e-04 2.1607258336442046e-05 0.0000000000000000e+00  -1.0189614561317194e-04 2.5515003756203616e-05 0.0000000000000000e+00  -1.0366612189667794e-04 2.9696217144301331e-05 0.0000000000000000e+00  -1.0739274739038109e-04 3.4195954080394699e-05 0.0000000000000000e+00  -1.1429131919604284e-04 4.0194346490231453e-05 0.0000000000000000e+00  -1.2643702798106131e-04 4.8682986949763166e-05 0.0000000000000000e+00  -1.4331639334493179e-04 6.2079157853160989e-05 0.0000000000000000e+00  -1.6508013373510810e-04 8.0497168892518134e-05 0.0000000000000000e+00  -1.8880090698024436e-04 1.0375226707875709e-04 0.0000000000000000e+00  -2.1354993921091672e-04 1.2921951047444746e-04 0.0000000000000000e+00  -2.3977822289318086e-04 1.5508232539341367e-04 0.0000000000000000e+00  -2.6908905355795600e-04 1.8130756889274028e-04 0.0000000000000000e+00  -3.0237808886397668e-04 2.0966609633828154e-04 0.0000000000000000e+00  -3.3835063331434596e-04 2.4227953148688153e-04 0.0000000000000000e+00  -3.7363725582264509e-04 2.7992145677439319e-04 0.0000000000000000e+00  -4.0415832927955035e-04 3.2241575524033446e-04 0.0000000000000000e+00  -4.2628928181295096e-04 3.6738780951815232e-04 0.0000000000000000e+00  -4.3833423968687307e-04 4.1278462327514219e-04 0.0000000000000000e+00  -4.3964763279496149e-04 4.5718397219782496e-04 0.0000000000000000e+00  -4.3212092555172541e-04 4.9811545904604275e-04 0.0000000000000000e+00  4.3861539435931419e-04 3.3704160912585745e-04 0.0000000000000000e+00  4.3242827709860578e-04 3.3058033159763192e-04 0.0000000000000000e+00  4.1633891620215655e-04 3.2074126135364682e-04 0.0000000000000000e+00  3.9320154404674595e-04 3.110