<?xml version="1.0"?>
<VTKFile type="UnstructuredGrid"  version="0.1"  >
<UnstructuredGrid>
<Piece  NumberOfPoints="3879" NumberOfCells="6881">
<Points>
<DataArray  type="Float64"  NumberOfComponents="3"  format="ascii">0.207524190028372 0.2122422770132111 0  0 0 0  1 0 0  0 1 0  1 1 0  0.6249674373315121 0.2590146544375328 0  0.204663578893616 0.322657230836866 0  0.09605577522599912 0.4018360776629776 0  0.671351124618251 0.08738059142081528 0  0.7842102907526436 0.1666439122351055 0  0.8512483166984784 0.1985391006160637 0  0.6418797837909295 0.4423157172830166 0  0.9292488447973215 0.3869277868069776 0  0.3197896119137055 0.5509935221980964 0  0.3979283685568406 0.5079871620336583 0  0.1572503457993085 0.7345153245035532 0  0.3032914287999163 0.7872981443735918 0  0.3549464687598876 0.8870324161721976 0  0.9691791685505482 0.5159450047798622 0  0.9447564590470373 0.6146164845729313 0  0.7687603548175107 0.7176858127488035 0  0.8926159261971183 0.7422924070424508 0  0.2061587782631535 0.2217389244366831 0  0.2021731605082994 0.2304662099646423 0  0.1958902278109265 0.2377171008267789 0  0.1878189860121365 0.2429041729681512 0  0.1786133191209442 0.2456072006525708 0  0.1690190155206647 0.2456072006525708 0  0.1598133486294724 0.2429041729681512 0  0.1517421068306824 0.2377171008267789 0  0.1454591741333096 0.2304662099646422 0  0.1414735563784554 0.221738924436683 0  0.1401081446132369 0.212242277013211 0  0.1414735563784555 0.202745629589739 0  0.1454591741333096 0.1940183440617798 0  0.1517421068306825 0.1867674531996431 0  0.1598133486294725 0.1815803810582709 0  0.1690190155206649 0.1788773533738513 0  0.1786133191209443 0.1788773533738514 0  0.1878189860121367 0.181580381058271 0  0.1958902278109266 0.1867674531996433 0  0.2021731605082994 0.19401834406178 0  0.2061587782631535 0.2027456295897391 0  0.03333333333333333 0 0  0.06666666666666667 0 0  0.1 0 0  0.1333333333333333 0 0  0.1666666666666667 0 0  0.2 0 0  0.2333333333333333 0 0  0.2666666666666667 0 0  0.3 0 0  0.3333333333333333 0 0  0.3666666666666666 0 0  0.4 0 0  0.4333333333333333 0 0  0.4666666666666667 0 0  0.5 0 0  0.5333333333333333 0 0  0.5666666666666667 0 0  0.6 0 0  0.6333333333333333 0 0  0.6666666666666666 0 0  0.7 0 0  0.7333333333333333 0 0  0.7666666666666667 0 0  0.8 0 0  0.8333333333333334 0 0  0.8666666666666667 0 0  0.9 0 0  0.9333333333333333 0 0  0.9666666666666667 0 0  0 0.9666666666666667 0  0 0.9333333333333333 0  0 0.9 0  0 0.8666666666666667 0  0 0.8333333333333334 0  0 0.8 0  0 0.7666666666666666 0  0 0.7333333333333334 0  0 0.7 0  0 0.6666666666666667 0  0 0.6333333333333333 0  0 0.6 0  0 0.5666666666666667 0  0 0.5333333333333333 0  0 0.5 0  0 0.4666666666666667 0  0 0.4333333333333333 0  0 0.4 0  0 0.3666666666666667 0  0 0.3333333333333334 0  0 0.3 0  0 0.2666666666666667 0  0 0.2333333333333333 0  0 0.2 0  0 0.1666666666666666 0  0 0.1333333333333333 0  0 0.09999999999999998 0  0 0.06666666666666665 0  0 0.03333333333333333 0  1 0.03333333333333333 0  1 0.06666666666666667 0  1 0.1 0  1 0.1333333333333333 0  1 0.1666666666666667 0  1 0.2 0  1 0.2333333333333333 0  1 0.2666666666666667 0  1 0.3 0  1 0.3333333333333333 0  1 0.3666666666666666 0  1 0.4 0  1 0.4333333333333333 0  1 0.4666666666666667 0  1 0.5 0  1 0.5333333333333333 0  1 0.5666666666666667 0  1 0.6 0  1 0.6333333333333333 0  1 0.6666666666666666 0  1 0.7 0  1 0.7333333333333333 0  1 0.7666666666666667 0  1 0.8 0  1 0.8333333333333334 0  1 0.8666666666666667 0  1 0.9 0  1 0.9333333333333333 0  1 0.9666666666666667 0  0.9666666666666667 1 0  0.9333333333333333 1 0  0.9 1 0  0.8666666666666667 1 0  0.8333333333333334 1 0  0.8 1 0  0.7666666666666666 1 0  0.7333333333333334 1 0  0.7 1 0  0.6666666666666667 1 0  0.6333333333333333 1 0  0.6 1 0  0.5666666666666667 1 0  0.5333333333333333 1 0  0.5 1 0  0.4666666666666667 1 0  0.4333333333333333 1 0  0.4 1 0  0.3666666666666667 1 0  0.3333333333333334 1 0  0.3 1 0  0.2666666666666667 1 0  0.2333333333333333 1 0  0.2 1 0  0.1666666666666666 1 0  0.1333333333333333 1 0  0.09999999999999998 1 0  0.06666666666666665 1 0  0.03333333333333333 1 0  0.6247072676344306 0.2689501343248463 0  0.6239274716502419 0.2788583817523955 0  0.6226301867455355 0.2887122389026952 0  0.6208189686880621 0.2984846970382296 0  0.6184987819006211 0.3081489705305245 0  0.6156759858539226 0.317678570277693 0  0.6123583176357204 0.3270473763092224 0  0.6085548707439923 0.3362297093789981 0  0.6042760701622942 0.3452004013503318 0  0.5995336437856049 0.3539348641800754 0  0.5943405902749808 0.3624091573127375 0  0.5887111434291297 0.3706000532998825 0  0.582660733170558 0.3784851014649517 0  0.5762059432532257 0.3860426894390078 0  0.5693644658076293 0.3932521023987353 0  0.5621550528479018 0.4000935798443317 0  0.5545974648738458 0.4065483697616639 0  0.5467124167087765 0.4125987800202355 0  0.5385215207216315 0.4182282268660866 0  0.5300472275889694 0.4234212803767108 0  0.5213127647592257 0.4281637067534002 0  0.512342072787892 0.4324425073350981 0  0.5031597397181163 0.4362459542268262 0  0.493790933686587 0.4395636224450283 0  0.4842613339394185 0.4423864184917269 0  0.4745970604471235 0.4447066052791678 0  0.4648246023115891 0.4465178233366412 0  0.4549707451612894 0.4478151082413475 0  0.4450624977337403 0.4485949042255363 0  0.4351270178464268 0.4488550739226177 0  0.4251915379591132 0.4485949042255363 0  0.4152832905315641 0.4478151082413475 0  0.4054294333812644 0.4465178233366411 0  0.39565697524573 0.4447066052791677 0  0.385992701753435 0.4423864184917267 0  0.3764631020062665 0.4395636224450281 0  0.3670942959747371 0.4362459542268259 0  0.3579119629049616 0.4324425073350978 0  0.3489412709336278 0.4281637067533998 0  0.3402068081038843 0.4234212803767103 0  0.3317325149712221 0.4182282268660862 0  0.3235416189840771 0.412598780020235 0  0.3156565708190078 0.4065483697616634 0  0.3080989828449519 0.4000935798443311 0  0.3008895698852244 0.3932521023987346 0  0.2940480924396279 0.3860426894390071 0  0.2875933025222958 0.3784851014649511 0  0.2815428922637242 0.3706000532998818 0  0.2759134454178731 0.3624091573127368 0  0.2707203919072489 0.3539348641800746 0  0.2659779655305596 0.3452004013503309 0  0.2616991649488616 0.3362297093789972 0  0.2578957180571336 0.3270473763092215 0  0.2545780498389315 0.3176785702776921 0  0.251755253792233 0.3081489705305236 0  0.249435067004792 0.2984846970382286 0  0.2476238489473186 0.2887122389026941 0  0.2463265640426123 0.2788583817523945 0  0.2455467680584236 0.2689501343248454 0  0.2452865983613423 0.2590146544375318 0  0.2455467680584237 0.2490791745502182 0  0.2463265640426126 0.2391709271226692 0  0.247623848947319 0.2293170699723696 0  0.2494350670047924 0.2195446118368351 0  0.2517552537922335 0.2098803383445402 0  0.2545780498389321 0.2003507385973717 0  0.2578957180571343 0.1909819325658423 0  0.2616991649488624 0.1817995994960667 0  0.2659779655305604 0.172828907524733 0  0.2707203919072498 0.1640944446949895 0  0.2759134454178741 0.1556201515623273 0  0.2815428922637251 0.1474292555751825 0  0.2875933025222969 0.1395442074101132 0  0.2940480924396291 0.1319866194360571 0  0.3008895698852256 0.1247772064763297 0  0.3080989828449531 0.1179357290307334 0  0.3156565708190092 0.1114809391134012 0  0.3235416189840785 0.1054305288548295 0  0.3317325149712236 0.09980108200897844 0  0.3402068081038856 0.0946080284983544 0  0.3489412709336291 0.08986560212166514 0  0.357911962904963 0.08558680153996717 0  0.3670942959747386 0.08178335464823916 0  0.3764631020062678 0.07846568643003712 0  0.3859927017534364 0.0756428903833386 0  0.3956569752457313 0.0733227035958976 0  0.4054294333812659 0.07151148553842429 0  0.4152832905315654 0.07021420063371797 0  0.4251915379591144 0.0694344046495293 0  0.435127017846428 0.0691742349524479 0  0.4450624977337415 0.06943440464952938 0  0.4549707451612905 0.07021420063371814 0  0.4648246023115901 0.07151148553842454 0  0.4745970604471245 0.07332270359589793 0  0.4842613339394195 0.07564289038333902 0  0.4937909336865879 0.07846568643003757 0  0.5031597397181173 0.0817833546482398 0  0.5123420727878929 0.08558680153996781 0  0.5213127647592265 0.08986560212166581 0  0.53004722758897 0.0946080284983552 0  0.5385215207216321 0.09980108200897933 0  0.5467124167087771 0.1054305288548305 0  0.5545974648738462 0.1114809391134021 0  0.5621550528479023 0.1179357290307343 0  0.5693644658076298 0.1247772064763308 0  0.576205943253226 0.1319866194360582 0  0.5826607331705582 0.1395442074101142 0  0.5887111434291299 0.1474292555751835 0  0.594340590274981 0.1556201515623285 0  0.5995336437856051 0.1640944446949906 0  0.6042760701622945 0.172828907524734 0  0.6085548707439925 0.1817995994960678 0  0.6123583176357205 0.1909819325658435 0  0.6156759858539227 0.2003507385973728 0  0.6184987819006211 0.2098803383445412 0  0.6208189686880622 0.2195446118368362 0  0.6226301867455355 0.2293170699723706 0  0.6239274716502419 0.2391709271226702 0  0.6247072676344306 0.2490791745502192 0  0.203885768735257 0.3325402459548524 0  0.2015714905276826 0.3421799084407872 0  0.1977777294810124 0.3513388578120612 0  0.1925979005829864 0.3597915703383434 0  0.1861595484119405 0.3673299121842922 0  0.1786212065659918 0.373768264355338 0  0.1701684940397096 0.378948093253364 0  0.1610095446684356 0.3827418543000342 0  0.1513698821825007 0.3850561325076086 0  0.1414868670645144 0.3858339426659677 0  0.1316038519465281 0.3850561325076086 0  0.1219641894605933 0.3827418543000343 0  0.1128052400893193 0.378948093253364 0  0.1043525275630371 0.3737682643553381 0  0.09681418571708833 0.3673299121842922 0  0.09037583354604248 0.3597915703383434 0  0.08519600464801645 0.3513388578120612 0  0.08140224360134621 0.3421799084407872 0  0.07908796539377183 0.3325402459548523 0  0.07831015523541281 0.3226572308368659 0  0.07908796539377186 0.3127742157188796 0  0.08140224360134626 0.3031345532329447 0  0.08519600464801655 0.2939756038616707 0  0.0903758335460426 0.2855228913353884 0  0.0968141857
[...]
<PointData  Vectors="$u$"> 
<DataArray  type="Float64"  Name="$u$"  NumberOfComponents="3" format="ascii">4.1380250717906535e-04 7.8668378356783176e-04 0.0000000000000000e+00  0.0000000000000000e+00 0.0000000000000000e+00 0.0000000000000000e+00  -1.1031561725081184e-03 0.0000000000000000e+00 0.0000000000000000e+00  -1.1359964817208103e-04 9.2499999999999995e-03 0.0000000000000000e+00  -1.2452039856662115e-03 9.2499999999999995e-03 0.0000000000000000e+00  -1.7372485968948788e-03 2.4112387446616479e-03 0.0000000000000000e+00  1.8227689880228406e-03 1.3113960675080825e-03 0.0000000000000000e+00  1.5290560506183838e-03 2.1944022532795321e-03 0.0000000000000000e+00  -9.9525199508028873e-04 2.7241742046248905e-04 0.0000000000000000e+00  -1.4550264491372227e-03 2.6046406027891583e-06 0.0000000000000000e+00  -1.6508825282837963e-03 2.1163476453596789e-04 0.0000000000000000e+00  1.5364971702978457e-04 3.7212708038134967e-03 0.0000000000000000e+00  -4.1414955974172947e-03 2.2626854044591675e-03 0.0000000000000000e+00  -4.4037766731936837e-04 5.6188765114822663e-03 0.0000000000000000e+00  -3.0868043563638784e-04 5.0307798653858871e-03 0.0000000000000000e+00  1.5706131186144421e-03 8.9561467860797168e-03 0.0000000000000000e+00  7.4100496464707074e-04 7.2504703676436241e-03 0.0000000000000000e+00  -6.7308573892293491e-04 8.8608107691711558e-03 0.0000000000000000e+00  -4.4526617259269532e-03 4.3684809574266103e-03 0.0000000000000000e+00  -3.1161212458676920e-03 6.8595349833398276e-03 0.0000000000000000e+00  -2.2276079784732208e-03 8.4465321647897874e-03 0.0000000000000000e+00  -2.0474101240011170e-03 8.4405365918751220e-03 0.0000000000000000e+00  5.5486603862041112e-04 9.3331508953564744e-04 0.0000000000000000e+00  7.0804218422001292e-04 1.0631842181584217e-03 0.0000000000000000e+00  8.4429439297939348e-04 1.1779005570771702e-03 0.0000000000000000e+00  9.5204388400271019e-04 1.2282096529597040e-03 0.0000000000000000e+00  1.0385807864500621e-03 1.2057493663627404e-03 0.0000000000000000e+00  1.0586778663350740e-03 1.0696493004431046e-03 0.0000000000000000e+00  1.0355335571331605e-03 8.7128144749820202e-04 0.0000000000000000e+00  9.3833649923352855e-04 6.9787130251332632e-04 0.0000000000000000e+00  8.1680500537341968e-04 5.9628538878275664e-04 0.0000000000000000e+00  7.0778185577406976e-04 5.5444050622716003e-04 0.0000000000000000e+00  5.9354118705052963e-04 4.9819154582988741e-04 0.0000000000000000e+00  4.9155360564128901e-04 4.5779450286128487e-04 0.0000000000000000e+00  3.9948772989074031e-04 4.0683243349574390e-04 0.0000000000000000e+00  3.2147841909071568e-04 3.6286148633753288e-04 0.0000000000000000e+00  2.5089805207790969e-04 3.3679523199008245e-04 0.0000000000000000e+00  2.0439564618112709e-04 3.2887271808997715e-04 0.0000000000000000e+00  1.7147457482696323e-04 3.4368444802179579e-04 0.0000000000000000e+00  1.6064453594561730e-04 3.8258475493215872e-04 0.0000000000000000e+00  1.8016623277572005e-04 4.4651486570815530e-04 0.0000000000000000e+00  2.1916017302070639e-04 5.3102664598214948e-04 0.0000000000000000e+00  3.0248204959203081e-04 6.4525197166318991e-04 0.0000000000000000e+00  0.0000000000000000e+00 0.0000000000000000e+00 0.0000000000000000e+00  -8.2806450898621723e-05 0.0000000000000000e+00 0.0000000000000000e+00  -1.0929351982785085e-04 0.0000000000000000e+00 0.0000000000000000e+00  -1.4630404729457677e-04 0.0000000000000000e+00 0.0000000000000000e+00  -1.6997680088087682e-04 0.0000000000000000e+00 0.0000000000000000e+00  -1.9606031139350193e-04 0.0000000000000000e+00 0.0000000000000000e+00  -2.1841093221784959e-04 0.0000000000000000e+00 0.0000000000000000e+00  -2.4139638663810427e-04 0.0000000000000000e+00 0.0000000000000000e+00  -2.6030271014894558e-04 0.0000000000000000e+00 0.0000000000000000e+00  -2.7591376819023801e-04 0.0000000000000000e+00 0.0000000000000000e+00  -2.9113091525625952e-04 0.0000000000000000e+00 0.0000000000000000e+00  -3.1047767562048396e-04 0.0000000000000000e+00 0.0000000000000000e+00  -3.3308990584489189e-04 0.0000000000000000e+00 0.0000000000000000e+00  -3.5922708034726990e-04 0.0000000000000000e+00 0.0000000000000000e+00  -3.9107272381613372e-04 0.0000000000000000e+00 0.0000000000000000e+00  -4.3939671381376742e-04 0.0000000000000000e+00 0.0000000000000000e+00  -5.1422546541479795e-04 0.0000000000000000e+00 0.0000000000000000e+00  -6.1306099609720766e-04 0.0000000000000000e+00 0.0000000000000000e+00  -6.8597118950155145e-04 0.0000000000000000e+00 0.0000000000000000e+00  -7.4753211614521494e-04 0.0000000000000000e+00 0.0000000000000000e+00  -8.2880158588787933e-04 0.0000000000000000e+00 0.0000000000000000e+00  -8.8611501862841504e-04 0.0000000000000000e+00 0.0000000000000000e+00  -9.0683190919308896e-04 0.0000000000000000e+00 0.0000000000000000e+00  -9.1369756562284131e-04 0.0000000000000000e+00 0.0000000000000000e+00  -9.1630517300714492e-04 0.0000000000000000e+00 0.0000000000000000e+00  -9.3066821158184574e-04 0.0000000000000000e+00 0.0000000000000000e+00  -9.4952679142940412e-04 0.0000000000000000e+00 0.0000000000000000e+00  -9.8786599568207551e-04 0.0000000000000000e+00 0.0000000000000000e+00  -1.0391143837826787e-03 0.0000000000000000e+00 0.0000000000000000e+00  -9.6656864842695848e-05 8.9978814631732108e-03 0.0000000000000000e+00  -3.9013901821107836e-05 8.7447678636834031e-03 0.0000000000000000e+00  5.6916537405195352e-05 8.4819212936963380e-03 0.0000000000000000e+00  2.0257428213619192e-04 8.2134043659696648e-03 0.0000000000000000e+00  3.9629593189571615e-04 7.9373394889113609e-03 0.0000000000000000e+00  6.4456556827233971e-04 7.6492719432025742e-03 0.0000000000000000e+00  9.5069517604427073e-04 7.3521534420666491e-03 0.0000000000000000e+00  1.3207635881290743e-03 7.0216453688517547e-03 0.0000000000000000e+00  1.7903517162712137e-03 6.6614478286824482e-03 0.0000000000000000e+00  2.3849774904542748e-03 6.2649326304927370e-03 0.0000000000000000e+00  3.1357962391500857e-03 5.8583100796372736e-03 0.0000000000000000e+00  4.0217401252111854e-03 5.4978558517667963e-03 0.0000000000000000e+00  4.9257949618165498e-03 5.3003158344560666e-03 0.0000000000000000e+00  4.8577348556656961e-03 5.4310193746861272e-03 0.0000000000000000e+00  3.9645827477950268e-03 5.1552869891558478e-03 0.0000000000000000e+00  3.2902640388094433e-03 4.7183840897152655e-03 0.0000000000000000e+00  3.0969997897208369e-03 3.7919850657490203e-03 0.0000000000000000e+00  2.7688082684893195e-03 3.2604012874261927e-03 0.0000000000000000e+00  2.2334146747078651e-03 2.9613736201618431e-03 0.0000000000000000e+00  1.7118858769980879e-03 2.4668736784499118e-03 0.0000000000000000e+00  1.4192562439530798e-03 2.1601377220900261e-03 0.0000000000000000e+00  1.1273256006584277e-03 1.8946530351577804e-03 0.0000000000000000e+00  8.6546753198467579e-04 1.6461455883911994e-03 0.0000000000000000e+00  6.3313262741507780e-04 1.4017158209029923e-03 0.0000000000000000e+00  4.3885931403965539e-04 1.1619630602036299e-03 0.0000000000000000e+00  2.8493848904870582e-04 9.1731356680878860e-04 0.0000000000000000e+00  1.7221079280741554e-04 6.8600035404021292e-04 0.0000000000000000e+00  9.4734143972587261e-05 4.4357127795620663e-04 0.0000000000000000e+00  6.1902815227048687e-05 2.3157661002791674e-04 0.0000000000000000e+00  -1.1186318420540763e-03 2.3730894207160092e-04 0.0000000000000000e+00  -1.1738761145917956e-03 4.7923129571590141e-04 0.0000000000000000e+00  -1.2666616159638137e-03 7.2639010992198107e-04 0.0000000000000000e+00  -1.4046707691794072e-03 9.8475468255542061e-04 0.0000000000000000e+00  -1.5955151818585929e-03 1.2569169502131986e-03 0.0000000000000000e+00  -1.8514628239660732e-03 1.5425615386558686e-03 0.0000000000000000e+00  -2.1777111215090413e-03 1.8350435648953384e-03 0.0000000000000000e+00  -2.5891829767355976e-03 2.1408701142862302e-03 0.0000000000000000e+00  -3.0860759478491956e-03 2.4261869442140393e-03 0.0000000000000000e+00  -3.6317485697468965e-03 2.6618203239240036e-03 0.0000000000000000e+00  -4.1319667412940504e-03 2.8111267757309705e-03 0.0000000000000000e+00  -4.4440861103375723e-03 2.8942729217549656e-03 0.0000000000000000e+00  -4.5180522794984242e-03 3.0071364733725483e-03 0.0000000000000000e+00  -4.4931745448257340e-03 3.2939139067651199e-03 0.0000000000000000e+00  -5.0902175298286967e-03 4.1101751464255598e-03 0.0000000000000000e+00  -4.9842401259436965e-03 4.1171464610699308e-03 0.0000000000000000e+00  -3.0650146865403623e-03 6.4776222383998473e-03 0.0000000000000000e+00  -3.2603046904922674e-03 6.7579854362002662e-03 0.0000000000000000e+00  -3.2434625551184112e-03 6.8489871906693518e-03 0.0000000000000000e+00  -2.9362356153087759e-03 6.9900682181213260e-03 0.0000000000000000e+00  -2.5722305619895153e-03 7.2049677287164817e-03 0.0000000000000000e+00  -2.2520002845859083e-03 7.4502332504682179e-03 0.0000000000000000e+00  -1.9810445885790878e-03 7.6894435778196244e-03 0.0000000000000000e+00  -1.7562829797456484e-03 7.9292873694424629e-03 0.0000000000000000e+00  -1.5831438296695065e-03 8.1671252082692325e-03 0.0000000000000000e+00  -1.4551619865194160e-03 8.3942228948856688e-03 0.0000000000000000e+00  -1.3611622789419960e-03 8.6137106235654997e-03 0.0000000000000000e+00  -1.2965566017765146e-03 8.8269864558791124e-03 0.0000000000000000e+00  -1.2568155736832197e-03 9.0390223094856149e-03 0.0000000000000000e+00  -1.1874462536519638e-03 9.2499999999999995e-03 0.0000000000000000e+00  -1.1351265382725500e-03 9.2499999999999995e-03 0.0000000000000000e+00  -1.0918741858674912e-03 9.2499999999999995e-03 0.0000000000000000e+00  -1.0540162740707872e-03 9.2499999999999995e-03 0.0000000000000000e+00  -1.0200534008171483e-03 9.2499999999999995e-03 0.0000000000000000e+00  -9.8770394799997186e-04 9.2499999999999995e-03 0.0000000000000000e+00  -9.5914632024086217e-04 9.2499999999999995e-03 0.0000000000000000e+00  -9.3658272162165548e-04 9.2499999999999995e-03 0.0000000000000000e+00  -9.1660791190176618e-04 9.2499999999999995e-03 0.0000000000000000e+00  -9.0179911658795002e-04 9.2499999999999995e-03 0.0000000000000000e+00  -8.8212096660480815e-04 9.2499999999999995e-03 0.0000000000000000e+00  -8.5940508805194317e-04 9.2499999999999995e-03 0.0000000000000000e+00  -8.3153922485914883e-04 9.2499999999999995e-03 0.0000000000000000e+00  -8.0145930701253359e-04 9.2499999999999995e-03 0.0000000000000000e+00  -7.7110158773452614e-04 9.2499999999999995e-03 0.0000000000000000e+00  -7.3473101743376003e-04 9.2499999999999995e-03 0.0000000000000000e+00  -6.8829396258694936e-04 9.2499999999999995e-03 0.0000000000000000e+00  -6.2302833956266452e-04 9.2499999999999995e-03 0.0000000000000000e+00  -5.4630346728328004e-04 9.2499999999999995e-03 0.0000000000000000e+00  -4.7958676116569341e-04 9.2499999999999995e-03 0.0000000000000000e+00  -4.3845011730249319e-04 9.2499999999999995e-03 0.0000000000000000e+00  -4.0343885967255682e-04 9.2499999999999995e-03 0.0000000000000000e+00  -3.6224079486121065e-04 9.2499999999999995e-03 0.0000000000000000e+00  -3.3068821738416637e-04 9.2499999999999995e-03 0.0000000000000000e+00  -3.1579462861643255e-04 9.2499999999999995e-03 0.0000000000000000e+00  -2.9709271782846680e-04 9.2499999999999995e-03 0.0000000000000000e+00  -2.7465377551467215e-04 9.2499999999999995e-03 0.0000000000000000e+00  -2.3606526833019209e-04 9.2499999999999995e-03 0.0000000000000000e+00  -1.8054690194311377e-04 9.2499999999999995e-03 0.0000000000000000e+00  -1.6320935050005319e-03 2.5455000634951775e-03 0.0000000000000000e+00  -1.5115619765793721e-03 2.6747987641071304e-03 0.0000000000000000e+00  -1.3784779592050840e-03 2.8069351326747006e-03 0.0000000000000000e+00  -1.2384492517300240e-03 2.9334706357497988e-03 0.0000000000000000e+00  -1.0925311422461045e-03 3.0625078560466493e-03 0.0000000000000000e+00  -9.4366125365605703e-04 3.1827962745838438e-03 0.0000000000000000e+00  -7.9730220569231751e-04 3.2928116439356367e-03 0.0000000000000000e+00  -6.6096939813549633e-04 3.3919665831178324e-03 0.0000000000000000e+00  -5.3557623254715033e-04 3.4758061172837800e-03 0.0000000000000000e+00  -4.2946908854679482e-04 3.5424319351305823e-03 0.0000000000000000e+00  -3.4422764017206413e-04 3.5951085525290239e-03 0.0000000000000000e+00  -2.8190304026120969e-04 3.6317961714856903e-03 0.0000000000000000e+00  -2.4554223064116498e-04 3.6567729444673997e-03 0.0000000000000000e+00  -2.3334011713150763e-04 3.6721178553269862e-03 0.0000000000000000e+00  -2.4703137259982343e-04 3.6795045513218850e-03 0.0000000000000000e+00  -2.8496467905755657e-04 3.6909040796573190e-03 0.0000000000000000e+00  -3.3677207359815095e-04 3.7129926339724397e-03 0.0000000000000000e+00  -3.9356063579295886e-04 3.7511205811389886e-03 0.0000000000000000e+00  -4.4789790888299366e-04 3.8072852406934176e-03 0.0000000000000000e+00  -4.9472784347717063e-04 3.8762759480130298e-03 0.0000000000000000e+00  -5.3492471800403111e-04 3.9598389666480882e-03 0.0000000000000000e+00  -5.6655163216682636e-04 4.0534292734335500e-03 0.0000000000000000e+00  -5.8958108505884207e-04 4.1558206380243479e-03 0.0000000000000000e+00  -6.0449578499148016e-04 4.2641689708213691e-03 0.0000000000000000e+00  -6.1102931599067668e-04 4.3749238628596841e-03 0.0000000000000000e+00  -6.1069902028040640e-04 4.4849887631713227e-03 0.0000000000000000e+00  -6.0246497970552291e-04 4.5908578290952849e-03 0.0000000000000000e+00  -5.9087698889977299e-04 4.6896468283331742e-03 0.0000000000000000e+00  -5.7502438492561150e-04 4.7807658450202094e-03 0.0000000000000000e+00  -5.5620178376527510e-04 4.8635489324930000e-03 0.0000000000000000e+00  -5.3492711869464345e-04 4.9383021984469415e-03 0.0000000000000000e+00  -5.0752308116017511e-04 5.0073443901631964e-03 0.0000000000000000e+00  -4.7035632755484464e-04 5.0674164465551721e-03 0.0000000000000000e+00  -4.1734025186997451e-04 5.1161990532996087e-03 0.0000000000000000e+00  -3.3863510061745697e-04 5.1423915218943139e-03 0.0000000000000000e+00  -2.3534870094585602e-04 5.1342804068138601e-03 0.0000000000000000e+00  -1.0808649810539598e-04 5.0870803493493748e-03 0.0000000000000000e+00  4.0892242910944744e-05 4.9990780822278006e-03 0.0000000000000000e+00  2.1029121150486512e-04 4.8713398630143446e-03 0.0000000000000000e+00  3.9772354371378629e-04 4.7020806295466041e-03 0.0000000000000000e+00  5.9795718732983999e-04 4.4945816280542571e-03 0.0000000000000000e+00  8.0565787300427791e-04 4.2503683922388092e-03 0.0000000000000000e+00  1.0088878518271396e-03 3.9785953921465528e-03 0.0000000000000000e+00  1.2033714717002400e-03 3.6879303561182220e-03 0.0000000000000000e+00  1.3810495008837107e-03 3.3907842308015940e-03 0.0000000000000000e+00  1.5325456540995995e-03 3.0939838101597577e-03 0.0000000000000000e+00  1.6563043801997473e-03 2.8209070501787970e-03 0.0000000000000000e+00  1.7295645397551690e-03 2.5544401211314910e-03 0.0000000000000000e+00  1.7753623987497378e-03 2.2976361971063053e-03 0.0000000000000000e+00  1.8061421031015090e-03 2.0597870483672932e-03 0.0000000000000000e+00  1.8190555240488199e-03 1.8420403592389054e-03 0.0000000000000000e+00  1.8041473731012273e-03 1.6464053928605322e-03 0.0000000000000000e+00  1.7649161341299945e-03 1.4558047429171737e-03 0.0000000000000000e+00  1.7012947838174262e-03 1.2763317462525176e-03 0.0000000000000000e+00  1.6275132611468612e-03 1.1148654023564494e-03 0.0000000000000000e+00  1.5271223764159877e-03 9.9430683101930169e-04 0.0000000000000000e+00  1.4039291065200657e-03 9.0021300064082124e-04 0.0000000000000000e+00  1.2767994469052731e-03 8.1603960929947466e-04 0.0000000000000000e+00  1.1489965658662428e-03 7.3271189846942141e-04 0.0000000000000000e+00  1.0196526133237321e-03 6.5018238494543210e-04 0.0000000000000000e+00  8.8548354342151596e-04 5.6427958666704328e-04 0.0000000000000000e+00  7.4165491925247135e-04 4.7683051264839821e-04 0.0000000000000000e+00  5.9200167318533569e-04 4.0509003236960985e-04 0.0000000000000000e+00  4.5342177302253793e-04 3.4653788800876608e-04 0.0000000000000000e+00  3.3665374317173657e-04 3.0681171548207814e-04 0.0000000000000000e+00  2.4795239128631174e-04 2.7352647845482975e-04 0.0000000000000000e+00  1.8264196635292302e-04 2.4561410489288492e-04 0.0000000000000000e+00  1.3389316752104719e-04 2.1500535403977302e-04 0.0000000000000000e+00  9.4539181783185168e-05 1.8501612923233244e-04 0.0000000000000000e+00  5.9399988082830797e-05 1.5389962714147507e-04 0.0000000000000000e+00  2.6996442919614577e-05 1.2582023694929939e-04 0.0000000000000000e+00  -4.0346472733460301e-06 9.9006330763692105e-05 0.0000000000000000e+00  -3.4110940438010151e-05 7.6433585087590605e-05 0.0000000000000000e+00  -6.2544019452068797e-05 5.6160421273064255e-05 0.0000000000000000e+00  -9.0072017142135572e-05 4.0369097143733615e-05 0.0000000000000000e+00  -1.1567459721218548e-04 2.6842424161138706e-05 0.0000000000000000e+00  -1.3985614976451519e-04 1.7153459393326348e-05 0.0000000000000000e+00  -1.6222839512962701e-04 9.6769796702623363e-06 0.0000000000000000e+00  -1.8265529963008777e-04 4.6262355390616192e-06 0.0000000000000000e+00  -2.0209837082122320e-04 1.6357180123120338e-06 0.0000000000000000e+00  -2.1946276103057782e-04 2.8627818145579204e-07 0.0000000000000000e+00  -2.3593318819260957e-04 5.8257072573434132e-08 0.0000000000000000e+00  -2.5088324966752610e-04 7.5743998905246273e-07 0.0000000000000000e+00  -2.6519140250390728e-04 1.9710996231006682e-06 0.0000000000000000e+00  -2.7848082386516186e-04 3.5591161175558521e-06 0.0000000000000000e+00  -2.9156831353081738e-04 5.1765387692119580e-06 0.0000000000000000e+00  -3.0412215233719840e-04 6.9059595129322005e-06 0.0000000000000000e+00  -3.1657525632766822e-04 8.4959710407379534e-06 0.0000000000000000e+00  -3.2905466517434102e-04 1.0150913220370646e-05 0.0000000000000000e+00  -3.4168036426574595e-04 1.1918469006041047e-05 0.0000000000000000e+00  -3.5449527995473759e-04 1.4105937956980330e-05 0.0000000000000000e+00  -3.6720162792886385e-04 1.6822340709158798e-05 0.0000000000000000e+00  -3.8034284305692439e-04 2.0464387125506045e-05 0.0000000000000000e+00  -3.9341586198114698e-04 2.5904196361977600e-05 0.0000000000000000e+00  -4.0544901708046383e-04 3.2703588152407231e-05 0.0000000000000000e+00  -4.1736680305384474e-04 4.1708864682450222e-05 0.0000000000000000e+00  -4.2710955391044860e-04 5.2736788120030274e-05 0.0000000000000000e+00  -4.3561573132546284e-04 6.5689953056199309e-05 0.0000000000000000e+00  -4.4241137504341655e-04 8.0262309772073212e-05 0.0000000000000000e+00  -4.4706892915793479e-04 9.6440587425224787e-05 0.0000000000000000e+00  -4.5261575248108814e-04 1.1248684569824701e-04 0.0000000000000000e+00  -4.5862993079262467e-04 1.3029086934593367e-04 0.0000000000000000e+00  -4.7656828961685233e-04 1.4614631660634183e-04 0.0000000000000000e+00  -5.0552838664464641e-04 1.7165295188331956e-04 0.0000000000000000e+00  -5.6117448653910534e-04 2.0334892854742277e-04 0.0000000000000000e+00  -6.3844004285940092e-04 2.5909872469501014e-04 0.0000000000000000e+00  -7.3973715028347899e-04 3.3709580280940802e-04 0.0000000000000000e+00  -8.5161466178024009e-04 4.3732319099439515e-04 0.0000000000000000e+00  -9.7061382516425198e-04 5.4995844490485137e-04 0.0000000000000000e+00  -1.0932234569101089e-03 6.6646300029923487e-04 0.0000000000000000e+00  -1.2299368066817327e-03 7.8337082726743210e-04 0.0000000000000000e+00  -1.3760689889468504e-03 9.1172355755512395e-04 0.0000000000000000e+00  -1.5301277237000119e-03 1.0511817288404110e-03 0.0000000000000000e+00  -1.6780932271495356e-03 1.2059405046569609e-03 0.0000000000000000e+00  -1.8001089485413250e-03 1.3712683570442816e-03 0.0000000000000000e+00  -1.8367444397332259e-03 1.5738658918793759e-03 0.0000000000000000e+00  -1.8483625862658710e-03 1.8086576387386162e-03 0.0000000000000000e+00  -1.8335927609330663e-03 2.0426875249316737e-03 0.0000000000000000e+00  -1.8032460691501913e-03 2.2448561817865350e-03 0.0000000000000000e+00  1.8633398057568808e-03 1.2973830380045470e-03 0.0000000000000000e+00  1.8536891418503309e-03 1.2620808872776214e-03 0.0000000000000000e+00  1.7992173447694772e-03 1.2113930997824196e-03 0.0000000000000000e+00  1.7110950554206326e-03 1.16015934015