<?xml version="1.0"?>
<VTKFile type="UnstructuredGrid"  version="0.1"  >
<UnstructuredGrid>
<Piece  NumberOfPoints="3879" NumberOfCells="6881">
<Points>
<DataArray  type="Float64"  NumberOfComponents="3"  format="ascii">0.207524190028372 0.2122422770132111 0  0 0 0  1 0 0  0 1 0  1 1 0  0.6249674373315121 0.2590146544375328 0  0.204663578893616 0.322657230836866 0  0.09605577522599912 0.4018360776629776 0  0.671351124618251 0.08738059142081528 0  0.7842102907526436 0.1666439122351055 0  0.8512483166984784 0.1985391006160637 0  0.6418797837909295 0.4423157172830166 0  0.9292488447973215 0.3869277868069776 0  0.3197896119137055 0.5509935221980964 0  0.3979283685568406 0.5079871620336583 0  0.1572503457993085 0.7345153245035532 0  0.3032914287999163 0.7872981443735918 0  0.3549464687598876 0.8870324161721976 0  0.9691791685505482 0.5159450047798622 0  0.9447564590470373 0.6146164845729313 0  0.7687603548175107 0.7176858127488035 0  0.8926159261971183 0.7422924070424508 0  0.2061587782631535 0.2217389244366831 0  0.2021731605082994 0.2304662099646423 0  0.1958902278109265 0.2377171008267789 0  0.1878189860121365 0.2429041729681512 0  0.1786133191209442 0.2456072006525708 0  0.1690190155206647 0.2456072006525708 0  0.1598133486294724 0.2429041729681512 0  0.1517421068306824 0.2377171008267789 0  0.1454591741333096 0.2304662099646422 0  0.1414735563784554 0.221738924436683 0  0.1401081446132369 0.212242277013211 0  0.1414735563784555 0.202745629589739 0  0.1454591741333096 0.1940183440617798 0  0.1517421068306825 0.1867674531996431 0  0.1598133486294725 0.1815803810582709 0  0.1690190155206649 0.1788773533738513 0  0.1786133191209443 0.1788773533738514 0  0.1878189860121367 0.181580381058271 0  0.1958902278109266 0.1867674531996433 0  0.2021731605082994 0.19401834406178 0  0.2061587782631535 0.2027456295897391 0  0.03333333333333333 0 0  0.06666666666666667 0 0  0.1 0 0  0.1333333333333333 0 0  0.1666666666666667 0 0  0.2 0 0  0.2333333333333333 0 0  0.2666666666666667 0 0  0.3 0 0  0.3333333333333333 0 0  0.3666666666666666 0 0  0.4 0 0  0.4333333333333333 0 0  0.4666666666666667 0 0  0.5 0 0  0.5333333333333333 0 0  0.5666666666666667 0 0  0.6 0 0  0.6333333333333333 0 0  0.6666666666666666 0 0  0.7 0 0  0.7333333333333333 0 0  0.7666666666666667 0 0  0.8 0 0  0.8333333333333334 0 0  0.8666666666666667 0 0  0.9 0 0  0.9333333333333333 0 0  0.9666666666666667 0 0  0 0.9666666666666667 0  0 0.9333333333333333 0  0 0.9 0  0 0.8666666666666667 0  0 0.8333333333333334 0  0 0.8 0  0 0.7666666666666666 0  0 0.7333333333333334 0  0 0.7 0  0 0.6666666666666667 0  0 0.6333333333333333 0  0 0.6 0  0 0.5666666666666667 0  0 0.5333333333333333 0  0 0.5 0  0 0.4666666666666667 0  0 0.4333333333333333 0  0 0.4 0  0 0.3666666666666667 0  0 0.3333333333333334 0  0 0.3 0  0 0.2666666666666667 0  0 0.2333333333333333 0  0 0.2 0  0 0.1666666666666666 0  0 0.1333333333333333 0  0 0.09999999999999998 0  0 0.06666666666666665 0  0 0.03333333333333333 0  1 0.03333333333333333 0  1 0.06666666666666667 0  1 0.1 0  1 0.1333333333333333 0  1 0.1666666666666667 0  1 0.2 0  1 0.2333333333333333 0  1 0.2666666666666667 0  1 0.3 0  1 0.3333333333333333 0  1 0.3666666666666666 0  1 0.4 0  1 0.4333333333333333 0  1 0.4666666666666667 0  1 0.5 0  1 0.5333333333333333 0  1 0.5666666666666667 0  1 0.6 0  1 0.6333333333333333 0  1 0.6666666666666666 0  1 0.7 0  1 0.7333333333333333 0  1 0.7666666666666667 0  1 0.8 0  1 0.8333333333333334 0  1 0.8666666666666667 0  1 0.9 0  1 0.9333333333333333 0  1 0.9666666666666667 0  0.9666666666666667 1 0  0.9333333333333333 1 0  0.9 1 0  0.8666666666666667 1 0  0.8333333333333334 1 0  0.8 1 0  0.7666666666666666 1 0  0.7333333333333334 1 0  0.7 1 0  0.6666666666666667 1 0  0.6333333333333333 1 0  0.6 1 0  0.5666666666666667 1 0  0.5333333333333333 1 0  0.5 1 0  0.4666666666666667 1 0  0.4333333333333333 1 0  0.4 1 0  0.3666666666666667 1 0  0.3333333333333334 1 0  0.3 1 0  0.2666666666666667 1 0  0.2333333333333333 1 0  0.2 1 0  0.1666666666666666 1 0  0.1333333333333333 1 0  0.09999999999999998 1 0  0.06666666666666665 1 0  0.03333333333333333 1 0  0.6247072676344306 0.2689501343248463 0  0.6239274716502419 0.2788583817523955 0  0.6226301867455355 0.2887122389026952 0  0.6208189686880621 0.2984846970382296 0  0.6184987819006211 0.3081489705305245 0  0.6156759858539226 0.317678570277693 0  0.6123583176357204 0.3270473763092224 0  0.6085548707439923 0.3362297093789981 0  0.6042760701622942 0.3452004013503318 0  0.5995336437856049 0.3539348641800754 0  0.5943405902749808 0.3624091573127375 0  0.5887111434291297 0.3706000532998825 0  0.582660733170558 0.3784851014649517 0  0.5762059432532257 0.3860426894390078 0  0.5693644658076293 0.3932521023987353 0  0.5621550528479018 0.4000935798443317 0  0.5545974648738458 0.4065483697616639 0  0.5467124167087765 0.4125987800202355 0  0.5385215207216315 0.4182282268660866 0  0.5300472275889694 0.4234212803767108 0  0.5213127647592257 0.4281637067534002 0  0.512342072787892 0.4324425073350981 0  0.5031597397181163 0.4362459542268262 0  0.493790933686587 0.4395636224450283 0  0.4842613339394185 0.4423864184917269 0  0.4745970604471235 0.4447066052791678 0  0.4648246023115891 0.4465178233366412 0  0.4549707451612894 0.4478151082413475 0  0.4450624977337403 0.4485949042255363 0  0.4351270178464268 0.4488550739226177 0  0.4251915379591132 0.4485949042255363 0  0.4152832905315641 0.4478151082413475 0  0.4054294333812644 0.4465178233366411 0  0.39565697524573 0.4447066052791677 0  0.385992701753435 0.4423864184917267 0  0.3764631020062665 0.4395636224450281 0  0.3670942959747371 0.4362459542268259 0  0.3579119629049616 0.4324425073350978 0  0.3489412709336278 0.4281637067533998 0  0.3402068081038843 0.4234212803767103 0  0.3317325149712221 0.4182282268660862 0  0.3235416189840771 0.412598780020235 0  0.3156565708190078 0.4065483697616634 0  0.3080989828449519 0.4000935798443311 0  0.3008895698852244 0.3932521023987346 0  0.2940480924396279 0.3860426894390071 0  0.2875933025222958 0.3784851014649511 0  0.2815428922637242 0.3706000532998818 0  0.2759134454178731 0.3624091573127368 0  0.2707203919072489 0.3539348641800746 0  0.2659779655305596 0.3452004013503309 0  0.2616991649488616 0.3362297093789972 0  0.2578957180571336 0.3270473763092215 0  0.2545780498389315 0.3176785702776921 0  0.251755253792233 0.3081489705305236 0  0.249435067004792 0.2984846970382286 0  0.2476238489473186 0.2887122389026941 0  0.2463265640426123 0.2788583817523945 0  0.2455467680584236 0.2689501343248454 0  0.2452865983613423 0.2590146544375318 0  0.2455467680584237 0.2490791745502182 0  0.2463265640426126 0.2391709271226692 0  0.247623848947319 0.2293170699723696 0  0.2494350670047924 0.2195446118368351 0  0.2517552537922335 0.2098803383445402 0  0.2545780498389321 0.2003507385973717 0  0.2578957180571343 0.1909819325658423 0  0.2616991649488624 0.1817995994960667 0  0.2659779655305604 0.172828907524733 0  0.2707203919072498 0.1640944446949895 0  0.2759134454178741 0.1556201515623273 0  0.2815428922637251 0.1474292555751825 0  0.2875933025222969 0.1395442074101132 0  0.2940480924396291 0.1319866194360571 0  0.3008895698852256 0.1247772064763297 0  0.3080989828449531 0.1179357290307334 0  0.3156565708190092 0.1114809391134012 0  0.3235416189840785 0.1054305288548295 0  0.3317325149712236 0.09980108200897844 0  0.3402068081038856 0.0946080284983544 0  0.3489412709336291 0.08986560212166514 0  0.357911962904963 0.08558680153996717 0  0.3670942959747386 0.08178335464823916 0  0.3764631020062678 0.07846568643003712 0  0.3859927017534364 0.0756428903833386 0  0.3956569752457313 0.0733227035958976 0  0.4054294333812659 0.07151148553842429 0  0.4152832905315654 0.07021420063371797 0  0.4251915379591144 0.0694344046495293 0  0.435127017846428 0.0691742349524479 0  0.4450624977337415 0.06943440464952938 0  0.4549707451612905 0.07021420063371814 0  0.4648246023115901 0.07151148553842454 0  0.4745970604471245 0.07332270359589793 0  0.4842613339394195 0.07564289038333902 0  0.4937909336865879 0.07846568643003757 0  0.5031597397181173 0.0817833546482398 0  0.5123420727878929 0.08558680153996781 0  0.5213127647592265 0.08986560212166581 0  0.53004722758897 0.0946080284983552 0  0.5385215207216321 0.09980108200897933 0  0.5467124167087771 0.1054305288548305 0  0.5545974648738462 0.1114809391134021 0  0.5621550528479023 0.1179357290307343 0  0.5693644658076298 0.1247772064763308 0  0.576205943253226 0.1319866194360582 0  0.5826607331705582 0.1395442074101142 0  0.5887111434291299 0.1474292555751835 0  0.594340590274981 0.1556201515623285 0  0.5995336437856051 0.1640944446949906 0  0.6042760701622945 0.172828907524734 0  0.6085548707439925 0.1817995994960678 0  0.6123583176357205 0.1909819325658435 0  0.6156759858539227 0.2003507385973728 0  0.6184987819006211 0.2098803383445412 0  0.6208189686880622 0.2195446118368362 0  0.6226301867455355 0.2293170699723706 0  0.6239274716502419 0.2391709271226702 0  0.6247072676344306 0.2490791745502192 0  0.203885768735257 0.3325402459548524 0  0.2015714905276826 0.3421799084407872 0  0.1977777294810124 0.3513388578120612 0  0.1925979005829864 0.3597915703383434 0  0.1861595484119405 0.3673299121842922 0  0.1786212065659918 0.373768264355338 0  0.1701684940397096 0.378948093253364 0  0.1610095446684356 0.3827418543000342 0  0.1513698821825007 0.3850561325076086 0  0.1414868670645144 0.3858339426659677 0  0.1316038519465281 0.3850561325076086 0  0.1219641894605933 0.3827418543000343 0  0.1128052400893193 0.378948093253364 0  0.1043525275630371 0.3737682643553381 0  0.09681418571708833 0.3673299121842922 0  0.09037583354604248 0.3597915703383434 0  0.08519600464801645 0.3513388578120612 0  0.08140224360134621 0.3421799084407872 0  0.07908796539377183 0.3325402459548523 0  0.07831015523541281 0.3226572308368659 0  0.07908796539377186 0.3127742157188796 0  0.08140224360134626 0.3031345532329447 0  0.08519600464801655 0.2939756038616707 0  0.0903758335460426 0.2855228913353884 0  0.0968141857
[...]
<PointData  Vectors="$u$"> 
<DataArray  type="Float64"  Name="$u$"  NumberOfComponents="3" format="ascii">3.7573647334848669e-05 6.8870387034935957e-05 0.0000000000000000e+00  0.0000000000000000e+00 0.0000000000000000e+00 0.0000000000000000e+00  -8.3996833500222075e-05 0.0000000000000000e+00 0.0000000000000000e+00  -1.0024795199782610e-05 7.5000000000000002e-04 0.0000000000000000e+00  -9.7243202281112979e-05 7.5000000000000002e-04 0.0000000000000000e+00  -1.3824853468588866e-04 1.7810009650188495e-04 0.0000000000000000e+00  1.4360015291031562e-04 1.1307586737097338e-04 0.0000000000000000e+00  1.2512330463388473e-04 2.1137247543620631e-04 0.0000000000000000e+00  -7.3488242808856055e-05 2.6671209309438023e-05 0.0000000000000000e+00  -1.1324120655768927e-04 3.8731363678398329e-06 0.0000000000000000e+00  -1.2964877422178643e-04 2.8308880678526470e-05 0.0000000000000000e+00  -1.9136095672796475e-05 2.9200667798987955e-04 0.0000000000000000e+00  -3.3956924912764903e-04 2.3431111080359765e-04 0.0000000000000000e+00  -5.4015983802966207e-05 4.5981638926633850e-04 0.0000000000000000e+00  -4.3145487903780279e-05 4.1264530369459432e-04 0.0000000000000000e+00  1.0564883011011384e-04 7.1055312295978802e-04 0.0000000000000000e+00  4.1232792880745774e-05 6.0260463794274818e-04 0.0000000000000000e+00  -5.4164707802095497e-05 7.1834651216406997e-04 0.0000000000000000e+00  -3.5135889421718789e-04 3.9404086782163363e-04 0.0000000000000000e+00  -2.7728186274640762e-04 5.1785388954406154e-04 0.0000000000000000e+00  -1.8870806004765654e-04 6.8114453825711407e-04 0.0000000000000000e+00  -1.7112744646656991e-04 6.6418527418268206e-04 0.0000000000000000e+00  4.9621519558282957e-05 8.0687615382918609e-05 0.0000000000000000e+00  6.2405322907028112e-05 9.1505333340918045e-05 0.0000000000000000e+00  7.3547881895967120e-05 1.0009111257218103e-04 0.0000000000000000e+00  8.1892074414636665e-05 1.0443375862517263e-04 0.0000000000000000e+00  8.6693967291582639e-05 1.0203755255338770e-04 0.0000000000000000e+00  8.7613772834509960e-05 9.2382880062561411e-05 0.0000000000000000e+00  8.5239107610738437e-05 7.8100279494342141e-05 0.0000000000000000e+00  7.8423462093083718e-05 6.6346172575007051e-05 0.0000000000000000e+00  6.8924014795466358e-05 5.9558483575117993e-05 0.0000000000000000e+00  5.9526899377791736e-05 5.5413607066636956e-05 0.0000000000000000e+00  5.0161806685773068e-05 5.0945129980546435e-05 0.0000000000000000e+00  4.1791671238796005e-05 4.6311418277495767e-05 0.0000000000000000e+00  3.4109512158274471e-05 4.1253823989725409e-05 0.0000000000000000e+00  2.7506937309121561e-05 3.6727131867565562e-05 0.0000000000000000e+00  2.2046853512529017e-05 3.3546623370562913e-05 0.0000000000000000e+00  1.8304147817019570e-05 3.2133584204080076e-05 0.0000000000000000e+00  1.5869952551960818e-05 3.2946178991718934e-05 0.0000000000000000e+00  1.5395925523533526e-05 3.5924862092949453e-05 0.0000000000000000e+00  1.6982980103654575e-05 4.1330468397432046e-05 0.0000000000000000e+00  2.1107607233225850e-05 4.8554878711383085e-05 0.0000000000000000e+00  2.7413368587548493e-05 5.7918547018896356e-05 0.0000000000000000e+00  0.0000000000000000e+00 0.0000000000000000e+00 0.0000000000000000e+00  -6.4920257949061948e-06 0.0000000000000000e+00 0.0000000000000000e+00  -1.0099594651497950e-05 0.0000000000000000e+00 0.0000000000000000e+00  -1.3094241688547007e-05 0.0000000000000000e+00 0.0000000000000000e+00  -1.5584837868666028e-05 0.0000000000000000e+00 0.0000000000000000e+00  -1.7668047799388417e-05 0.0000000000000000e+00 0.0000000000000000e+00  -1.9446177875416917e-05 0.0000000000000000e+00 0.0000000000000000e+00  -2.1014619238388555e-05 0.0000000000000000e+00 0.0000000000000000e+00  -2.2270192874839420e-05 0.0000000000000000e+00 0.0000000000000000e+00  -2.3054061365776169e-05 0.0000000000000000e+00 0.0000000000000000e+00  -2.3790920488766841e-05 0.0000000000000000e+00 0.0000000000000000e+00  -2.4820387056305246e-05 0.0000000000000000e+00 0.0000000000000000e+00  -2.6134417189978572e-05 0.0000000000000000e+00 0.0000000000000000e+00  -2.7757279000953680e-05 0.0000000000000000e+00 0.0000000000000000e+00  -2.9774770303220810e-05 0.0000000000000000e+00 0.0000000000000000e+00  -3.3128816113973607e-05 0.0000000000000000e+00 0.0000000000000000e+00  -3.8312184139986897e-05 0.0000000000000000e+00 0.0000000000000000e+00  -4.5303040907120014e-05 0.0000000000000000e+00 0.0000000000000000e+00  -5.0391801516746311e-05 0.0000000000000000e+00 0.0000000000000000e+00  -5.4966421527337465e-05 0.0000000000000000e+00 0.0000000000000000e+00  -6.0926068721670084e-05 0.0000000000000000e+00 0.0000000000000000e+00  -6.4843583703678751e-05 0.0000000000000000e+00 0.0000000000000000e+00  -6.5931792470197539e-05 0.0000000000000000e+00 0.0000000000000000e+00  -6.5851359869106970e-05 0.0000000000000000e+00 0.0000000000000000e+00  -6.5899493925203296e-05 0.0000000000000000e+00 0.0000000000000000e+00  -6.7083739085607556e-05 0.0000000000000000e+00 0.0000000000000000e+00  -6.9029121794312394e-05 0.0000000000000000e+00 0.0000000000000000e+00  -7.2874117794197594e-05 0.0000000000000000e+00 0.0000000000000000e+00  -7.7924454222876943e-05 0.0000000000000000e+00 0.0000000000000000e+00  -8.5424136517319663e-06 7.2788527018527297e-04 0.0000000000000000e+00  -4.1570148796072858e-06 7.0565159236857201e-04 0.0000000000000000e+00  3.5504055342629583e-06 6.8251151027195437e-04 0.0000000000000000e+00  1.5003094387025099e-05 6.5900007213324043e-04 0.0000000000000000e+00  3.0457846742428435e-05 6.3462502622091692e-04 0.0000000000000000e+00  4.9961078320770555e-05 6.0964255929180262e-04 0.0000000000000000e+00  7.3755508097195341e-05 5.8370450373508543e-04 0.0000000000000000e+00  1.0188759524778712e-04 5.5575361591663419e-04 0.0000000000000000e+00  1.3648041831111808e-04 5.2503580788480038e-04 0.0000000000000000e+00  1.8087146930952422e-04 4.9232067419544619e-04 0.0000000000000000e+00  2.3463599887912928e-04 4.6200601416517537e-04 0.0000000000000000e+00  2.9070993555628451e-04 4.3801854541654069e-04 0.0000000000000000e+00  3.2893350077977009e-04 4.2634083043149721e-04 0.0000000000000000e+00  3.3083749367868946e-04 4.1767558045944413e-04 0.0000000000000000e+00  2.9995919695940899e-04 4.0044096831660329e-04 0.0000000000000000e+00  2.5930836293341919e-04 3.6895440153054406e-04 0.0000000000000000e+00  2.3227342409605809e-04 3.2823113707438999e-04 0.0000000000000000e+00  2.1557666560804458e-04 2.9488857237216576e-04 0.0000000000000000e+00  1.7839799377909586e-04 2.6478624192430202e-04 0.0000000000000000e+00  1.4562788606693015e-04 2.2896736423396970e-04 0.0000000000000000e+00  1.2169838148603094e-04 2.0100307656875752e-04 0.0000000000000000e+00  9.8237818994795974e-05 1.7656560335461928e-04 0.0000000000000000e+00  7.5823602193155065e-05 1.5341746954019382e-04 0.0000000000000000e+00  5.5874435962613423e-05 1.3055132877512363e-04 0.0000000000000000e+00  3.9018131346372971e-05 1.0809895928792066e-04 0.0000000000000000e+00  2.5669333500718789e-05 8.5548328332195811e-05 0.0000000000000000e+00  1.5848237111866642e-05 6.3566647815781657e-05 0.0000000000000000e+00  9.1743191842473689e-06 4.1827128633920760e-05 0.0000000000000000e+00  5.6453376007155734e-06 2.1165741619913438e-05 0.0000000000000000e+00  -8.5543871443647838e-05 2.2999182394222621e-05 0.0000000000000000e+00  -9.0344256695418435e-05 4.6063870230322749e-05 0.0000000000000000e+00  -9.8584443288025011e-05 6.9925828320623930e-05 0.0000000000000000e+00  -1.1081142259899785e-04 9.4937004670541978e-05 0.0000000000000000e+00  -1.2764746814820005e-04 1.2083476135255503e-04 0.0000000000000000e+00  -1.4996905890655695e-04 1.4827220823791448e-04 0.0000000000000000e+00  -1.7894871260591363e-04 1.7667002981727894e-04 0.0000000000000000e+00  -2.1497749888355224e-04 2.0555216429755008e-04 0.0000000000000000e+00  -2.5793621431204603e-04 2.3234288293675490e-04 0.0000000000000000e+00  -3.0309232821565797e-04 2.5431687970540930e-04 0.0000000000000000e+00  -3.4052001468934661e-04 2.6972205761723207e-04 0.0000000000000000e+00  -3.6179434169152092e-04 2.8349999043538734e-04 0.0000000000000000e+00  -3.6571527698679376e-04 3.0025429341169491e-04 0.0000000000000000e+00  -3.6376849924057519e-04 3.2844729356699612e-04 0.0000000000000000e+00  -3.7104775201267511e-04 3.6070403247784154e-04 0.0000000000000000e+00  -3.3901539998167681e-04 3.8859943220780372e-04 0.0000000000000000e+00  -2.9923216602320758e-04 4.3893192717133747e-04 0.0000000000000000e+00  -2.9344895809862862e-04 4.7742486770339476e-04 0.0000000000000000e+00  -2.8179996059740273e-04 4.9983265048386401e-04 0.0000000000000000e+00  -2.5355892761550841e-04 5.2049969209576200e-04 0.0000000000000000e+00  -2.2101497295163387e-04 5.4447076810937604e-04 0.0000000000000000e+00  -1.9190334500302349e-04 5.6932955832904547e-04 0.0000000000000000e+00  -1.6683581408684166e-04 5.9377977662551391e-04 0.0000000000000000e+00  -1.4599976151992859e-04 6.1807904865230539e-04 0.0000000000000000e+00  -1.2971710594095342e-04 6.4176294433442461e-04 0.0000000000000000e+00  -1.1738990183841862e-04 6.6441672553133187e-04 0.0000000000000000e+00  -1.0835530579898859e-04 6.8644387596694971e-04 0.0000000000000000e+00  -1.0219496460908246e-04 7.0795217551193515e-04 0.0000000000000000e+00  -9.8521074028811375e-05 7.2891682409165269e-04 0.0000000000000000e+00  -9.1540585935777485e-05 7.5000000000000002e-04 0.0000000000000000e+00  -8.6408184379689973e-05 7.5000000000000002e-04 0.0000000000000000e+00  -8.2164628846593038e-05 7.5000000000000002e-04 0.0000000000000000e+00  -7.8729742319778249e-05 7.5000000000000002e-04 0.0000000000000000e+00  -7.5796670796108036e-05 7.5000000000000002e-04 0.0000000000000000e+00  -7.3305182696296341e-05 7.5000000000000002e-04 0.0000000000000000e+00  -7.1311879567064170e-05 7.5000000000000002e-04 0.0000000000000000e+00  -6.9897830515357046e-05 7.5000000000000002e-04 0.0000000000000000e+00  -6.8964526186389666e-05 7.5000000000000002e-04 0.0000000000000000e+00  -6.8376107131400970e-05 7.5000000000000002e-04 0.0000000000000000e+00  -6.7524967477834526e-05 7.5000000000000002e-04 0.0000000000000000e+00  -6.6316970580101309e-05 7.5000000000000002e-04 0.0000000000000000e+00  -6.4729677031889545e-05 7.5000000000000002e-04 0.0000000000000000e+00  -6.2950492103814335e-05 7.5000000000000002e-04 0.0000000000000000e+00  -6.1123903815652126e-05 7.5000000000000002e-04 0.0000000000000000e+00  -5.8776981711955293e-05 7.5000000000000002e-04 0.0000000000000000e+00  -5.5599741732681888e-05 7.5000000000000002e-04 0.0000000000000000e+00  -5.0931502572128205e-05 7.5000000000000002e-04 0.0000000000000000e+00  -4.5398706856188234e-05 7.5000000000000002e-04 0.0000000000000000e+00  -4.0633066061372019e-05 7.5000000000000002e-04 0.0000000000000000e+00  -3.7708655167645646e-05 7.5000000000000002e-04 0.0000000000000000e+00  -3.5071238392665217e-05 7.5000000000000002e-04 0.0000000000000000e+00  -3.1783051541953536e-05 7.5000000000000002e-04 0.0000000000000000e+00  -2.9394813242026716e-05 7.5000000000000002e-04 0.0000000000000000e+00  -2.8110599853764425e-05 7.5000000000000002e-04 0.0000000000000000e+00  -2.6515712612416626e-05 7.5000000000000002e-04 0.0000000000000000e+00  -2.4358072756050767e-05 7.5000000000000002e-04 0.0000000000000000e+00  -2.0879795777097681e-05 7.5000000000000002e-04 0.0000000000000000e+00  -1.5885113192952503e-05 7.5000000000000002e-04 0.0000000000000000e+00  -1.3154787557760543e-04 1.9024056452372802e-04 0.0000000000000000e+00  -1.2378419125924604e-04 2.0163260438887771e-04 0.0000000000000000e+00  -1.1492367493382488e-04 2.1287475280997142e-04 0.0000000000000000e+00  -1.0540247613997732e-04 2.2361269447695271e-04 0.0000000000000000e+00  -9.5440212407607204e-05 2.3418497043514264e-04 0.0000000000000000e+00  -8.5187400822369161e-05 2.4409777696565878e-04 0.0000000000000000e+00  -7.5134305910798892e-05 2.5307054236369604e-04 0.0000000000000000e+00  -6.5744337685468522e-05 2.6099294781436132e-04 0.0000000000000000e+00  -5.7246183845848728e-05 2.6759290808460738e-04 0.0000000000000000e+00  -5.0308181568288521e-05 2.7280015878037732e-04 0.0000000000000000e+00  -4.4989564642621680e-05 2.7672122431228132e-04 0.0000000000000000e+00  -4.1542671424230080e-05 2.7945648420272986e-04 0.0000000000000000e+00  -4.0093620969117988e-05 2.8117941239210706e-04 0.0000000000000000e+00  -4.0626682578233600e-05 2.8232712828404351e-04 0.0000000000000000e+00  -4.3062320615461997e-05 2.8302865164486806e-04 0.0000000000000000e+00  -4.7153229087478588e-05 2.8410408841404819e-04 0.0000000000000000e+00  -5.2265978257578407e-05 2.8617633446628677e-04 0.0000000000000000e+00  -5.7623767048463070e-05 2.8962842731481835e-04 0.0000000000000000e+00  -6.2724918292214816e-05 2.9464936601354111e-04 0.0000000000000000e+00  -6.6966508502238915e-05 3.0095546399339161e-04 0.0000000000000000e+00  -7.0667899862887688e-05 3.0859663900878513e-04 0.0000000000000000e+00  -7.3459334390743572e-05 3.1735253755427401e-04 0.0000000000000000e+00  -7.5354593832945569e-05 3.2701425127193938e-04 0.0000000000000000e+00  -7.6366450545060468e-05 3.3728136729429246e-04 0.0000000000000000e+00  -7.6539574232225348e-05 3.4788098134371680e-04 0.0000000000000000e+00  -7.5917014036126074e-05 3.5844045375368894e-04 0.0000000000000000e+00  -7.4586402229366588e-05 3.6868033462059201e-04 0.0000000000000000e+00  -7.2782735859232024e-05 3.7822694207824371e-04 0.0000000000000000e+00  -7.0580896353058636e-05 3.8704572471441872e-04 0.0000000000000000e+00  -6.8068020762573870e-05 3.9502036294141775e-04 0.0000000000000000e+00  -6.5275893258778090e-05 4.0219213377049642e-04 0.0000000000000000e+00  -6.2061980227323167e-05 4.0865779039072459e-04 0.0000000000000000e+00  -5.8174034267912932e-05 4.1436211496509884e-04 0.0000000000000000e+00  -5.3054853545563998e-05 4.1904737431613188e-04 0.0000000000000000e+00  -4.6226638626400705e-05 4.2199181413905959e-04 0.0000000000000000e+00  -3.7501505702235410e-05 4.2248017296402725e-04 0.0000000000000000e+00  -2.6926168875079738e-05 4.2002101785377144e-04 0.0000000000000000e+00  -1.4504607378317202e-05 4.1443431336142685e-04 0.0000000000000000e+00  -2.8491517947103420e-07 4.0554953798710636e-04 0.0000000000000000e+00  1.5605409893931945e-05 3.9324480986903973e-04 0.0000000000000000e+00  3.2743588904320926e-05 3.7747892963005197e-04 0.0000000000000000e+00  5.0675671432734090e-05 3.5832395394144539e-04 0.0000000000000000e+00  6.8349858881370558e-05 3.3647013810435115e-04 0.0000000000000000e+00  8.5365054424180189e-05 3.1256648242955097e-04 0.0000000000000000e+00  1.0070051762541612e-04 2.8759764885911033e-04 0.0000000000000000e+00  1.1341282276948270e-04 2.6223246434259258e-04 0.0000000000000000e+00  1.2387501664835375e-04 2.3845801664182994e-04 0.0000000000000000e+00  1.3181579130025676e-04 2.1605160615217805e-04 0.0000000000000000e+00  1.3740137942786510e-04 1.9554288816391491e-04 0.0000000000000000e+00  1.4098157451212674e-04 1.7702823911249594e-04 0.0000000000000000e+00  1.4278548264555342e-04 1.6022035369475229e-04 0.0000000000000000e+00  1.4288043705703736e-04 1.4489613112844013e-04 0.0000000000000000e+00  1.4116826404663533e-04 1.3071961835439016e-04 0.0000000000000000e+00  1.3743431944702626e-04 1.1772421175013049e-04 0.0000000000000000e+00  1.3172060648574036e-04 1.0578696557770329e-04 0.0000000000000000e+00  1.2413878076109028e-04 9.4987295294231359e-05 0.0000000000000000e+00  1.1527481133571740e-04 8.5514888467512772e-05 0.0000000000000000e+00  1.0589904896798845e-04 7.7096079671111961e-05 0.0000000000000000e+00  9.6265130830917674e-05 6.9106973935887314e-05 0.0000000000000000e+00  8.6322583298083585e-05 6.1222435603219542e-05 0.0000000000000000e+00  7.5694193797063748e-05 5.3084274131632415e-05 0.0000000000000000e+00  6.4119043823396545e-05 4.5236260724192336e-05 0.0000000000000000e+00  5.2021286085026242e-05 3.8335318006839162e-05 0.0000000000000000e+00  4.0581341302305398e-05 3.2772307444472134e-05 0.0000000000000000e+00  3.0700569396100901e-05 2.8604644070926847e-05 0.0000000000000000e+00  2.2980822647634628e-05 2.5273911239755778e-05 0.0000000000000000e+00  1.7137209516309550e-05 2.2311021765201471e-05 0.0000000000000000e+00  1.2636715842691942e-05 1.9432493585245477e-05 0.0000000000000000e+00  8.9488571739723434e-06 1.6565911574328383e-05 0.0000000000000000e+00  5.6995836211683167e-06 1.3775481104633604e-05 0.0000000000000000e+00  2.6961899834272010e-06 1.1153731449871027e-05 0.0000000000000000e+00  -1.3019013097830180e-07 8.7876324168396750e-06 0.0000000000000000e+00  -2.8047457531658235e-06 6.6810736222444492e-06 0.0000000000000000e+00  -5.3668643841377214e-06 4.9003944966134400e-06 0.0000000000000000e+00  -7.7356986797938294e-06 3.4375908218444465e-06 0.0000000000000000e+00  -9.9323957628132131e-06 2.2400312833581745e-06 0.0000000000000000e+00  -1.1966830868394453e-05 1.3233795697729030e-06 0.0000000000000000e+00  -1.3805420599580691e-05 6.4352058592215756e-07 0.0000000000000000e+00  -1.5497114212197416e-05 1.8550519696626090e-07 0.0000000000000000e+00  -1.7017723627366534e-05 -1.0027285674981225e-07 0.0000000000000000e+00  -1.8368492735662071e-05 -2.5458699786879303e-07 0.0000000000000000e+00  -1.9604283128745039e-05 -2.8104312779393472e-07 0.0000000000000000e+00  -2.0711643444451121e-05 -2.2281204273986249e-07 0.0000000000000000e+00  -2.1714188376327885e-05 -1.1863109554668868e-07 0.0000000000000000e+00  -2.2645511589877765e-05 5.7483795646223610e-09 0.0000000000000000e+00  -2.3523996284331887e-05 1.4863034356609949e-07 0.0000000000000000e+00  -2.4359438964602184e-05 2.9698980306910533e-07 0.0000000000000000e+00  -2.5171134463654878e-05 4.1732114030560614e-07 0.0000000000000000e+00  -2.5981118068554300e-05 5.5382172232614847e-07 0.0000000000000000e+00  -2.6782339867623284e-05 6.9996175999608232e-07 0.0000000000000000e+00  -2.7611772327134779e-05 8.6581288223145723e-07 0.0000000000000000e+00  -2.8453445163428100e-05 1.0792091364882028e-06 0.0000000000000000e+00  -2.9282692260235028e-05 1.3480125010734318e-06 0.0000000000000000e+00  -3.0143204571194958e-05 1.7378557079975247e-06 0.0000000000000000e+00  -3.0966908154501268e-05 2.2506333900433963e-06 0.0000000000000000e+00  -3.1745397093238738e-05 2.9228039163987509e-06 0.0000000000000000e+00  -3.2431635741821181e-05 3.7549262968453600e-06 0.0000000000000000e+00  -3.3010969963857251e-05 4.7214578217942753e-06 0.0000000000000000e+00  -3.3510869913287275e-05 5.8401476122696806e-06 0.0000000000000000e+00  -3.3910593592792370e-05 7.0727013056942401e-06 0.0000000000000000e+00  -3.4351261872415039e-05 8.3679045712808792e-06 0.0000000000000000e+00  -3.5032013976833823e-05 9.7583334488806682e-06 0.0000000000000000e+00  -3.6341688569366587e-05 1.1315293796513586e-05 0.0000000000000000e+00  -3.8739796070125208e-05 1.3334651410751591e-05 0.0000000000000000e+00  -4.2769892865878350e-05 1.6294638360657239e-05 0.0000000000000000e+00  -4.8334812263061413e-05 2.0813676362996205e-05 0.0000000000000000e+00  -5.5442887131020427e-05 2.6980302401377386e-05 0.0000000000000000e+00  -6.3207651479512433e-05 3.4656763132157525e-05 0.0000000000000000e+00  -7.1289370236117522e-05 4.3046479302377546e-05 0.0000000000000000e+00  -7.9893954989659552e-05 5.1584285748569459e-05 0.0000000000000000e+00  -8.9469910150783943e-05 6.0273369995630187e-05 0.0000000000000000e+00  -1.0037572899183124e-04 6.9649704636072022e-05 0.0000000000000000e+00  -1.1216983032815523e-04 8.0453040608261759e-05 0.0000000000000000e+00  -1.2373344595901066e-04 9.2920833252512682e-05 0.0000000000000000e+00  -1.3375159957732753e-04 1.0695897595642896e-04 0.0000000000000000e+00  -1.4103272614986452e-04 1.2186593578869943e-04 0.0000000000000000e+00  -1.4504458205465281e-04 1.3682780165587998e-04 0.0000000000000000e+00  -1.4552933095739659e-04 1.5145855503973036e-04 0.0000000000000000e+00  -1.4308002815783120e-04 1.6515192906296316e-04 0.0000000000000000e+00  1.4497495412542477e-04 1.1286390661484191e-04 0.0000000000000000e+00  1.4294764804988845e-04 1.1094677346786051e-04 0.0000000000000000e+00  1.3766830539067528e-04 1.0790396100902578e-04 0.0000000000000000e+00  1.3012262869016472e-04 1.047