<?xml version="1.0"?>
<VTKFile type="UnstructuredGrid"  version="0.1"  >
<UnstructuredGrid>
<Piece  NumberOfPoints="3879" NumberOfCells="6881">
<Points>
<DataArray  type="Float64"  NumberOfComponents="3"  format="ascii">0.207524190028372 0.2122422770132111 0  0 0 0  1 0 0  0 1 0  1 1 0  0.6249674373315121 0.2590146544375328 0  0.204663578893616 0.322657230836866 0  0.09605577522599912 0.4018360776629776 0  0.671351124618251 0.08738059142081528 0  0.7842102907526436 0.1666439122351055 0  0.8512483166984784 0.1985391006160637 0  0.6418797837909295 0.4423157172830166 0  0.9292488447973215 0.3869277868069776 0  0.3197896119137055 0.5509935221980964 0  0.3979283685568406 0.5079871620336583 0  0.1572503457993085 0.7345153245035532 0  0.3032914287999163 0.7872981443735918 0  0.3549464687598876 0.8870324161721976 0  0.9691791685505482 0.5159450047798622 0  0.9447564590470373 0.6146164845729313 0  0.7687603548175107 0.7176858127488035 0  0.8926159261971183 0.7422924070424508 0  0.2061587782631535 0.2217389244366831 0  0.2021731605082994 0.2304662099646423 0  0.1958902278109265 0.2377171008267789 0  0.1878189860121365 0.2429041729681512 0  0.1786133191209442 0.2456072006525708 0  0.1690190155206647 0.2456072006525708 0  0.1598133486294724 0.2429041729681512 0  0.1517421068306824 0.2377171008267789 0  0.1454591741333096 0.2304662099646422 0  0.1414735563784554 0.221738924436683 0  0.1401081446132369 0.212242277013211 0  0.1414735563784555 0.202745629589739 0  0.1454591741333096 0.1940183440617798 0  0.1517421068306825 0.1867674531996431 0  0.1598133486294725 0.1815803810582709 0  0.1690190155206649 0.1788773533738513 0  0.1786133191209443 0.1788773533738514 0  0.1878189860121367 0.181580381058271 0  0.1958902278109266 0.1867674531996433 0  0.2021731605082994 0.19401834406178 0  0.2061587782631535 0.2027456295897391 0  0.03333333333333333 0 0  0.06666666666666667 0 0  0.1 0 0  0.1333333333333333 0 0  0.1666666666666667 0 0  0.2 0 0  0.2333333333333333 0 0  0.2666666666666667 0 0  0.3 0 0  0.3333333333333333 0 0  0.3666666666666666 0 0  0.4 0 0  0.4333333333333333 0 0  0.4666666666666667 0 0  0.5 0 0  0.5333333333333333 0 0  0.5666666666666667 0 0  0.6 0 0  0.6333333333333333 0 0  0.6666666666666666 0 0  0.7 0 0  0.7333333333333333 0 0  0.7666666666666667 0 0  0.8 0 0  0.8333333333333334 0 0  0.8666666666666667 0 0  0.9 0 0  0.9333333333333333 0 0  0.9666666666666667 0 0  0 0.9666666666666667 0  0 0.9333333333333333 0  0 0.9 0  0 0.8666666666666667 0  0 0.8333333333333334 0  0 0.8 0  0 0.7666666666666666 0  0 0.7333333333333334 0  0 0.7 0  0 0.6666666666666667 0  0 0.6333333333333333 0  0 0.6 0  0 0.5666666666666667 0  0 0.5333333333333333 0  0 0.5 0  0 0.4666666666666667 0  0 0.4333333333333333 0  0 0.4 0  0 0.3666666666666667 0  0 0.3333333333333334 0  0 0.3 0  0 0.2666666666666667 0  0 0.2333333333333333 0  0 0.2 0  0 0.1666666666666666 0  0 0.1333333333333333 0  0 0.09999999999999998 0  0 0.06666666666666665 0  0 0.03333333333333333 0  1 0.03333333333333333 0  1 0.06666666666666667 0  1 0.1 0  1 0.1333333333333333 0  1 0.1666666666666667 0  1 0.2 0  1 0.2333333333333333 0  1 0.2666666666666667 0  1 0.3 0  1 0.3333333333333333 0  1 0.3666666666666666 0  1 0.4 0  1 0.4333333333333333 0  1 0.4666666666666667 0  1 0.5 0  1 0.5333333333333333 0  1 0.5666666666666667 0  1 0.6 0  1 0.6333333333333333 0  1 0.6666666666666666 0  1 0.7 0  1 0.7333333333333333 0  1 0.7666666666666667 0  1 0.8 0  1 0.8333333333333334 0  1 0.8666666666666667 0  1 0.9 0  1 0.9333333333333333 0  1 0.9666666666666667 0  0.9666666666666667 1 0  0.9333333333333333 1 0  0.9 1 0  0.8666666666666667 1 0  0.8333333333333334 1 0  0.8 1 0  0.7666666666666666 1 0  0.7333333333333334 1 0  0.7 1 0  0.6666666666666667 1 0  0.6333333333333333 1 0  0.6 1 0  0.5666666666666667 1 0  0.5333333333333333 1 0  0.5 1 0  0.4666666666666667 1 0  0.4333333333333333 1 0  0.4 1 0  0.3666666666666667 1 0  0.3333333333333334 1 0  0.3 1 0  0.2666666666666667 1 0  0.2333333333333333 1 0  0.2 1 0  0.1666666666666666 1 0  0.1333333333333333 1 0  0.09999999999999998 1 0  0.06666666666666665 1 0  0.03333333333333333 1 0  0.6247072676344306 0.2689501343248463 0  0.6239274716502419 0.2788583817523955 0  0.6226301867455355 0.2887122389026952 0  0.6208189686880621 0.2984846970382296 0  0.6184987819006211 0.3081489705305245 0  0.6156759858539226 0.317678570277693 0  0.6123583176357204 0.3270473763092224 0  0.6085548707439923 0.3362297093789981 0  0.6042760701622942 0.3452004013503318 0  0.5995336437856049 0.3539348641800754 0  0.5943405902749808 0.3624091573127375 0  0.5887111434291297 0.3706000532998825 0  0.582660733170558 0.3784851014649517 0  0.5762059432532257 0.3860426894390078 0  0.5693644658076293 0.3932521023987353 0  0.5621550528479018 0.4000935798443317 0  0.5545974648738458 0.4065483697616639 0  0.5467124167087765 0.4125987800202355 0  0.5385215207216315 0.4182282268660866 0  0.5300472275889694 0.4234212803767108 0  0.5213127647592257 0.4281637067534002 0  0.512342072787892 0.4324425073350981 0  0.5031597397181163 0.4362459542268262 0  0.493790933686587 0.4395636224450283 0  0.4842613339394185 0.4423864184917269 0  0.4745970604471235 0.4447066052791678 0  0.4648246023115891 0.4465178233366412 0  0.4549707451612894 0.4478151082413475 0  0.4450624977337403 0.4485949042255363 0  0.4351270178464268 0.4488550739226177 0  0.4251915379591132 0.4485949042255363 0  0.4152832905315641 0.4478151082413475 0  0.4054294333812644 0.4465178233366411 0  0.39565697524573 0.4447066052791677 0  0.385992701753435 0.4423864184917267 0  0.3764631020062665 0.4395636224450281 0  0.3670942959747371 0.4362459542268259 0  0.3579119629049616 0.4324425073350978 0  0.3489412709336278 0.4281637067533998 0  0.3402068081038843 0.4234212803767103 0  0.3317325149712221 0.4182282268660862 0  0.3235416189840771 0.412598780020235 0  0.3156565708190078 0.4065483697616634 0  0.3080989828449519 0.4000935798443311 0  0.3008895698852244 0.3932521023987346 0  0.2940480924396279 0.3860426894390071 0  0.2875933025222958 0.3784851014649511 0  0.2815428922637242 0.3706000532998818 0  0.2759134454178731 0.3624091573127368 0  0.2707203919072489 0.3539348641800746 0  0.2659779655305596 0.3452004013503309 0  0.2616991649488616 0.3362297093789972 0  0.2578957180571336 0.3270473763092215 0  0.2545780498389315 0.3176785702776921 0  0.251755253792233 0.3081489705305236 0  0.249435067004792 0.2984846970382286 0  0.2476238489473186 0.2887122389026941 0  0.2463265640426123 0.2788583817523945 0  0.2455467680584236 0.2689501343248454 0  0.2452865983613423 0.2590146544375318 0  0.2455467680584237 0.2490791745502182 0  0.2463265640426126 0.2391709271226692 0  0.247623848947319 0.2293170699723696 0  0.2494350670047924 0.2195446118368351 0  0.2517552537922335 0.2098803383445402 0  0.2545780498389321 0.2003507385973717 0  0.2578957180571343 0.1909819325658423 0  0.2616991649488624 0.1817995994960667 0  0.2659779655305604 0.172828907524733 0  0.2707203919072498 0.1640944446949895 0  0.2759134454178741 0.1556201515623273 0  0.2815428922637251 0.1474292555751825 0  0.2875933025222969 0.1395442074101132 0  0.2940480924396291 0.1319866194360571 0  0.3008895698852256 0.1247772064763297 0  0.3080989828449531 0.1179357290307334 0  0.3156565708190092 0.1114809391134012 0  0.3235416189840785 0.1054305288548295 0  0.3317325149712236 0.09980108200897844 0  0.3402068081038856 0.0946080284983544 0  0.3489412709336291 0.08986560212166514 0  0.357911962904963 0.08558680153996717 0  0.3670942959747386 0.08178335464823916 0  0.3764631020062678 0.07846568643003712 0  0.3859927017534364 0.0756428903833386 0  0.3956569752457313 0.0733227035958976 0  0.4054294333812659 0.07151148553842429 0  0.4152832905315654 0.07021420063371797 0  0.4251915379591144 0.0694344046495293 0  0.435127017846428 0.0691742349524479 0  0.4450624977337415 0.06943440464952938 0  0.4549707451612905 0.07021420063371814 0  0.4648246023115901 0.07151148553842454 0  0.4745970604471245 0.07332270359589793 0  0.4842613339394195 0.07564289038333902 0  0.4937909336865879 0.07846568643003757 0  0.5031597397181173 0.0817833546482398 0  0.5123420727878929 0.08558680153996781 0  0.5213127647592265 0.08986560212166581 0  0.53004722758897 0.0946080284983552 0  0.5385215207216321 0.09980108200897933 0  0.5467124167087771 0.1054305288548305 0  0.5545974648738462 0.1114809391134021 0  0.5621550528479023 0.1179357290307343 0  0.5693644658076298 0.1247772064763308 0  0.576205943253226 0.1319866194360582 0  0.5826607331705582 0.1395442074101142 0  0.5887111434291299 0.1474292555751835 0  0.594340590274981 0.1556201515623285 0  0.5995336437856051 0.1640944446949906 0  0.6042760701622945 0.172828907524734 0  0.6085548707439925 0.1817995994960678 0  0.6123583176357205 0.1909819325658435 0  0.6156759858539227 0.2003507385973728 0  0.6184987819006211 0.2098803383445412 0  0.6208189686880622 0.2195446118368362 0  0.6226301867455355 0.2293170699723706 0  0.6239274716502419 0.2391709271226702 0  0.6247072676344306 0.2490791745502192 0  0.203885768735257 0.3325402459548524 0  0.2015714905276826 0.3421799084407872 0  0.1977777294810124 0.3513388578120612 0  0.1925979005829864 0.3597915703383434 0  0.1861595484119405 0.3673299121842922 0  0.1786212065659918 0.373768264355338 0  0.1701684940397096 0.378948093253364 0  0.1610095446684356 0.3827418543000342 0  0.1513698821825007 0.3850561325076086 0  0.1414868670645144 0.3858339426659677 0  0.1316038519465281 0.3850561325076086 0  0.1219641894605933 0.3827418543000343 0  0.1128052400893193 0.378948093253364 0  0.1043525275630371 0.3737682643553381 0  0.09681418571708833 0.3673299121842922 0  0.09037583354604248 0.3597915703383434 0  0.08519600464801645 0.3513388578120612 0  0.08140224360134621 0.3421799084407872 0  0.07908796539377183 0.3325402459548523 0  0.07831015523541281 0.3226572308368659 0  0.07908796539377186 0.3127742157188796 0  0.08140224360134626 0.3031345532329447 0  0.08519600464801655 0.2939756038616707 0  0.0903758335460426 0.2855228913353884 0  0.0968141857
[...]
<PointData  Vectors="$u$"> 
<DataArray  type="Float64"  Name="$u$"  NumberOfComponents="3" format="ascii">2.4385930202673373e-04 4.6030308921530719e-04 0.0000000000000000e+00  0.0000000000000000e+00 0.0000000000000000e+00 0.0000000000000000e+00  -5.6225596654617914e-04 0.0000000000000000e+00 0.0000000000000000e+00  -7.8307856700840254e-05 5.0000000000000001e-03 0.0000000000000000e+00  -6.5854402528440071e-04 5.0000000000000001e-03 0.0000000000000000e+00  -9.2954348469023403e-04 1.1965629111055970e-03 0.0000000000000000e+00  9.6783051519265084e-04 7.5024954145369431e-04 0.0000000000000000e+00  8.3662195193150417e-04 1.4103150684779818e-03 0.0000000000000000e+00  -4.9568061825297732e-04 1.7191204920579697e-04 0.0000000000000000e+00  -7.5609681888512848e-04 2.1798844513275433e-05 0.0000000000000000e+00  -8.6783554889935193e-04 1.7948831892511941e-04 0.0000000000000000e+00  -1.2822608480741879e-04 1.9551839950363108e-03 0.0000000000000000e+00  -2.2905175945246840e-03 1.5355500823240620e-03 0.0000000000000000e+00  -3.6592642514166263e-04 3.0656864488957172e-03 0.0000000000000000e+00  -2.8848042505887577e-04 2.7510966156356689e-03 0.0000000000000000e+00  7.0814044501102532e-04 4.7482092556542614e-03 0.0000000000000000e+00  2.6703159017569010e-04 4.0069957286323829e-03 0.0000000000000000e+00  -3.7743938123786580e-04 4.7923835882238272e-03 0.0000000000000000e+00  -2.4252091864741606e-03 2.6441940605010559e-03 0.0000000000000000e+00  -1.8728982795314941e-03 3.4729883871418656e-03 0.0000000000000000e+00  -1.2681710889617848e-03 4.5491847041270184e-03 0.0000000000000000e+00  -1.1506744758804871e-03 4.4409338132679168e-03 0.0000000000000000e+00  3.2613462239446047e-04 5.4188736616645524e-04 0.0000000000000000e+00  4.1212987238020373e-04 6.1432303581669939e-04 0.0000000000000000e+00  4.8780754652383182e-04 6.7469381445802682e-04 0.0000000000000000e+00  5.4564212905477234e-04 7.0033751166641875e-04 0.0000000000000000e+00  5.8706891453733827e-04 6.8690460571590930e-04 0.0000000000000000e+00  5.9346793640862152e-04 6.1744259618917556e-04 0.0000000000000000e+00  5.7824519414158206e-04 5.1677909234719194e-04 0.0000000000000000e+00  5.3125766079089394e-04 4.3185068302484426e-04 0.0000000000000000e+00  4.6180891965377942e-04 3.8438303992435231e-04 0.0000000000000000e+00  3.9924034701001434e-04 3.5956846357035631e-04 0.0000000000000000e+00  3.3539671195210687e-04 3.2794452635386532e-04 0.0000000000000000e+00  2.7870665291019546e-04 2.9983612126496513e-04 0.0000000000000000e+00  2.2735830511267499e-04 2.6664841033574002e-04 0.0000000000000000e+00  1.8351711057574519e-04 2.3669362097462944e-04 0.0000000000000000e+00  1.4491658412302480e-04 2.1678881342410497e-04 0.0000000000000000e+00  1.1904997241492162e-04 2.0819805359390765e-04 0.0000000000000000e+00  1.0099202097704775e-04 2.1376938525073869e-04 0.0000000000000000e+00  9.6376837304611225e-05 2.3421809535545897e-04 0.0000000000000000e+00  1.0800619020253797e-04 2.6983121295939827e-04 0.0000000000000000e+00  1.3295809794343195e-04 3.1859588246339323e-04 0.0000000000000000e+00  1.7971676113536639e-04 3.8372137342389175e-04 0.0000000000000000e+00  0.0000000000000000e+00 0.0000000000000000e+00 0.0000000000000000e+00  -4.9627063267011555e-05 0.0000000000000000e+00 0.0000000000000000e+00  -6.8273925981079833e-05 0.0000000000000000e+00 0.0000000000000000e+00  -8.9565877668001400e-05 0.0000000000000000e+00 0.0000000000000000e+00  -1.0435371476812999e-04 0.0000000000000000e+00 0.0000000000000000e+00  -1.1817162113221506e-04 0.0000000000000000e+00 0.0000000000000000e+00  -1.2966282026605864e-04 0.0000000000000000e+00 0.0000000000000000e+00  -1.4024181368181397e-04 0.0000000000000000e+00 0.0000000000000000e+00  -1.4813557981976913e-04 0.0000000000000000e+00 0.0000000000000000e+00  -1.5342631502541417e-04 0.0000000000000000e+00 0.0000000000000000e+00  -1.5822807346961191e-04 0.0000000000000000e+00 0.0000000000000000e+00  -1.6518400709616577e-04 0.0000000000000000e+00 0.0000000000000000e+00  -1.7388110164704375e-04 0.0000000000000000e+00 0.0000000000000000e+00  -1.8456064680330119e-04 0.0000000000000000e+00 0.0000000000000000e+00  -1.9801039509476521e-04 0.0000000000000000e+00 0.0000000000000000e+00  -2.2022531133361164e-04 0.0000000000000000e+00 0.0000000000000000e+00  -2.5568665083520049e-04 0.0000000000000000e+00 0.0000000000000000e+00  -3.0343568173347789e-04 0.0000000000000000e+00 0.0000000000000000e+00  -3.3787921711183228e-04 0.0000000000000000e+00 0.0000000000000000e+00  -3.6767615073901686e-04 0.0000000000000000e+00 0.0000000000000000e+00  -4.0870425673483171e-04 0.0000000000000000e+00 0.0000000000000000e+00  -4.3562870001312415e-04 0.0000000000000000e+00 0.0000000000000000e+00  -4.4268377180934715e-04 0.0000000000000000e+00 0.0000000000000000e+00  -4.4291116725665735e-04 0.0000000000000000e+00 0.0000000000000000e+00  -4.4272152363772040e-04 0.0000000000000000e+00 0.0000000000000000e+00  -4.5088790346418912e-04 0.0000000000000000e+00 0.0000000000000000e+00  -4.6321089047496669e-04 0.0000000000000000e+00 0.0000000000000000e+00  -4.8816132034824416e-04 0.0000000000000000e+00 0.0000000000000000e+00  -5.2136028583782846e-04 0.0000000000000000e+00 0.0000000000000000e+00  -6.9343339577652567e-05 4.8534213787533439e-03 0.0000000000000000e+00  -3.9306447011810013e-05 4.7059277931352540e-03 0.0000000000000000e+00  1.1324670805063169e-05 4.5526545908467038e-03 0.0000000000000000e+00  8.8098145589164228e-05 4.3961099706724118e-03 0.0000000000000000e+00  1.9078788221292076e-04 4.2344263179502377e-03 0.0000000000000000e+00  3.2208085566745343e-04 4.0674197293848269e-03 0.0000000000000000e+00  4.8142579310527325e-04 3.8961120084683169e-03 0.0000000000000000e+00  6.6931782897963494e-04 3.7083322702773447e-03 0.0000000000000000e+00  9.0340258481740260e-04 3.5041995048092417e-03 0.0000000000000000e+00  1.2008170092091591e-03 3.2817085435429324e-03 0.0000000000000000e+00  1.5698892952402896e-03 3.0720332704248731e-03 0.0000000000000000e+00  1.9575941968547057e-03 2.9173252010120236e-03 0.0000000000000000e+00  2.2312767123942858e-03 2.8371676595982439e-03 0.0000000000000000e+00  2.2425114543226702e-03 2.7957075630624510e-03 0.0000000000000000e+00  2.0228772287657513e-03 2.6836834179764630e-03 0.0000000000000000e+00  1.7381892191697067e-03 2.4706101680480133e-03 0.0000000000000000e+00  1.5690115484696980e-03 2.1723858153387759e-03 0.0000000000000000e+00  1.4775055245849671e-03 1.9648557436994477e-03 0.0000000000000000e+00  1.2123053990531333e-03 1.7756164055658405e-03 0.0000000000000000e+00  9.8103234348851580e-04 1.5239938924623828e-03 0.0000000000000000e+00  8.2003060142767949e-04 1.3377040029383461e-03 0.0000000000000000e+00  6.5881436677915715e-04 1.1750893012704721e-03 0.0000000000000000e+00  5.0688109202185068e-04 1.0212671457688520e-03 0.0000000000000000e+00  3.7154496202454663e-04 8.6851997239031367e-04 0.0000000000000000e+00  2.5805836882618317e-04 7.1878164059850256e-04 0.0000000000000000e+00  1.6835194373209140e-04 5.6734600827814351e-04 0.0000000000000000e+00  1.0272078162155409e-04 4.2298958025553017e-04 0.0000000000000000e+00  5.7459405855307152e-05 2.7496509543763973e-04 0.0000000000000000e+00  3.7921394671731384e-05 1.4233119411320944e-04 0.0000000000000000e+00  -5.7152542236667584e-04 1.5116696639111868e-04 0.0000000000000000e+00  -6.0392631493719098e-04 3.0474228855338506e-04 0.0000000000000000e+00  -6.5843708117988627e-04 4.6232529655952165e-04 0.0000000000000000e+00  -7.3961871988580325e-04 6.2711924125279095e-04 0.0000000000000000e+00  -8.5173225336068086e-04 8.0019834004636369e-04 0.0000000000000000e+00  -1.0020953182241080e-03 9.8294617878324510e-04 0.0000000000000000e+00  -1.1945107233915712e-03 1.1703066787938561e-03 0.0000000000000000e+00  -1.4369057476828809e-03 1.3649838435633472e-03 0.0000000000000000e+00  -1.7260396548592436e-03 1.5447344656261883e-03 0.0000000000000000e+00  -2.0322123137827327e-03 1.6929107691800410e-03 0.0000000000000000e+00  -2.2927541912709333e-03 1.7947586406927953e-03 0.0000000000000000e+00  -2.4427665651608841e-03 1.8775767562734026e-03 0.0000000000000000e+00  -2.4736018810289375e-03 1.9873169606409399e-03 0.0000000000000000e+00  -2.4662497850661612e-03 2.1899977125139241e-03 0.0000000000000000e+00  -2.5746036887688553e-03 2.4230965136879225e-03 0.0000000000000000e+00  -2.3267645015247152e-03 2.5589975504614654e-03 0.0000000000000000e+00  -2.0160762537214721e-03 2.9370608767447042e-03 0.0000000000000000e+00  -1.9824271767130185e-03 3.2011275590960631e-03 0.0000000000000000e+00  -1.8986580255585524e-03 3.3438698708684825e-03 0.0000000000000000e+00  -1.7058477600803269e-03 3.4782668053558148e-03 0.0000000000000000e+00  -1.4835853603169670e-03 3.6363543357554027e-03 0.0000000000000000e+00  -1.2871016614498165e-03 3.8052051854471918e-03 0.0000000000000000e+00  -1.1201875281646870e-03 3.9676734655506680e-03 0.0000000000000000e+00  -9.8075114488075732e-04 4.1278438596373136e-03 0.0000000000000000e+00  -8.7188460737948749e-04 4.2854957258673734e-03 0.0000000000000000e+00  -7.9077378752262105e-04 4.4361364849520492e-03 0.0000000000000000e+00  -7.3127155482989256e-04 4.5814601739688132e-03 0.0000000000000000e+00  -6.9072237867638794e-04 4.7225320234567485e-03 0.0000000000000000e+00  -6.6593819870418053e-04 4.8615488527859992e-03 0.0000000000000000e+00  -6.2062323120209203e-04 5.0000000000000001e-03 0.0000000000000000e+00  -5.8660606592559152e-04 5.0000000000000001e-03 0.0000000000000000e+00  -5.5902842037020960e-04 5.0000000000000001e-03 0.0000000000000000e+00  -5.3633902655640870e-04 5.0000000000000001e-03 0.0000000000000000e+00  -5.1717651671492708e-04 5.0000000000000001e-03 0.0000000000000000e+00  -5.0065466867635323e-04 5.0000000000000001e-03 0.0000000000000000e+00  -4.8750564909445793e-04 5.0000000000000001e-03 0.0000000000000000e+00  -4.7854423643393788e-04 5.0000000000000001e-03 0.0000000000000000e+00  -4.7202258168469222e-04 5.0000000000000001e-03 0.0000000000000000e+00  -4.6847449071081473e-04 5.0000000000000001e-03 0.0000000000000000e+00  -4.6252665329545310e-04 5.0000000000000001e-03 0.0000000000000000e+00  -4.5470279156866546e-04 5.0000000000000001e-03 0.0000000000000000e+00  -4.4413215066959932e-04 5.0000000000000001e-03 0.0000000000000000e+00  -4.3227004528181726e-04 5.0000000000000001e-03 0.0000000000000000e+00  -4.2016994539835527e-04 5.0000000000000001e-03 0.0000000000000000e+00  -4.0451458003818130e-04 5.0000000000000001e-03 0.0000000000000000e+00  -3.8313451062706996e-04 5.0000000000000001e-03 0.0000000000000000e+00  -3.5161235015816365e-04 5.0000000000000001e-03 0.0000000000000000e+00  -3.1412989928842006e-04 5.0000000000000001e-03 0.0000000000000000e+00  -2.8222660805198984e-04 5.0000000000000001e-03 0.0000000000000000e+00  -2.6291218498508462e-04 5.0000000000000001e-03 0.0000000000000000e+00  -2.4536516121447243e-04 5.0000000000000001e-03 0.0000000000000000e+00  -2.2315389933470376e-04 5.0000000000000001e-03 0.0000000000000000e+00  -2.0653188168784980e-04 5.0000000000000001e-03 0.0000000000000000e+00  -1.9844293511000043e-04 5.0000000000000001e-03 0.0000000000000000e+00  -1.8773680620716600e-04 5.0000000000000001e-03 0.0000000000000000e+00  -1.7385802441161920e-04 5.0000000000000001e-03 0.0000000000000000e+00  -1.5064955242849324e-04 5.0000000000000001e-03 0.0000000000000000e+00  -1.1763933537176861e-04 5.0000000000000001e-03 0.0000000000000000e+00  -8.8450788343954437e-04 1.2765763235445325e-03 0.0000000000000000e+00  -8.3222809836995277e-04 1.3526521280553415e-03 0.0000000000000000e+00  -7.7272868081517093e-04 1.4282338992615464e-03 0.0000000000000000e+00  -7.0904665971323506e-04 1.4991482466958984e-03 0.0000000000000000e+00  -6.4202441235737431e-04 1.5701360643925735e-03 0.0000000000000000e+00  -5.7304961834679831e-04 1.6357984749870817e-03 0.0000000000000000e+00  -5.0515469147609682e-04 1.6951952796421122e-03 0.0000000000000000e+00  -4.4218849739936442e-04 1.7477856100428513e-03 0.0000000000000000e+00  -3.8503133930813907e-04 1.7915989875105509e-03 0.0000000000000000e+00  -3.3808388330196107e-04 1.8257980037101541e-03 0.0000000000000000e+00  -3.0214698333467903e-04 1.8515993760335619e-03 0.0000000000000000e+00  -2.7870864398643841e-04 1.8693202110063318e-03 0.0000000000000000e+00  -2.6884584430190072e-04 1.8805401121826163e-03 0.0000000000000000e+00  -2.7166018866466176e-04 1.8874070692700149e-03 0.0000000000000000e+00  -2.8776837488589982e-04 1.8907489810178169e-03 0.0000000000000000e+00  -3.1588224665261491e-04 1.8969863822518287e-03 0.0000000000000000e+00  -3.5087727566169387e-04 1.9102189998162580e-03 0.0000000000000000e+00  -3.8726769480183494e-04 1.9328674576117406e-03 0.0000000000000000e+00  -4.2189377270953281e-04 1.9667283737018876e-03 0.0000000000000000e+00  -4.5082811821164047e-04 2.0087354902580032e-03 0.0000000000000000e+00  -4.7556608935055470e-04 2.0601134810963031e-03 0.0000000000000000e+00  -4.9420930794637642e-04 2.1185869463314164e-03 0.0000000000000000e+00  -5.0674708850810362e-04 2.1829906223524102e-03 0.0000000000000000e+00  -5.1348482636932185e-04 2.2517148434186575e-03 0.0000000000000000e+00  -5.1444665530751550e-04 2.3224810023179153e-03 0.0000000000000000e+00  -5.1018126507674144e-04 2.3930093610490251e-03 0.0000000000000000e+00  -5.0077638054861625e-04 2.4611015935847107e-03 0.0000000000000000e+00  -4.8864777510355571e-04 2.5246286070026995e-03 0.0000000000000000e+00  -4.7380646910701182e-04 2.5832353242669411e-03 0.0000000000000000e+00  -4.5699601513341881e-04 2.6362060505600339e-03 0.0000000000000000e+00  -4.3871907982647026e-04 2.6837989927236653e-03 0.0000000000000000e+00  -4.1770502963518540e-04 2.7271810971329822e-03 0.0000000000000000e+00  -3.9215959457500983e-04 2.7654627188254417e-03 0.0000000000000000e+00  -3.5863139979874586e-04 2.7975484559189753e-03 0.0000000000000000e+00  -3.1271577856818104e-04 2.8182696389109632e-03 0.0000000000000000e+00  -2.5376175218388839e-04 2.8218467541965895e-03 0.0000000000000000e+00  -1.8240949003276325e-04 2.8053903977355017e-03 0.0000000000000000e+00  -9.8605973942802148e-05 2.7677867043739120e-03 0.0000000000000000e+00  -2.8470227400195173e-06 2.7083968042832564e-03 0.0000000000000000e+00  1.0383247721135933e-04 2.6258547035192038e-03 0.0000000000000000e+00  2.1960148027970754e-04 2.5205908592498085e-03 0.0000000000000000e+00  3.4048669798895931e-04 2.3921895194368111e-03 0.0000000000000000e+00  4.5942643426141359e-04 2.2455842068150665e-03 0.0000000000000000e+00  5.7391902421628956e-04 2.0854107900366375e-03 0.0000000000000000e+00  6.7785584066783189e-04 1.9182216333089737e-03 0.0000000000000000e+00  7.6326052835451821e-04 1.7480489561703817e-03 0.0000000000000000e+00  8.3375384550651811e-04 1.5886947095904390e-03 0.0000000000000000e+00  8.8725571227816222e-04 1.4378597750115388e-03 0.0000000000000000e+00  9.2482676031200250e-04 1.3002037631281162e-03 0.0000000000000000e+00  9.4959823958267668e-04 1.1764975444978536e-03 0.0000000000000000e+00  9.6189555023356123e-04 1.0633476910714564e-03 0.0000000000000000e+00  9.6332805947034667e-04 9.6129709491642862e-04 0.0000000000000000e+00  9.5212303675356138e-04 8.6574079357349624e-04 0.0000000000000000e+00  9.2702630991475961e-04 7.7794388521525550e-04 0.0000000000000000e+00  8.8813145661912739e-04 6.9806674560717388e-04 0.0000000000000000e+00  8.3638656186878365e-04 6.2603739549704459e-04 0.0000000000000000e+00  7.7603141159153673e-04 5.6323999346545377e-04 0.0000000000000000e+00  7.1189928745863165e-04 5.0767711773400072e-04 0.0000000000000000e+00  6.4598672016143123e-04 4.5429908846860112e-04 0.0000000000000000e+00  5.7805784480538373e-04 4.0219645876333674e-04 0.0000000000000000e+00  5.0594524185050354e-04 3.4828013269508459e-04 0.0000000000000000e+00  4.2707681192310376e-04 2.9511225335321990e-04 0.0000000000000000e+00  3.4427294897654932e-04 2.5001939643501522e-04 0.0000000000000000e+00  2.6635123006437159e-04 2.1359709026712417e-04 0.0000000000000000e+00  1.9973279544168921e-04 1.8727541414142432e-04 0.0000000000000000e+00  1.4818417125999221e-04 1.6607102664374426e-04 0.0000000000000000e+00  1.0967239240513715e-04 1.4750691195472223e-04 0.0000000000000000e+00  8.0351098334883073e-05 1.2859958695562207e-04 0.0000000000000000e+00  5.6458384848804599e-05 1.0987571987232867e-04 0.0000000000000000e+00  3.5294904106308521e-05 9.1211467760496980e-05 0.0000000000000000e+00  1.5787375516303633e-05 7.3895213170346592e-05 0.0000000000000000e+00  -2.7256731706346571e-06 5.8105383259318183e-05 0.0000000000000000e+00  -2.0259943566956709e-05 4.4200853630946579e-05 0.0000000000000000e+00  -3.6929104182775896e-05 3.2256349258413786e-05 0.0000000000000000e+00  -5.2582430639069142e-05 2.2613843236227885e-05 0.0000000000000000e+00  -6.7097486462510165e-05 1.4551594890445913e-05 0.0000000000000000e+00  -8.0528080136594177e-05 8.6638385422835885e-06 0.0000000000000000e+00  -9.2704046062916338e-05 4.1317423146794303e-06 0.0000000000000000e+00  -1.0371603978499441e-04 1.0779545846958931e-06 0.0000000000000000e+00  -1.1384558290476811e-04 -7.6298927025825238e-07 0.0000000000000000e+00  -1.2272537001002003e-04 -1.6488723700205614e-06 0.0000000000000000e+00  -1.3089148865779262e-04 -1.8404649689059487e-06 0.0000000000000000e+00  -1.3813205073061818e-04 -1.4742354328767382e-06 0.0000000000000000e+00  -1.4480255345161825e-04 -8.1427127192183702e-07 0.0000000000000000e+00  -1.5087550451509807e-04 6.8595540021705722e-08 0.0000000000000000e+00  -1.5669002312708780e-04 9.7374608275038836e-07 0.0000000000000000e+00  -1.6215756439028214e-04 1.9436859808192991e-06 0.0000000000000000e+00  -1.6749087389559257e-04 2.8044564390556311e-06 0.0000000000000000e+00  -1.7284000070525249e-04 3.7087523506190719e-06 0.0000000000000000e+00  -1.7817769444390116e-04 4.6441925959903110e-06 0.0000000000000000e+00  -1.8365408311768488e-04 5.7791521899256204e-06 0.0000000000000000e+00  -1.8911548794710298e-04 7.1821995182605361e-06 0.0000000000000000e+00  -1.9473363669780179e-04 9.0613844466973689e-06 0.0000000000000000e+00  -2.0043003509061485e-04 1.1801906461008216e-05 0.0000000000000000e+00  -2.0570345053856127e-04 1.5291358851163333e-05 0.0000000000000000e+00  -2.1086595984049031e-04 1.9898880433715959e-05 0.0000000000000000e+00  -2.1518636200294229e-04 2.5575502674021174e-05 0.0000000000000000e+00  -2.1887265941476810e-04 3.2285121058299419e-05 0.0000000000000000e+00  -2.2185035300357491e-04 3.9883044560771621e-05 0.0000000000000000e+00  -2.2397129131000992e-04 4.8428243060612887e-05 0.0000000000000000e+00  -2.2631078272339456e-04 5.7147904561430276e-05 0.0000000000000000e+00  -2.2973522973293627e-04 6.6608446366116388e-05 0.0000000000000000e+00  -2.3818042084942825e-04 7.6177875325680752e-05 0.0000000000000000e+00  -2.5300924510617109e-04 8.9868509584537491e-05 0.0000000000000000e+00  -2.8019143126626977e-04 1.0808727361001383e-04 0.0000000000000000e+00  -3.1783102739061498e-04 1.3786639586088189e-04 0.0000000000000000e+00  -3.6657143639020750e-04 1.7886803417621475e-04 0.0000000000000000e+00  -4.1954333313123953e-04 2.3069028445648661e-04 0.0000000000000000e+00  -4.7510870511788630e-04 2.8763216418809190e-04 0.0000000000000000e+00  -5.3338817423412190e-04 3.4544183797635783e-04 0.0000000000000000e+00  -5.9933140829963839e-04 4.0360546955455531e-04 0.0000000000000000e+00  -6.7342630138539751e-04 4.6725571823058560e-04 0.0000000000000000e+00  -7.5384488757225890e-04 5.3975730180696286e-04 0.0000000000000000e+00  -8.3258716202367820e-04 6.2356391200077128e-04 0.0000000000000000e+00  -9.0064867382803502e-04 7.1845414199382608e-04 0.0000000000000000e+00  -9.4991383118046076e-04 8.1849512866971196e-04 0.0000000000000000e+00  -9.7664001194574667e-04 9.1974863764222197e-04 0.0000000000000000e+00  -9.7928982750246341e-04 1.0188504580559926e-03 0.0000000000000000e+00  -9.6247405002050353e-04 1.1094790377844826e-03 0.0000000000000000e+00  9.7817752963253748e-04 7.4665032144294373e-04 0.0000000000000000e+00  9.6433190878916677e-04 7.3159026436626950e-04 0.0000000000000000e+00  9.2853898360478174e-04 7.0889817621575229e-04 0.0000000000000000e+00  8.7678874510426603e-04 6.867