<?xml version="1.0"?>
<VTKFile type="UnstructuredGrid"  version="0.1"  >
<UnstructuredGrid>
<Piece  NumberOfPoints="3879" NumberOfCells="6881">
<Points>
<DataArray  type="Float64"  NumberOfComponents="3"  format="ascii">0.207524190028372 0.2122422770132111 0  0 0 0  1 0 0  0 1 0  1 1 0  0.6249674373315121 0.2590146544375328 0  0.204663578893616 0.322657230836866 0  0.09605577522599912 0.4018360776629776 0  0.671351124618251 0.08738059142081528 0  0.7842102907526436 0.1666439122351055 0  0.8512483166984784 0.1985391006160637 0  0.6418797837909295 0.4423157172830166 0  0.9292488447973215 0.3869277868069776 0  0.3197896119137055 0.5509935221980964 0  0.3979283685568406 0.5079871620336583 0  0.1572503457993085 0.7345153245035532 0  0.3032914287999163 0.7872981443735918 0  0.3549464687598876 0.8870324161721976 0  0.9691791685505482 0.5159450047798622 0  0.9447564590470373 0.6146164845729313 0  0.7687603548175107 0.7176858127488035 0  0.8926159261971183 0.7422924070424508 0  0.2061587782631535 0.2217389244366831 0  0.2021731605082994 0.2304662099646423 0  0.1958902278109265 0.2377171008267789 0  0.1878189860121365 0.2429041729681512 0  0.1786133191209442 0.2456072006525708 0  0.1690190155206647 0.2456072006525708 0  0.1598133486294724 0.2429041729681512 0  0.1517421068306824 0.2377171008267789 0  0.1454591741333096 0.2304662099646422 0  0.1414735563784554 0.221738924436683 0  0.1401081446132369 0.212242277013211 0  0.1414735563784555 0.202745629589739 0  0.1454591741333096 0.1940183440617798 0  0.1517421068306825 0.1867674531996431 0  0.1598133486294725 0.1815803810582709 0  0.1690190155206649 0.1788773533738513 0  0.1786133191209443 0.1788773533738514 0  0.1878189860121367 0.181580381058271 0  0.1958902278109266 0.1867674531996433 0  0.2021731605082994 0.19401834406178 0  0.2061587782631535 0.2027456295897391 0  0.03333333333333333 0 0  0.06666666666666667 0 0  0.1 0 0  0.1333333333333333 0 0  0.1666666666666667 0 0  0.2 0 0  0.2333333333333333 0 0  0.2666666666666667 0 0  0.3 0 0  0.3333333333333333 0 0  0.3666666666666666 0 0  0.4 0 0  0.4333333333333333 0 0  0.4666666666666667 0 0  0.5 0 0  0.5333333333333333 0 0  0.5666666666666667 0 0  0.6 0 0  0.6333333333333333 0 0  0.6666666666666666 0 0  0.7 0 0  0.7333333333333333 0 0  0.7666666666666667 0 0  0.8 0 0  0.8333333333333334 0 0  0.8666666666666667 0 0  0.9 0 0  0.9333333333333333 0 0  0.9666666666666667 0 0  0 0.9666666666666667 0  0 0.9333333333333333 0  0 0.9 0  0 0.8666666666666667 0  0 0.8333333333333334 0  0 0.8 0  0 0.7666666666666666 0  0 0.7333333333333334 0  0 0.7 0  0 0.6666666666666667 0  0 0.6333333333333333 0  0 0.6 0  0 0.5666666666666667 0  0 0.5333333333333333 0  0 0.5 0  0 0.4666666666666667 0  0 0.4333333333333333 0  0 0.4 0  0 0.3666666666666667 0  0 0.3333333333333334 0  0 0.3 0  0 0.2666666666666667 0  0 0.2333333333333333 0  0 0.2 0  0 0.1666666666666666 0  0 0.1333333333333333 0  0 0.09999999999999998 0  0 0.06666666666666665 0  0 0.03333333333333333 0  1 0.03333333333333333 0  1 0.06666666666666667 0  1 0.1 0  1 0.1333333333333333 0  1 0.1666666666666667 0  1 0.2 0  1 0.2333333333333333 0  1 0.2666666666666667 0  1 0.3 0  1 0.3333333333333333 0  1 0.3666666666666666 0  1 0.4 0  1 0.4333333333333333 0  1 0.4666666666666667 0  1 0.5 0  1 0.5333333333333333 0  1 0.5666666666666667 0  1 0.6 0  1 0.6333333333333333 0  1 0.6666666666666666 0  1 0.7 0  1 0.7333333333333333 0  1 0.7666666666666667 0  1 0.8 0  1 0.8333333333333334 0  1 0.8666666666666667 0  1 0.9 0  1 0.9333333333333333 0  1 0.9666666666666667 0  0.9666666666666667 1 0  0.9333333333333333 1 0  0.9 1 0  0.8666666666666667 1 0  0.8333333333333334 1 0  0.8 1 0  0.7666666666666666 1 0  0.7333333333333334 1 0  0.7 1 0  0.6666666666666667 1 0  0.6333333333333333 1 0  0.6 1 0  0.5666666666666667 1 0  0.5333333333333333 1 0  0.5 1 0  0.4666666666666667 1 0  0.4333333333333333 1 0  0.4 1 0  0.3666666666666667 1 0  0.3333333333333334 1 0  0.3 1 0  0.2666666666666667 1 0  0.2333333333333333 1 0  0.2 1 0  0.1666666666666666 1 0  0.1333333333333333 1 0  0.09999999999999998 1 0  0.06666666666666665 1 0  0.03333333333333333 1 0  0.6247072676344306 0.2689501343248463 0  0.6239274716502419 0.2788583817523955 0  0.6226301867455355 0.2887122389026952 0  0.6208189686880621 0.2984846970382296 0  0.6184987819006211 0.3081489705305245 0  0.6156759858539226 0.317678570277693 0  0.6123583176357204 0.3270473763092224 0  0.6085548707439923 0.3362297093789981 0  0.6042760701622942 0.3452004013503318 0  0.5995336437856049 0.3539348641800754 0  0.5943405902749808 0.3624091573127375 0  0.5887111434291297 0.3706000532998825 0  0.582660733170558 0.3784851014649517 0  0.5762059432532257 0.3860426894390078 0  0.5693644658076293 0.3932521023987353 0  0.5621550528479018 0.4000935798443317 0  0.5545974648738458 0.4065483697616639 0  0.5467124167087765 0.4125987800202355 0  0.5385215207216315 0.4182282268660866 0  0.5300472275889694 0.4234212803767108 0  0.5213127647592257 0.4281637067534002 0  0.512342072787892 0.4324425073350981 0  0.5031597397181163 0.4362459542268262 0  0.493790933686587 0.4395636224450283 0  0.4842613339394185 0.4423864184917269 0  0.4745970604471235 0.4447066052791678 0  0.4648246023115891 0.4465178233366412 0  0.4549707451612894 0.4478151082413475 0  0.4450624977337403 0.4485949042255363 0  0.4351270178464268 0.4488550739226177 0  0.4251915379591132 0.4485949042255363 0  0.4152832905315641 0.4478151082413475 0  0.4054294333812644 0.4465178233366411 0  0.39565697524573 0.4447066052791677 0  0.385992701753435 0.4423864184917267 0  0.3764631020062665 0.4395636224450281 0  0.3670942959747371 0.4362459542268259 0  0.3579119629049616 0.4324425073350978 0  0.3489412709336278 0.4281637067533998 0  0.3402068081038843 0.4234212803767103 0  0.3317325149712221 0.4182282268660862 0  0.3235416189840771 0.412598780020235 0  0.3156565708190078 0.4065483697616634 0  0.3080989828449519 0.4000935798443311 0  0.3008895698852244 0.3932521023987346 0  0.2940480924396279 0.3860426894390071 0  0.2875933025222958 0.3784851014649511 0  0.2815428922637242 0.3706000532998818 0  0.2759134454178731 0.3624091573127368 0  0.2707203919072489 0.3539348641800746 0  0.2659779655305596 0.3452004013503309 0  0.2616991649488616 0.3362297093789972 0  0.2578957180571336 0.3270473763092215 0  0.2545780498389315 0.3176785702776921 0  0.251755253792233 0.3081489705305236 0  0.249435067004792 0.2984846970382286 0  0.2476238489473186 0.2887122389026941 0  0.2463265640426123 0.2788583817523945 0  0.2455467680584236 0.2689501343248454 0  0.2452865983613423 0.2590146544375318 0  0.2455467680584237 0.2490791745502182 0  0.2463265640426126 0.2391709271226692 0  0.247623848947319 0.2293170699723696 0  0.2494350670047924 0.2195446118368351 0  0.2517552537922335 0.2098803383445402 0  0.2545780498389321 0.2003507385973717 0  0.2578957180571343 0.1909819325658423 0  0.2616991649488624 0.1817995994960667 0  0.2659779655305604 0.172828907524733 0  0.2707203919072498 0.1640944446949895 0  0.2759134454178741 0.1556201515623273 0  0.2815428922637251 0.1474292555751825 0  0.2875933025222969 0.1395442074101132 0  0.2940480924396291 0.1319866194360571 0  0.3008895698852256 0.1247772064763297 0  0.3080989828449531 0.1179357290307334 0  0.3156565708190092 0.1114809391134012 0  0.3235416189840785 0.1054305288548295 0  0.3317325149712236 0.09980108200897844 0  0.3402068081038856 0.0946080284983544 0  0.3489412709336291 0.08986560212166514 0  0.357911962904963 0.08558680153996717 0  0.3670942959747386 0.08178335464823916 0  0.3764631020062678 0.07846568643003712 0  0.3859927017534364 0.0756428903833386 0  0.3956569752457313 0.0733227035958976 0  0.4054294333812659 0.07151148553842429 0  0.4152832905315654 0.07021420063371797 0  0.4251915379591144 0.0694344046495293 0  0.435127017846428 0.0691742349524479 0  0.4450624977337415 0.06943440464952938 0  0.4549707451612905 0.07021420063371814 0  0.4648246023115901 0.07151148553842454 0  0.4745970604471245 0.07332270359589793 0  0.4842613339394195 0.07564289038333902 0  0.4937909336865879 0.07846568643003757 0  0.5031597397181173 0.0817833546482398 0  0.5123420727878929 0.08558680153996781 0  0.5213127647592265 0.08986560212166581 0  0.53004722758897 0.0946080284983552 0  0.5385215207216321 0.09980108200897933 0  0.5467124167087771 0.1054305288548305 0  0.5545974648738462 0.1114809391134021 0  0.5621550528479023 0.1179357290307343 0  0.5693644658076298 0.1247772064763308 0  0.576205943253226 0.1319866194360582 0  0.5826607331705582 0.1395442074101142 0  0.5887111434291299 0.1474292555751835 0  0.594340590274981 0.1556201515623285 0  0.5995336437856051 0.1640944446949906 0  0.6042760701622945 0.172828907524734 0  0.6085548707439925 0.1817995994960678 0  0.6123583176357205 0.1909819325658435 0  0.6156759858539227 0.2003507385973728 0  0.6184987819006211 0.2098803383445412 0  0.6208189686880622 0.2195446118368362 0  0.6226301867455355 0.2293170699723706 0  0.6239274716502419 0.2391709271226702 0  0.6247072676344306 0.2490791745502192 0  0.203885768735257 0.3325402459548524 0  0.2015714905276826 0.3421799084407872 0  0.1977777294810124 0.3513388578120612 0  0.1925979005829864 0.3597915703383434 0  0.1861595484119405 0.3673299121842922 0  0.1786212065659918 0.373768264355338 0  0.1701684940397096 0.378948093253364 0  0.1610095446684356 0.3827418543000342 0  0.1513698821825007 0.3850561325076086 0  0.1414868670645144 0.3858339426659677 0  0.1316038519465281 0.3850561325076086 0  0.1219641894605933 0.3827418543000343 0  0.1128052400893193 0.378948093253364 0  0.1043525275630371 0.3737682643553381 0  0.09681418571708833 0.3673299121842922 0  0.09037583354604248 0.3597915703383434 0  0.08519600464801645 0.3513388578120612 0  0.08140224360134621 0.3421799084407872 0  0.07908796539377183 0.3325402459548523 0  0.07831015523541281 0.3226572308368659 0  0.07908796539377186 0.3127742157188796 0  0.08140224360134626 0.3031345532329447 0  0.08519600464801655 0.2939756038616707 0  0.0903758335460426 0.2855228913353884 0  0.0968141857
[...]
<PointData  Vectors="$u$"> 
<DataArray  type="Float64"  Name="$u$"  NumberOfComponents="3" format="ascii">3.1628060586826279e-04 5.9347882285004021e-04 0.0000000000000000e+00  0.0000000000000000e+00 0.0000000000000000e+00 0.0000000000000000e+00  -7.4670562593181708e-04 0.0000000000000000e+00 0.0000000000000000e+00  -1.2830410524558523e-04 6.5000000000000006e-03 0.0000000000000000e+00  -8.9555626041085015e-04 6.5000000000000006e-03 0.0000000000000000e+00  -1.2123213617647769e-03 1.5694593515542614e-03 0.0000000000000000e+00  1.2857118727739852e-03 9.6833972295530145e-04 0.0000000000000000e+00  1.1129094670145159e-03 1.7705809874457778e-03 0.0000000000000000e+00  -6.6296169668865511e-04 2.2190094046300679e-04 0.0000000000000000e+00  -9.9680103074581980e-04 2.2604348220294612e-05 0.0000000000000000e+00  -1.1396586559423423e-03 2.1297918023285142e-04 0.0000000000000000e+00  -1.0654908655237243e-04 2.5508971220607503e-03 0.0000000000000000e+00  -2.9729594481639520e-03 1.8971069568024883e-03 0.0000000000000000e+00  -4.4285649814765587e-04 3.9760271203137651e-03 0.0000000000000000e+00  -3.3250428116557028e-04 3.5833302662044105e-03 0.0000000000000000e+00  9.3043928180917769e-04 6.1952341088514894e-03 0.0000000000000000e+00  3.4013782227093316e-04 5.1908749206674154e-03 0.0000000000000000e+00  -5.2125004893449980e-04 6.2294738486062843e-03 0.0000000000000000e+00  -3.1701628716527160e-03 3.3239671561018230e-03 0.0000000000000000e+00  -2.3812164283288037e-03 4.5920087735430420e-03 0.0000000000000000e+00  -1.6517837823566961e-03 5.9079199900249372e-03 0.0000000000000000e+00  -1.5080394912542255e-03 5.8094275991158774e-03 0.0000000000000000e+00  4.2391581262584142e-04 6.9982816322222653e-04 0.0000000000000000e+00  5.3632204667074647e-04 7.9439336055528637e-04 0.0000000000000000e+00  6.3550822255896715e-04 8.7444662484667079e-04 0.0000000000000000e+00  7.1143454744219633e-04 9.0823896043069050e-04 0.0000000000000000e+00  7.6737053868105719e-04 8.9164923135997296e-04 0.0000000000000000e+00  7.7496258765704122e-04 8.0018546874437320e-04 0.0000000000000000e+00  7.5519372121130989e-04 6.6712452148442742e-04 0.0000000000000000e+00  6.9347002805667467e-04 5.5441439501799947e-04 0.0000000000000000e+00  6.0227988097828831e-04 4.9088477983873354e-04 0.0000000000000000e+00  5.2088630283262565e-04 4.5844698457214229e-04 0.0000000000000000e+00  4.3727576048572180e-04 4.1655465478587284e-04 0.0000000000000000e+00  3.6319449841631062e-04 3.8124498283914713e-04 0.0000000000000000e+00  2.9617313829339849e-04 3.3872185693766883e-04 0.0000000000000000e+00  2.3914538557745773e-04 3.0065760458172395e-04 0.0000000000000000e+00  1.8838844641768542e-04 2.7587632417268407e-04 0.0000000000000000e+00  1.5466643873487972e-04 2.6554971483040989e-04 0.0000000000000000e+00  1.3109774282767654e-04 2.7327915548619052e-04 0.0000000000000000e+00  1.2467535283979165e-04 3.0008307272891207e-04 0.0000000000000000e+00  1.4000773986653343e-04 3.4637462174398772e-04 0.0000000000000000e+00  1.7174189177070545e-04 4.0939339167479554e-04 0.0000000000000000e+00  2.3353130665895318e-04 4.9413453305341187e-04 0.0000000000000000e+00  0.0000000000000000e+00 0.0000000000000000e+00 0.0000000000000000e+00  -6.4383390521457684e-05 0.0000000000000000e+00 0.0000000000000000e+00  -8.7341765919422899e-05 0.0000000000000000e+00 0.0000000000000000e+00  -1.1538443787349635e-04 0.0000000000000000e+00 0.0000000000000000e+00  -1.3417595664761504e-04 0.0000000000000000e+00 0.0000000000000000e+00  -1.5256959883455984e-04 0.0000000000000000e+00 0.0000000000000000e+00  -1.6779462258888382e-04 0.0000000000000000e+00 0.0000000000000000e+00  -1.8223287542933625e-04 0.0000000000000000e+00 0.0000000000000000e+00  -1.9321257688399311e-04 0.0000000000000000e+00 0.0000000000000000e+00  -2.0109549131031043e-04 0.0000000000000000e+00 0.0000000000000000e+00  -2.0846186496167675e-04 0.0000000000000000e+00 0.0000000000000000e+00  -2.1873777624687539e-04 0.0000000000000000e+00 0.0000000000000000e+00  -2.3134063251839713e-04 0.0000000000000000e+00 0.0000000000000000e+00  -2.4648513058011569e-04 0.0000000000000000e+00 0.0000000000000000e+00  -2.6537053614986741e-04 0.0000000000000000e+00 0.0000000000000000e+00  -2.9562947338096919e-04 0.0000000000000000e+00 0.0000000000000000e+00  -3.4357920337881390e-04 0.0000000000000000e+00 0.0000000000000000e+00  -4.0761402614026659e-04 0.0000000000000000e+00 0.0000000000000000e+00  -4.5410841475109387e-04 0.0000000000000000e+00 0.0000000000000000e+00  -4.9419969741547744e-04 0.0000000000000000e+00 0.0000000000000000e+00  -5.4909368528201501e-04 0.0000000000000000e+00 0.0000000000000000e+00  -5.8568028639224379e-04 0.0000000000000000e+00 0.0000000000000000e+00  -5.9605106971252959e-04 0.0000000000000000e+00 0.0000000000000000e+00  -5.9734391322161049e-04 0.0000000000000000e+00 0.0000000000000000e+00  -5.9742446203563321e-04 0.0000000000000000e+00 0.0000000000000000e+00  -6.0782539512526811e-04 0.0000000000000000e+00 0.0000000000000000e+00  -6.2310299480300457e-04 0.0000000000000000e+00 0.0000000000000000e+00  -6.5411287180049875e-04 0.0000000000000000e+00 0.0000000000000000e+00  -6.9549915879177577e-04 0.0000000000000000e+00 0.0000000000000000e+00  -1.1666501165769730e-04 6.3112784787400598e-03 0.0000000000000000e+00  -7.7330600055186359e-05 6.1214246237369522e-03 0.0000000000000000e+00  -1.1345530374195426e-05 5.9241378874456503e-03 0.0000000000000000e+00  8.8946619271475569e-05 5.7223876500145741e-03 0.0000000000000000e+00  2.2292795193988715e-04 5.5141998277728104e-03 0.0000000000000000e+00  3.9447566891334960e-04 5.2982409102185907e-03 0.0000000000000000e+00  6.0361790194776710e-04 5.0763127570023743e-03 0.0000000000000000e+00  8.5196271326238465e-04 4.8313429951141905e-03 0.0000000000000000e+00  1.1637131177686618e-03 4.5644760657070861e-03 0.0000000000000000e+00  1.5609459893798389e-03 4.2710058280576403e-03 0.0000000000000000e+00  2.0599704792765424e-03 3.9870946366410455e-03 0.0000000000000000e+00  2.6067578441050154e-03 3.7681386102780194e-03 0.0000000000000000e+00  3.0300975646373016e-03 3.6643919441663388e-03 0.0000000000000000e+00  3.0300513498020738e-03 3.6383034567687984e-03 0.0000000000000000e+00  2.6797058850202447e-03 3.4830669558182366e-03 0.0000000000000000e+00  2.2776553746713174e-03 3.1924782385351355e-03 0.0000000000000000e+00  2.0409316815334544e-03 2.7944794359881400e-03 0.0000000000000000e+00  1.9282988605926811e-03 2.5197210706457379e-03 0.0000000000000000e+00  1.5753271793543483e-03 2.2769587960329500e-03 0.0000000000000000e+00  1.2692305367664370e-03 1.9500358220131710e-03 0.0000000000000000e+00  1.0589537629328489e-03 1.7102139562431894e-03 0.0000000000000000e+00  8.5008381281298864e-04 1.5015003571343150e-03 0.0000000000000000e+00  6.5473795144611814e-04 1.3052122192070536e-03 0.0000000000000000e+00  4.8028814616097850e-04 1.1106624898706374e-03 0.0000000000000000e+00  3.3380622657032746e-04 9.1980980852754120e-04 0.0000000000000000e+00  2.1769572047620212e-04 7.2623200540179560e-04 0.0000000000000000e+00  1.3255806512579325e-04 5.4213866688176667e-04 0.0000000000000000e+00  7.3827463483681200e-05 3.5179102096819718e-04 0.0000000000000000e+00  4.8695094981298401e-05 1.8268685571650080e-04 0.0000000000000000e+00  -7.5836077477740079e-04 1.8907255469052079e-04 0.0000000000000000e+00  -7.9958009281030473e-04 3.8150058346496336e-04 0.0000000000000000e+00  -8.6886780188636455e-04 5.7863715844759707e-04 0.0000000000000000e+00  -9.7204546267566530e-04 7.8486767941559731e-04 0.0000000000000000e+00  -1.1146997083910804e-03 1.0018579728975081e-03 0.0000000000000000e+00  -1.3062455071933185e-03 1.2306887850887481e-03 0.0000000000000000e+00  -1.5512540912329081e-03 1.4652853376879355e-03 0.0000000000000000e+00  -1.8604316297814135e-03 1.7096023882870884e-03 0.0000000000000000e+00  -2.2306076245859827e-03 1.9353058810107279e-03 0.0000000000000000e+00  -2.6256773252506058e-03 2.1207662935483151e-03 0.0000000000000000e+00  -2.9675601029059968e-03 2.2459523299519458e-03 0.0000000000000000e+00  -3.1683089535992134e-03 2.3405972040335885e-03 0.0000000000000000e+00  -3.2121145778155938e-03 2.4688342934287718e-03 0.0000000000000000e+00  -3.1929585594068078e-03 2.7236039139160008e-03 0.0000000000000000e+00  -3.4107517317282241e-03 3.0766943303325348e-03 0.0000000000000000e+00  -3.1582139195709762e-03 3.1706372985508590e-03 0.0000000000000000e+00  -2.4830463366202426e-03 4.0339506158827698e-03 0.0000000000000000e+00  -2.4997025285917436e-03 4.3287169537821208e-03 0.0000000000000000e+00  -2.4263148905179222e-03 4.4827196648017454e-03 0.0000000000000000e+00  -2.1957853418509490e-03 4.6331254691253558e-03 0.0000000000000000e+00  -1.9208445248706837e-03 4.8207804909267578e-03 0.0000000000000000e+00  -1.6765825318711795e-03 5.0266045454209710e-03 0.0000000000000000e+00  -1.4691280119385908e-03 5.2252932761501693e-03 0.0000000000000000e+00  -1.2957006416875797e-03 5.4221616890884625e-03 0.0000000000000000e+00  -1.1605230835418218e-03 5.6165416255645525e-03 0.0000000000000000e+00  -1.0599490747413114e-03 5.8024649803260454e-03 0.0000000000000000e+00  -9.8609410023577028e-04 5.9819485445069412e-03 0.0000000000000000e+00  -9.3560973221257378e-04 6.1562129763908487e-03 0.0000000000000000e+00  -9.0464916522367187e-04 6.3285416950575116e-03 0.0000000000000000e+00  -8.4851691988437701e-04 6.5000000000000006e-03 0.0000000000000000e+00  -8.0618785230432107e-04 6.5000000000000006e-03 0.0000000000000000e+00  -7.7167258840133183e-04 6.5000000000000006e-03 0.0000000000000000e+00  -7.4270727997193594e-04 6.5000000000000006e-03 0.0000000000000000e+00  -7.1783734708017204e-04 6.5000000000000006e-03 0.0000000000000000e+00  -6.9574544085873634e-04 6.5000000000000006e-03 0.0000000000000000e+00  -6.7760762602555311e-04 6.5000000000000006e-03 0.0000000000000000e+00  -6.6470443358999519e-04 6.5000000000000006e-03 0.0000000000000000e+00  -6.5464947363662112e-04 6.5000000000000006e-03 0.0000000000000000e+00  -6.4859947403642093e-04 6.5000000000000006e-03 0.0000000000000000e+00  -6.3940777757722780e-04 6.5000000000000006e-03 0.0000000000000000e+00  -6.2797846016661787e-04 6.5000000000000006e-03 0.0000000000000000e+00  -6.1297160356695935e-04 6.5000000000000006e-03 0.0000000000000000e+00  -5.9632613442798436e-04 6.5000000000000006e-03 0.0000000000000000e+00  -5.7936075290410279e-04 6.5000000000000006e-03 0.0000000000000000e+00  -5.5782833189728441e-04 6.5000000000000006e-03 0.0000000000000000e+00  -5.2884209851885536e-04 6.5000000000000006e-03 0.0000000000000000e+00  -4.8663636591181114e-04 6.5000000000000006e-03 0.0000000000000000e+00  -4.3664206754403899e-04 6.5000000000000006e-03 0.0000000000000000e+00  -3.9399036952767093e-04 6.5000000000000006e-03 0.0000000000000000e+00  -3.6796952779239573e-04 6.5000000000000006e-03 0.0000000000000000e+00  -3.4440712008711215e-04 6.5000000000000006e-03 0.0000000000000000e+00  -3.1498554443541119e-04 6.5000000000000006e-03 0.0000000000000000e+00  -2.9290662182495563e-04 6.5000000000000006e-03 0.0000000000000000e+00  -2.8233542429855429e-04 6.5000000000000006e-03 0.0000000000000000e+00  -2.6854009367540082e-04 6.5000000000000006e-03 0.0000000000000000e+00  -2.5093083952576245e-04 6.5000000000000006e-03 0.0000000000000000e+00  -2.2121769087870809e-04 6.5000000000000006e-03 0.0000000000000000e+00  -1.7889575918829224e-04 6.5000000000000006e-03 0.0000000000000000e+00  -1.1513568956207467e-03 1.6735348013391415e-03 0.0000000000000000e+00  -1.0808336169629360e-03 1.7729797362191248e-03 0.0000000000000000e+00  -1.0007462107253704e-03 1.8720130613875318e-03 0.0000000000000000e+00  -9.1506793391445530e-04 1.9649406710998763e-03 0.0000000000000000e+00  -8.2485535324270190e-04 2.0583866870404616e-03 0.0000000000000000e+00  -7.3191537801207485e-04 2.1448747437757053e-03 0.0000000000000000e+00  -6.4021704823312431e-04 2.2233355378373618e-03 0.0000000000000000e+00  -5.5491828358221538e-04 2.2931367188396140e-03 0.0000000000000000e+00  -4.7706462918270808e-04 2.3515996750679792e-03 0.0000000000000000e+00  -4.1249528525428116e-04 2.3975152245136288e-03 0.0000000000000000e+00  -3.6234391908374037e-04 2.4328411219849393e-03 0.0000000000000000e+00  -3.2838225850555583e-04 2.4574043090742257e-03 0.0000000000000000e+00  -3.1226477035036561e-04 2.4737506474167459e-03 0.0000000000000000e+00  -3.1266298193118112e-04 2.4842093341451593e-03 0.0000000000000000e+00  -3.3055126634805337e-04 2.4899014098092066e-03 0.0000000000000000e+00  -3.6443643554765658e-04 2.4992399031949493e-03 0.0000000000000000e+00  -4.0740184283435553e-04 2.5173634896706542e-03 0.0000000000000000e+00  -4.5257952410757114e-04 2.5475755878303979e-03 0.0000000000000000e+00  -4.9553594765918633e-04 2.5920549370103620e-03 0.0000000000000000e+00  -5.3158084214916012e-04 2.6467691798062790e-03 0.0000000000000000e+00  -5.6221687549776840e-04 2.7133209829512460e-03 0.0000000000000000e+00  -5.8530071407354842e-04 2.7885148071942652e-03 0.0000000000000000e+00  -6.0081911779947595e-04 2.8710268073015082e-03 0.0000000000000000e+00  -6.0915092225757156e-04 2.9587275859994204e-03 0.0000000000000000e+00  -6.1024905614881888e-04 3.0486648865205037e-03 0.0000000000000000e+00  -6.0500250129108383e-04 3.1380443246950395e-03 0.0000000000000000e+00  -5.9321679327593282e-04 3.2240197939021609e-03 0.0000000000000000e+00  -5.7822646303458197e-04 3.3040055044376388e-03 0.0000000000000000e+00  -5.5979077837066274e-04 3.3775179987700693e-03 0.0000000000000000e+00  -5.3894121448809442e-04 3.4437738998373177e-03 0.0000000000000000e+00  -5.1629925528574113e-04 3.5030877179092583e-03 0.0000000000000000e+00  -4.8998075658508494e-04 3.5571174904395347e-03 0.0000000000000000e+00  -4.5763488472118287e-04 3.6044417552576324e-03 0.0000000000000000e+00  -4.1489264507854433e-04 3.6437561128940120e-03 0.0000000000000000e+00  -3.5565103012843226e-04 3.6681174223395395e-03 0.0000000000000000e+00  -2.7949682966099660e-04 3.6699170043367341e-03 0.0000000000000000e+00  -1.8703001633701868e-04 3.6455247409576167e-03 0.0000000000000000e+00  -7.8554404772003113e-05 3.5934821462217745e-03 0.0000000000000000e+00  4.5370607535960017e-05 3.5132989333662231e-03 0.0000000000000000e+00  1.8334774665997573e-04 3.4030424357484783e-03 0.0000000000000000e+00  3.3263662764351868e-04 3.2636140051131466e-03 0.0000000000000000e+00  4.8845898034910386e-04 3.0947178758922562e-03 0.0000000000000000e+00  6.4155418198644416e-04 2.9026127281923365e-03 0.0000000000000000e+00  7.8852437914715798e-04 2.6934406845837804e-03 0.0000000000000000e+00  9.2205277056901704e-04 2.4758121739469237e-03 0.0000000000000000e+00  1.0316341461225000e-03 2.2545900179942028e-03 0.0000000000000000e+00  1.1219819275782854e-03 2.0475037462590918e-03 0.0000000000000000e+00  1.1905104680308121e-03 1.8516251234197778e-03 0.0000000000000000e+00  1.2382816471065120e-03 1.6726483815481862e-03 0.0000000000000000e+00  1.2693618144708711e-03 1.5114828861609482e-03 0.0000000000000000e+00  1.2839524263678832e-03 1.3636053940343379e-03 0.0000000000000000e+00  1.2840486089232116e-03 1.2305026291013561e-03 0.0000000000000000e+00  1.2671197059111066e-03 1.1056171815520854e-03 0.0000000000000000e+00  1.2315094390512170e-03 9.9124166345280150e-04 0.0000000000000000e+00  1.1774092254362113e-03 8.8770278977354884e-04 0.0000000000000000e+00  1.1062670277814479e-03 7.9485535427366435e-04 0.0000000000000000e+00  1.0239233239124526e-03 7.1432918150843956e-04 0.0000000000000000e+00  9.3695429478373869e-04 6.4373008969660118e-04 0.0000000000000000e+00  8.4823525460635068e-04 5.7590026388164588e-04 0.0000000000000000e+00  7.5734308532017936e-04 5.0979350720017382e-04 0.0000000000000000e+00  6.6164679671489881e-04 4.4150220049403102e-04 0.0000000000000000e+00  5.5771573950070489e-04 3.7355390514515451e-04 0.0000000000000000e+00  4.4885719030958015e-04 3.1650794316753268e-04 0.0000000000000000e+00  3.4684354309009530e-04 2.7025820771545497e-04 0.0000000000000000e+00  2.5983704745100061e-04 2.3735944780675812e-04 0.0000000000000000e+00  1.9266768646103788e-04 2.1059848010212339e-04 0.0000000000000000e+00  1.4253037674548128e-04 1.8750194995897790e-04 0.0000000000000000e+00  1.0447124764668073e-04 1.6353093729833362e-04 0.0000000000000000e+00  7.3523957304653660e-05 1.3990056077359603e-04 0.0000000000000000e+00  4.6047536634346045e-05 1.1607020141788818e-04 0.0000000000000000e+00  2.0775338795196904e-05 9.4162956137100088e-05 0.0000000000000000e+00  -3.2357938224528393e-06 7.3908442079878399e-05 0.0000000000000000e+00  -2.6081661568236215e-05 5.6319924020104159e-05 0.0000000000000000e+00  -4.7727390125312296e-05 4.1020365131081678e-05 0.0000000000000000e+00  -6.8199493148873004e-05 2.8809754871331691e-05 0.0000000000000000e+00  -8.7172374763818216e-05 1.8538791751376729e-05 0.0000000000000000e+00  -1.0479704031352278e-04 1.1097126281012984e-05 0.0000000000000000e+00  -1.2085535538107248e-04 5.3776289578488709e-06 0.0000000000000000e+00  -1.3537998181797521e-04 1.5409574718178958e-06 0.0000000000000000e+00  -1.4886686272405246e-04 -7.4371571322934074e-07 0.0000000000000000e+00  -1.6072689652439189e-04 -1.7982125655847133e-06 0.0000000000000000e+00  -1.7172316252970693e-04 -1.9766165527071613e-06 0.0000000000000000e+00  -1.8151605676603149e-04 -1.4492256573232274e-06 0.0000000000000000e+00  -1.9064056275769594e-04 -5.4554639012091463e-07 0.0000000000000000e+00  -1.9897781611504978e-04 6.3281147198881907e-07 0.0000000000000000e+00  -2.0703241630318906e-04 1.8341173624719846e-06 0.0000000000000000e+00  -2.1464269815774591e-04 3.1122462865033608e-06 0.0000000000000000e+00  -2.2210409084264324e-04 4.2510912830879403e-06 0.0000000000000000e+00  -2.2957820012767198e-04 5.4374145854174810e-06 0.0000000000000000e+00  -2.3707890446646700e-04 6.6726769885616977e-06 0.0000000000000000e+00  -2.4474138037044714e-04 8.1716696955469952e-06 0.0000000000000000e+00  -2.5236717228235833e-04 1.0022573500444074e-05 0.0000000000000000e+00  -2.6024060078306253e-04 1.2492095396661055e-05 0.0000000000000000e+00  -2.6816907379474951e-04 1.6132452191831977e-05 0.0000000000000000e+00  -2.7550226379066721e-04 2.0739385084524593e-05 0.0000000000000000e+00  -2.8272907631157518e-04 2.6831091345118021e-05 0.0000000000000000e+00  -2.8872887312850730e-04 3.4327980119146032e-05 0.0000000000000000e+00  -2.9391438178576234e-04 4.3182583326134453e-05 0.0000000000000000e+00  -2.9809709051870911e-04 5.3211374550489124e-05 0.0000000000000000e+00  -3.0106859271362767e-04 6.4454655614840862e-05 0.0000000000000000e+00  -3.0443257492315161e-04 7.5883488048473385e-05 0.0000000000000000e+00  -3.0880246823878407e-04 8.8421073250057332e-05 0.0000000000000000e+00  -3.2027204214782475e-04 1.0064991889694174e-04 0.0000000000000000e+00  -3.3964645428541417e-04 1.1882606724071880e-04 0.0000000000000000e+00  -3.7565403355456045e-04 1.4236544770959190e-04 0.0000000000000000e+00  -4.2531470442437635e-04 1.8146494965743792e-04 0.0000000000000000e+00  -4.8966399665467284e-04 2.3532445882792246e-04 0.0000000000000000e+00  -5.5957139758426458e-04 3.0341057350773663e-04 0.0000000000000000e+00  -6.3302518289009484e-04 3.7846023993447475e-04 0.0000000000000000e+00  -7.0953020826693765e-04 4.5481000333087745e-04 0.0000000000000000e+00  -7.9625121115448267e-04 5.3143285734799130e-04 0.0000000000000000e+00  -8.9264163071483844e-04 6.1574233223342953e-04 0.0000000000000000e+00  -9.9701143964682102e-04 7.1095563809523809e-04 0.0000000000000000e+00  -1.0985073508501079e-03 8.2083845026385957e-04 0.0000000000000000e+00  -1.1856745512958246e-03 9.4483852756959915e-04 0.0000000000000000e+00  -1.2480066081536757e-03 1.0749860424019262e-03 0.0000000000000000e+00  -1.2805005786599129e-03 1.2073264575913774e-03 0.0000000000000000e+00  -1.2814308780587885e-03 1.3381348743951328e-03 0.0000000000000000e+00  -1.2575729185590892e-03 1.4561120910666068e-03 0.0000000000000000e+00  1.3026639676880817e-03 9.6178150731305462e-04 0.0000000000000000e+00  1.2873780081944191e-03 9.4037598505628049e-04 0.0000000000000000e+00  1.2430491129950651e-03 9.0875176031848554e-04 0.0000000000000000e+00  1.1773664190795365e-03 8.776