<?xml version="1.0"?>
<VTKFile type="UnstructuredGrid"  version="0.1"  >
<UnstructuredGrid>
<Piece  NumberOfPoints="3879" NumberOfCells="6881">
<Points>
<DataArray  type="Float64"  NumberOfComponents="3"  format="ascii">0.207524190028372 0.2122422770132111 0  0 0 0  1 0 0  0 1 0  1 1 0  0.6249674373315121 0.2590146544375328 0  0.204663578893616 0.322657230836866 0  0.09605577522599912 0.4018360776629776 0  0.671351124618251 0.08738059142081528 0  0.7842102907526436 0.1666439122351055 0  0.8512483166984784 0.1985391006160637 0  0.6418797837909295 0.4423157172830166 0  0.9292488447973215 0.3869277868069776 0  0.3197896119137055 0.5509935221980964 0  0.3979283685568406 0.5079871620336583 0  0.1572503457993085 0.7345153245035532 0  0.3032914287999163 0.7872981443735918 0  0.3549464687598876 0.8870324161721976 0  0.9691791685505482 0.5159450047798622 0  0.9447564590470373 0.6146164845729313 0  0.7687603548175107 0.7176858127488035 0  0.8926159261971183 0.7422924070424508 0  0.2061587782631535 0.2217389244366831 0  0.2021731605082994 0.2304662099646423 0  0.1958902278109265 0.2377171008267789 0  0.1878189860121365 0.2429041729681512 0  0.1786133191209442 0.2456072006525708 0  0.1690190155206647 0.2456072006525708 0  0.1598133486294724 0.2429041729681512 0  0.1517421068306824 0.2377171008267789 0  0.1454591741333096 0.2304662099646422 0  0.1414735563784554 0.221738924436683 0  0.1401081446132369 0.212242277013211 0  0.1414735563784555 0.202745629589739 0  0.1454591741333096 0.1940183440617798 0  0.1517421068306825 0.1867674531996431 0  0.1598133486294725 0.1815803810582709 0  0.1690190155206649 0.1788773533738513 0  0.1786133191209443 0.1788773533738514 0  0.1878189860121367 0.181580381058271 0  0.1958902278109266 0.1867674531996433 0  0.2021731605082994 0.19401834406178 0  0.2061587782631535 0.2027456295897391 0  0.03333333333333333 0 0  0.06666666666666667 0 0  0.1 0 0  0.1333333333333333 0 0  0.1666666666666667 0 0  0.2 0 0  0.2333333333333333 0 0  0.2666666666666667 0 0  0.3 0 0  0.3333333333333333 0 0  0.3666666666666666 0 0  0.4 0 0  0.4333333333333333 0 0  0.4666666666666667 0 0  0.5 0 0  0.5333333333333333 0 0  0.5666666666666667 0 0  0.6 0 0  0.6333333333333333 0 0  0.6666666666666666 0 0  0.7 0 0  0.7333333333333333 0 0  0.7666666666666667 0 0  0.8 0 0  0.8333333333333334 0 0  0.8666666666666667 0 0  0.9 0 0  0.9333333333333333 0 0  0.9666666666666667 0 0  0 0.9666666666666667 0  0 0.9333333333333333 0  0 0.9 0  0 0.8666666666666667 0  0 0.8333333333333334 0  0 0.8 0  0 0.7666666666666666 0  0 0.7333333333333334 0  0 0.7 0  0 0.6666666666666667 0  0 0.6333333333333333 0  0 0.6 0  0 0.5666666666666667 0  0 0.5333333333333333 0  0 0.5 0  0 0.4666666666666667 0  0 0.4333333333333333 0  0 0.4 0  0 0.3666666666666667 0  0 0.3333333333333334 0  0 0.3 0  0 0.2666666666666667 0  0 0.2333333333333333 0  0 0.2 0  0 0.1666666666666666 0  0 0.1333333333333333 0  0 0.09999999999999998 0  0 0.06666666666666665 0  0 0.03333333333333333 0  1 0.03333333333333333 0  1 0.06666666666666667 0  1 0.1 0  1 0.1333333333333333 0  1 0.1666666666666667 0  1 0.2 0  1 0.2333333333333333 0  1 0.2666666666666667 0  1 0.3 0  1 0.3333333333333333 0  1 0.3666666666666666 0  1 0.4 0  1 0.4333333333333333 0  1 0.4666666666666667 0  1 0.5 0  1 0.5333333333333333 0  1 0.5666666666666667 0  1 0.6 0  1 0.6333333333333333 0  1 0.6666666666666666 0  1 0.7 0  1 0.7333333333333333 0  1 0.7666666666666667 0  1 0.8 0  1 0.8333333333333334 0  1 0.8666666666666667 0  1 0.9 0  1 0.9333333333333333 0  1 0.9666666666666667 0  0.9666666666666667 1 0  0.9333333333333333 1 0  0.9 1 0  0.8666666666666667 1 0  0.8333333333333334 1 0  0.8 1 0  0.7666666666666666 1 0  0.7333333333333334 1 0  0.7 1 0  0.6666666666666667 1 0  0.6333333333333333 1 0  0.6 1 0  0.5666666666666667 1 0  0.5333333333333333 1 0  0.5 1 0  0.4666666666666667 1 0  0.4333333333333333 1 0  0.4 1 0  0.3666666666666667 1 0  0.3333333333333334 1 0  0.3 1 0  0.2666666666666667 1 0  0.2333333333333333 1 0  0.2 1 0  0.1666666666666666 1 0  0.1333333333333333 1 0  0.09999999999999998 1 0  0.06666666666666665 1 0  0.03333333333333333 1 0  0.6247072676344306 0.2689501343248463 0  0.6239274716502419 0.2788583817523955 0  0.6226301867455355 0.2887122389026952 0  0.6208189686880621 0.2984846970382296 0  0.6184987819006211 0.3081489705305245 0  0.6156759858539226 0.317678570277693 0  0.6123583176357204 0.3270473763092224 0  0.6085548707439923 0.3362297093789981 0  0.6042760701622942 0.3452004013503318 0  0.5995336437856049 0.3539348641800754 0  0.5943405902749808 0.3624091573127375 0  0.5887111434291297 0.3706000532998825 0  0.582660733170558 0.3784851014649517 0  0.5762059432532257 0.3860426894390078 0  0.5693644658076293 0.3932521023987353 0  0.5621550528479018 0.4000935798443317 0  0.5545974648738458 0.4065483697616639 0  0.5467124167087765 0.4125987800202355 0  0.5385215207216315 0.4182282268660866 0  0.5300472275889694 0.4234212803767108 0  0.5213127647592257 0.4281637067534002 0  0.512342072787892 0.4324425073350981 0  0.5031597397181163 0.4362459542268262 0  0.493790933686587 0.4395636224450283 0  0.4842613339394185 0.4423864184917269 0  0.4745970604471235 0.4447066052791678 0  0.4648246023115891 0.4465178233366412 0  0.4549707451612894 0.4478151082413475 0  0.4450624977337403 0.4485949042255363 0  0.4351270178464268 0.4488550739226177 0  0.4251915379591132 0.4485949042255363 0  0.4152832905315641 0.4478151082413475 0  0.4054294333812644 0.4465178233366411 0  0.39565697524573 0.4447066052791677 0  0.385992701753435 0.4423864184917267 0  0.3764631020062665 0.4395636224450281 0  0.3670942959747371 0.4362459542268259 0  0.3579119629049616 0.4324425073350978 0  0.3489412709336278 0.4281637067533998 0  0.3402068081038843 0.4234212803767103 0  0.3317325149712221 0.4182282268660862 0  0.3235416189840771 0.412598780020235 0  0.3156565708190078 0.4065483697616634 0  0.3080989828449519 0.4000935798443311 0  0.3008895698852244 0.3932521023987346 0  0.2940480924396279 0.3860426894390071 0  0.2875933025222958 0.3784851014649511 0  0.2815428922637242 0.3706000532998818 0  0.2759134454178731 0.3624091573127368 0  0.2707203919072489 0.3539348641800746 0  0.2659779655305596 0.3452004013503309 0  0.2616991649488616 0.3362297093789972 0  0.2578957180571336 0.3270473763092215 0  0.2545780498389315 0.3176785702776921 0  0.251755253792233 0.3081489705305236 0  0.249435067004792 0.2984846970382286 0  0.2476238489473186 0.2887122389026941 0  0.2463265640426123 0.2788583817523945 0  0.2455467680584236 0.2689501343248454 0  0.2452865983613423 0.2590146544375318 0  0.2455467680584237 0.2490791745502182 0  0.2463265640426126 0.2391709271226692 0  0.247623848947319 0.2293170699723696 0  0.2494350670047924 0.2195446118368351 0  0.2517552537922335 0.2098803383445402 0  0.2545780498389321 0.2003507385973717 0  0.2578957180571343 0.1909819325658423 0  0.2616991649488624 0.1817995994960667 0  0.2659779655305604 0.172828907524733 0  0.2707203919072498 0.1640944446949895 0  0.2759134454178741 0.1556201515623273 0  0.2815428922637251 0.1474292555751825 0  0.2875933025222969 0.1395442074101132 0  0.2940480924396291 0.1319866194360571 0  0.3008895698852256 0.1247772064763297 0  0.3080989828449531 0.1179357290307334 0  0.3156565708190092 0.1114809391134012 0  0.3235416189840785 0.1054305288548295 0  0.3317325149712236 0.09980108200897844 0  0.3402068081038856 0.0946080284983544 0  0.3489412709336291 0.08986560212166514 0  0.357911962904963 0.08558680153996717 0  0.3670942959747386 0.08178335464823916 0  0.3764631020062678 0.07846568643003712 0  0.3859927017534364 0.0756428903833386 0  0.3956569752457313 0.0733227035958976 0  0.4054294333812659 0.07151148553842429 0  0.4152832905315654 0.07021420063371797 0  0.4251915379591144 0.0694344046495293 0  0.435127017846428 0.0691742349524479 0  0.4450624977337415 0.06943440464952938 0  0.4549707451612905 0.07021420063371814 0  0.4648246023115901 0.07151148553842454 0  0.4745970604471245 0.07332270359589793 0  0.4842613339394195 0.07564289038333902 0  0.4937909336865879 0.07846568643003757 0  0.5031597397181173 0.0817833546482398 0  0.5123420727878929 0.08558680153996781 0  0.5213127647592265 0.08986560212166581 0  0.53004722758897 0.0946080284983552 0  0.5385215207216321 0.09980108200897933 0  0.5467124167087771 0.1054305288548305 0  0.5545974648738462 0.1114809391134021 0  0.5621550528479023 0.1179357290307343 0  0.5693644658076298 0.1247772064763308 0  0.576205943253226 0.1319866194360582 0  0.5826607331705582 0.1395442074101142 0  0.5887111434291299 0.1474292555751835 0  0.594340590274981 0.1556201515623285 0  0.5995336437856051 0.1640944446949906 0  0.6042760701622945 0.172828907524734 0  0.6085548707439925 0.1817995994960678 0  0.6123583176357205 0.1909819325658435 0  0.6156759858539227 0.2003507385973728 0  0.6184987819006211 0.2098803383445412 0  0.6208189686880622 0.2195446118368362 0  0.6226301867455355 0.2293170699723706 0  0.6239274716502419 0.2391709271226702 0  0.6247072676344306 0.2490791745502192 0  0.203885768735257 0.3325402459548524 0  0.2015714905276826 0.3421799084407872 0  0.1977777294810124 0.3513388578120612 0  0.1925979005829864 0.3597915703383434 0  0.1861595484119405 0.3673299121842922 0  0.1786212065659918 0.373768264355338 0  0.1701684940397096 0.378948093253364 0  0.1610095446684356 0.3827418543000342 0  0.1513698821825007 0.3850561325076086 0  0.1414868670645144 0.3858339426659677 0  0.1316038519465281 0.3850561325076086 0  0.1219641894605933 0.3827418543000343 0  0.1128052400893193 0.378948093253364 0  0.1043525275630371 0.3737682643553381 0  0.09681418571708833 0.3673299121842922 0  0.09037583354604248 0.3597915703383434 0  0.08519600464801645 0.3513388578120612 0  0.08140224360134621 0.3421799084407872 0  0.07908796539377183 0.3325402459548523 0  0.07831015523541281 0.3226572308368659 0  0.07908796539377186 0.3127742157188796 0  0.08140224360134626 0.3031345532329447 0  0.08519600464801655 0.2939756038616707 0  0.0903758335460426 0.2855228913353884 0  0.0968141857
[...]
<PointData  Vectors="$u$"> 
<DataArray  type="Float64"  Name="$u$"  NumberOfComponents="3" format="ascii">1.9598739363081325e-04 3.6872377877075220e-04 0.0000000000000000e+00  0.0000000000000000e+00 0.0000000000000000e+00 0.0000000000000000e+00  -4.4914715929153461e-04 0.0000000000000000e+00 0.0000000000000000e+00  -6.1690888569344244e-05 4.0000000000000001e-03 0.0000000000000000e+00  -5.2572924086874450e-04 4.0000000000000001e-03 0.0000000000000000e+00  -7.4337945458522706e-04 9.5640251431169314e-04 0.0000000000000000e+00  7.7334140639629745e-04 6.0118398583774838e-04 0.0000000000000000e+00  6.6969983596048221e-04 1.1345304957499839e-03 0.0000000000000000e+00  -3.9572971883150912e-04 1.3797265755754882e-04 0.0000000000000000e+00  -6.0448779627650102e-04 1.7733759856544210e-05 0.0000000000000000e+00  -6.9398109516289263e-04 1.4482113450133721e-04 0.0000000000000000e+00  -1.0351407296249752e-04 1.5631279274542097e-03 0.0000000000000000e+00  -1.8319087793645819e-03 1.2350983342378254e-03 0.0000000000000000e+00  -2.9248560761069504e-04 2.4529736414706403e-03 0.0000000000000000e+00  -2.3111230326333191e-04 2.2011292923165347e-03 0.0000000000000000e+00  5.6542278744919623e-04 3.7958890873976288e-03 0.0000000000000000e+00  2.1381990116613628e-04 3.2062769832482039e-03 0.0000000000000000e+00  -3.0091998846366571e-04 3.8336877523662953e-03 0.0000000000000000e+00  -1.9375059614095201e-03 2.1102883150394369e-03 0.0000000000000000e+00  -1.4990531463460431e-03 2.7714611853555614e-03 0.0000000000000000e+00  -1.0150832634801480e-03 3.6392978668091428e-03 0.0000000000000000e+00  -9.2078444730864435e-04 3.5504019073182009e-03 0.0000000000000000e+00  2.6167219653720221e-04 4.3384119752606085e-04 0.0000000000000000e+00  3.3050771133937793e-04 4.9184444436543590e-04 0.0000000000000000e+00  3.9105725881027128e-04 5.3978966100269674e-04 0.0000000000000000e+00  4.3733400402463609e-04 5.6062764503501006e-04 0.0000000000000000e+00  4.6968022191589559e-04 5.4963272492635504e-04 0.0000000000000000e+00  4.7520092297770637e-04 4.9439371833894658e-04 0.0000000000000000e+00  4.6293389590269991e-04 4.1413244619554525e-04 0.0000000000000000e+00  4.2545459225779003e-04 3.4654874532925113e-04 0.0000000000000000e+00  3.7026745818801392e-04 3.0886472279508345e-04 0.0000000000000000e+00  3.2001348453011646e-04 2.8872303244817599e-04 0.0000000000000000e+00  2.6899042988551969e-04 2.6372804397918430e-04 0.0000000000000000e+00  2.2357944805963541e-04 2.4083104495782468e-04 0.0000000000000000e+00  1.8241476767028245e-04 2.1426918271466786e-04 0.0000000000000000e+00  1.4717741799215848e-04 1.9027266730761274e-04 0.0000000000000000e+00  1.1644685712050808e-04 1.7418282945771616e-04 0.0000000000000000e+00  9.5709675458334489e-05 1.6719581881665475e-04 0.0000000000000000e+00  8.1269675799227665e-05 1.7164221254971742e-04 0.0000000000000000e+00  7.7735592215254565e-05 1.8798027980455027e-04 0.0000000000000000e+00  8.6906248207992650e-05 2.1650665384618012e-04 0.0000000000000000e+00  1.0725004041329644e-04 2.5557869582182687e-04 0.0000000000000000e+00  1.4418691159916744e-04 3.0751523239856530e-04 0.0000000000000000e+00  0.0000000000000000e+00 0.0000000000000000e+00 0.0000000000000000e+00  -3.9363080443914458e-05 0.0000000000000000e+00 0.0000000000000000e+00  -5.4833474829109390e-05 0.0000000000000000e+00 0.0000000000000000e+00  -7.1612383530229349e-05 0.0000000000000000e+00 0.0000000000000000e+00  -8.3669620484605565e-05 0.0000000000000000e+00 0.0000000000000000e+00  -9.4635778023689979e-05 0.0000000000000000e+00 0.0000000000000000e+00  -1.0386194626446480e-04 0.0000000000000000e+00 0.0000000000000000e+00  -1.1225648969780344e-04 0.0000000000000000e+00 0.0000000000000000e+00  -1.1857006974821201e-04 0.0000000000000000e+00 0.0000000000000000e+00  -1.2274304305183085e-04 0.0000000000000000e+00 0.0000000000000000e+00  -1.2654195121893156e-04 0.0000000000000000e+00 0.0000000000000000e+00  -1.3205306373416443e-04 0.0000000000000000e+00 0.0000000000000000e+00  -1.3895746094474428e-04 0.0000000000000000e+00 0.0000000000000000e+00  -1.4748012063997267e-04 0.0000000000000000e+00 0.0000000000000000e+00  -1.5816232838791562e-04 0.0000000000000000e+00 0.0000000000000000e+00  -1.7593034780300079e-04 0.0000000000000000e+00 0.0000000000000000e+00  -2.0414120596914235e-04 0.0000000000000000e+00 0.0000000000000000e+00  -2.4224288525646280e-04 0.0000000000000000e+00 0.0000000000000000e+00  -2.6969154396372694e-04 0.0000000000000000e+00 0.0000000000000000e+00  -2.9352313673072203e-04 0.0000000000000000e+00 0.0000000000000000e+00  -3.2622576063744873e-04 0.0000000000000000e+00 0.0000000000000000e+00  -3.4763395898166212e-04 0.0000000000000000e+00 0.0000000000000000e+00  -3.5325478886488021e-04 0.0000000000000000e+00 0.0000000000000000e+00  -3.5332349991659857e-04 0.0000000000000000e+00 0.0000000000000000e+00  -3.5319614334643857e-04 0.0000000000000000e+00 0.0000000000000000e+00  -3.5971463886814894e-04 0.0000000000000000e+00 0.0000000000000000e+00  -3.6962509696858599e-04 0.0000000000000000e+00 0.0000000000000000e+00  -3.8969445856420261e-04 0.0000000000000000e+00 0.0000000000000000e+00  -4.1636085277582224e-04 0.0000000000000000e+00 0.0000000000000000e+00  -5.4447896094475805e-05 3.8823738201714040e-03 0.0000000000000000e+00  -3.0425653431988826e-05 3.7640127896296743e-03 0.0000000000000000e+00  1.0243332550775512e-05 3.6409927720772338e-03 0.0000000000000000e+00  7.1755517031940366e-05 3.5154853023111922e-03 0.0000000000000000e+00  1.5410169913626621e-04 3.3857455591521663e-03 0.0000000000000000e+00  2.5926139740641062e-04 3.2520309671946980e-03 0.0000000000000000e+00  3.8678006958470652e-04 3.1147159962324942e-03 0.0000000000000000e+00  5.3699394436583286e-04 2.9646769678430911e-03 0.0000000000000000e+00  7.2373734965577559e-04 2.8014306156557431e-03 0.0000000000000000e+00  9.6090708853996322e-04 2.6241626383712371e-03 0.0000000000000000e+00  1.2539455714525867e-03 2.4581824085879570e-03 0.0000000000000000e+00  1.5592505048642035e-03 2.3357241164955124e-03 0.0000000000000000e+00  1.7699777984265335e-03 2.2720647972076079e-03 0.0000000000000000e+00  1.7810736108172156e-03 2.2341353457700662e-03 0.0000000000000000e+00  1.6141166901757677e-03 2.1459174488526215e-03 0.0000000000000000e+00  1.3909063776770690e-03 1.9769857699960345e-03 0.0000000000000000e+00  1.2568985779998995e-03 1.7415443280646863e-03 0.0000000000000000e+00  1.1816102895315227e-03 1.5753560153556616e-03 0.0000000000000000e+00  9.7123927433365490e-04 1.4233856485752626e-03 0.0000000000000000e+00  7.8720140623680305e-04 1.2231034911928513e-03 0.0000000000000000e+00  6.5814286595462551e-04 1.0739267097912969e-03 0.0000000000000000e+00  5.2891948865450736e-04 9.4357185518110381e-04 0.0000000000000000e+00  4.0687281463568082e-04 8.2005728132547183e-04 0.0000000000000000e+00  2.9829670521498442e-04 6.9738860444803358e-04 0.0000000000000000e+00  2.0719366045528082e-04 5.7712949320534051e-04 0.0000000000000000e+00  1.3521530358178325e-04 4.5562202214346012e-04 0.0000000000000000e+00  8.2593709000507826e-05 3.3943702309482574e-04 0.0000000000000000e+00  4.6306274846136295e-05 2.2102673429523156e-04 0.0000000000000000e+00  3.0431915715091696e-05 1.1409536110370594e-04 0.0000000000000000e+00  -4.5664496554877876e-04 1.2142468842317229e-04 0.0000000000000000e+00  -4.8260490192365238e-04 2.4461460000444862e-04 0.0000000000000000e+00  -5.2631642811423686e-04 3.7118250124587278e-04 0.0000000000000000e+00  -5.9144627318055991e-04 5.0352694762511294e-04 0.0000000000000000e+00  -6.8134692326151693e-04 6.4233775994685803e-04 0.0000000000000000e+00  -8.0184176075225554e-04 7.8903535357685789e-04 0.0000000000000000e+00  -9.5614955097976073e-04 9.3943678832704880e-04 0.0000000000000000e+00  -1.1503995898298543e-03 1.0954971241611934e-03 0.0000000000000000e+00  -1.3819827984561789e-03 1.2395904717015505e-03 0.0000000000000000e+00  -1.6269886609999618e-03 1.3582992899363433e-03 0.0000000000000000e+00  -1.8346879193006521e-03 1.4396069832208749e-03 0.0000000000000000e+00  -1.9536222526342073e-03 1.5067227342428621e-03 0.0000000000000000e+00  -1.9770157654654375e-03 1.5946011875855497e-03 0.0000000000000000e+00  -1.9711027239565772e-03 1.7555030026657789e-03 0.0000000000000000e+00  -2.0428223266835185e-03 1.9319627599789287e-03 0.0000000000000000e+00  -1.8523733596625624e-03 2.0531290917675171e-03 0.0000000000000000e+00  -1.6135826623927282e-03 2.3436272464316637e-03 0.0000000000000000e+00  -1.5864330519165723e-03 2.5556339199748692e-03 0.0000000000000000e+00  -1.5206809396972078e-03 2.6697304500514409e-03 0.0000000000000000e+00  -1.3663337571509677e-03 2.7776724609940447e-03 0.0000000000000000e+00  -1.1882233628205919e-03 2.9046973682872244e-03 0.0000000000000000e+00  -1.0305654445229553e-03 3.0399798648521777e-03 0.0000000000000000e+00  -8.9650373522585079e-04 3.1705923365541802e-03 0.0000000000000000e+00  -7.8459139407651844e-04 3.2993136320859226e-03 0.0000000000000000e+00  -6.9717964153878610e-04 3.4259371979414575e-03 0.0000000000000000e+00  -6.3199895884103938e-04 3.5469257030066263e-03 0.0000000000000000e+00  -5.8417338129553009e-04 3.6636971248764491e-03 0.0000000000000000e+00  -5.5160919970591283e-04 3.7771254214900591e-03 0.0000000000000000e+00  -5.3172887623257942e-04 3.8887245727217551e-03 0.0000000000000000e+00  -4.9528638683812723e-04 4.0000000000000001e-03 0.0000000000000000e+00  -4.6797967269538994e-04 4.0000000000000001e-03 0.0000000000000000e+00  -4.4581358902365665e-04 4.0000000000000001e-03 0.0000000000000000e+00  -4.2764561913397964e-04 4.0000000000000001e-03 0.0000000000000000e+00  -4.1227803629032808e-04 4.0000000000000001e-03 0.0000000000000000e+00  -3.9910029593585026e-04 4.0000000000000001e-03 0.0000000000000000e+00  -3.8863577772888143e-04 4.0000000000000001e-03 0.0000000000000000e+00  -3.8148219128846840e-04 4.0000000000000001e-03 0.0000000000000000e+00  -3.7637321662341907e-04 4.0000000000000001e-03 0.0000000000000000e+00  -3.7356367404754845e-04 4.0000000000000001e-03 0.0000000000000000e+00  -3.6888892485936677e-04 4.0000000000000001e-03 0.0000000000000000e+00  -3.6266006434161038e-04 4.0000000000000001e-03 0.0000000000000000e+00  -3.5425545948796194e-04 4.0000000000000001e-03 0.0000000000000000e+00  -3.4480572415665500e-04 4.0000000000000001e-03 0.0000000000000000e+00  -3.3517655093955008e-04 4.0000000000000001e-03 0.0000000000000000e+00  -3.2268265807796265e-04 4.0000000000000001e-03 0.0000000000000000e+00  -3.0562888843358983e-04 4.0000000000000001e-03 0.0000000000000000e+00  -2.8046667383552708e-04 4.0000000000000001e-03 0.0000000000000000e+00  -2.5055569568468110e-04 4.0000000000000001e-03 0.0000000000000000e+00  -2.2507198808447196e-04 4.0000000000000001e-03 0.0000000000000000e+00  -2.0965047216891326e-04 4.0000000000000001e-03 0.0000000000000000e+00  -1.9565581280751325e-04 4.0000000000000001e-03 0.0000000000000000e+00  -1.7792321987078984e-04 4.0000000000000001e-03 0.0000000000000000e+00  -1.6469487580390887e-04 4.0000000000000001e-03 0.0000000000000000e+00  -1.5817368776165132e-04 4.0000000000000001e-03 0.0000000000000000e+00  -1.4957883246642566e-04 4.0000000000000001e-03 0.0000000000000000e+00  -1.3837383948050598e-04 4.0000000000000001e-03 0.0000000000000000e+00  -1.1975303482758513e-04 4.0000000000000001e-03 0.0000000000000000e+00  -9.3233883776215154e-05 4.0000000000000001e-03 0.0000000000000000e+00  -7.0740985165339677e-04 1.0204982914788132e-03 0.0000000000000000e+00  -6.6565087738692044e-04 1.0813150703997921e-03 0.0000000000000000e+00  -6.1812762124391308e-04 1.1417172920592412e-03 0.0000000000000000e+00  -5.6724175708617968e-04 1.1984943697596095e-03 0.0000000000000000e+00  -5.1369938958035306e-04 1.2551956331612369e-03 0.0000000000000000e+00  -4.5860463145142456e-04 1.3077326871489918e-03 0.0000000000000000e+00  -4.0438943263456924e-04 1.3552482650163119e-03 0.0000000000000000e+00  -3.5407947640284652e-04 1.3972826230423171e-03 0.0000000000000000e+00  -3.0843835112325007e-04 1.4323082192534311e-03 0.0000000000000000e+00  -2.7096746767176969e-04 1.4596874860634886e-03 0.0000000000000000e+00  -2.4227284579538395e-04 1.4802538052626562e-03 0.0000000000000000e+00  -2.2362030834844921e-04 1.4944688790277008e-03 0.0000000000000000e+00  -2.1577187218540221e-04 1.5033827384839816e-03 0.0000000000000000e+00  -2.1812531459735286e-04 1.5088894930765425e-03 0.0000000000000000e+00  -2.3107532280431086e-04 1.5116128901460173e-03 0.0000000000000000e+00  -2.5354111481925483e-04 1.5166157131272812e-03 0.0000000000000000e+00  -2.8155591513448264e-04 1.5272396787718557e-03 0.0000000000000000e+00  -3.1064782682123224e-04 1.5453797859005126e-03 0.0000000000000000e+00  -3.3837061415947734e-04 1.5724738014474629e-03 0.0000000000000000e+00  -3.6146824557804395e-04 1.6061192735277333e-03 0.0000000000000000e+00  -3.8128121121567014e-04 1.6472213565717853e-03 0.0000000000000000e+00  -3.9619691834992749e-04 1.6940710088782771e-03 0.0000000000000000e+00  -4.0621535804978711e-04 1.7456476117352438e-03 0.0000000000000000e+00  -4.1158101557459739e-04 1.8006836801942557e-03 0.0000000000000000e+00  -4.1235242914332748e-04 1.8573835199883499e-03 0.0000000000000000e+00  -4.0888319492774216e-04 1.9138817811446016e-03 0.0000000000000000e+00  -4.0136010719384768e-04 1.9684506134694277e-03 0.0000000000000000e+00  -3.9160130657548483e-04 2.0193554696909741e-03 0.0000000000000000e+00  -3.7969668918652773e-04 2.0663386295841899e-03 0.0000000000000000e+00  -3.6619776803626644e-04 2.1087969656762738e-03 0.0000000000000000e+00  -3.5148832819118718e-04 2.1469604706281344e-03 0.0000000000000000e+00  -3.3461801725329673e-04 2.1816974776543404e-03 0.0000000000000000e+00  -3.1413152682179169e-04 2.2123889758672915e-03 0.0000000000000000e+00  -2.8719538202572379e-04 2.2380611493547412e-03 0.0000000000000000e+00  -2.5045709669700185e-04 2.2546301045140767e-03 0.0000000000000000e+00  -2.0326275156797298e-04 2.2575204868985977e-03 0.0000000000000000e+00  -1.4620295386856381e-04 2.2443979427200517e-03 0.0000000000000000e+00  -7.9145864383757362e-05 2.2143929189062353e-03 0.0000000000000000e+00  -2.5393562108146572e-06 2.1668995151810301e-03 0.0000000000000000e+00  8.2783928695659786e-05 2.1009441427039424e-03 0.0000000000000000e+00  1.7541437669397870e-04 2.0167713107385400e-03 0.0000000000000000e+00  2.7206398927460620e-04 1.9140652505493494e-03 0.0000000000000000e+00  3.6715282434065556e-04 1.7968568270044711e-03 0.0000000000000000e+00  4.5875074542628787e-04 1.6687872446969245e-03 0.0000000000000000e+00  5.4178526484270856e-04 1.5350473152434944e-03 0.0000000000000000e+00  6.1001874135467495e-04 1.3989708039167375e-03 0.0000000000000000e+00  6.6632724467660892e-04 1.2715959975991981e-03 0.0000000000000000e+00  7.0904260309907568e-04 1.1510421564625145e-03 0.0000000000000000e+00  7.3901600471441679e-04 1.0410209426793655e-03 0.0000000000000000e+00  7.5868422567110455e-04 9.4210982352421182e-04 0.0000000000000000e+00  7.6848570658036362e-04 8.5180524800408067e-04 0.0000000000000000e+00  7.6959037858691281e-04 7.7021140446035001e-04 0.0000000000000000e+00  7.6064782259089453e-04 6.9390945753748364e-04 0.0000000000000000e+00  7.4068187827611143e-04 6.2379296537130706e-04 0.0000000000000000e+00  7.0974864081473294e-04 5.5993942099453250e-04 0.0000000000000000e+00  6.6857988785062026e-04 5.0229745385349392e-04 0.0000000000000000e+00  6.2053871967761407e-04 4.5202344406914747e-04 0.0000000000000000e+00  5.6948125551415903e-04 4.0742373308457142e-04 0.0000000000000000e+00  5.1695173422098705e-04 3.6466292945011835e-04 0.0000000000000000e+00  4.6281834694527057e-04 3.2284787867078519e-04 0.0000000000000000e+00  4.0524075052736542e-04 2.7950652416745895e-04 0.0000000000000000e+00  3.4220085331204084e-04 2.3698997475090172e-04 0.0000000000000000e+00  2.7608086325432252e-04 2.0070578183411928e-04 0.0000000000000000e+00  2.1377321828915599e-04 1.7149097319281380e-04 0.0000000000000000e+00  1.6044814326787374e-04 1.5023748954263625e-04 0.0000000000000000e+00  1.1914758916552479e-04 1.3323338018120926e-04 0.0000000000000000e+00  8.8278707815381350e-05 1.1822314807850097e-04 0.0000000000000000e+00  6.4741952625759413e-05 1.0308064171967699e-04 0.0000000000000000e+00  4.5537803039192585e-05 8.8018063617938808e-05 0.0000000000000000e+00  2.8560580141060406e-05 7.3092627272077146e-05 0.0000000000000000e+00  1.2885994330133897e-05 5.9161105184515881e-05 0.0000000000000000e+00  -1.9794449791841545e-06 4.6550049537792759e-05 0.0000000000000000e+00  -1.6033754678130640e-05 3.5364002516249167e-05 0.0000000000000000e+00  -2.9428013724506391e-05 2.5820976257215866e-05 0.0000000000000000e+00  -4.1967426329982188e-05 1.8075886985397317e-05 0.0000000000000000e+00  -5.3606460307148478e-05 1.1627813500791816e-05 0.0000000000000000e+00  -6.4369739291140560e-05 6.9019755721274675e-06 0.0000000000000000e+00  -7.4112494380912088e-05 3.2710792258147612e-06 0.0000000000000000e+00  -8.2949459410463903e-05 8.2814420407000569e-07 0.0000000000000000e+00  -9.1042318745121809e-05 -6.4478859820743783e-07 0.0000000000000000e+00  -9.8151461080377833e-05 -1.3595044186964669e-06 0.0000000000000000e+00  -1.0467503176404408e-04 -1.5101336454681591e-06 0.0000000000000000e+00  -1.1046950270074360e-04 -1.2121720999190461e-06 0.0000000000000000e+00  -1.1578542148267572e-04 -6.8287295466094912e-07 0.0000000000000000e+00  -1.2064072364836169e-04 2.4221088869174472e-08 0.0000000000000000e+00  -1.2527431567845287e-04 7.5215169938605537e-07 0.0000000000000000e+00  -1.2963553276466603e-04 1.5305941237593125e-06 0.0000000000000000e+00  -1.3388476132411513e-04 2.2164816040138939e-06 0.0000000000000000e+00  -1.3815343738603314e-04 2.9427299848259013e-06 0.0000000000000000e+00  -1.4239602680639753e-04 3.6910919743334409e-06 0.0000000000000000e+00  -1.4676283085680132e-04 4.5964105765348386e-06 0.0000000000000000e+00  -1.5112574521667285e-04 5.7192039879107666e-06 0.0000000000000000e+00  -1.5558425289220596e-04 7.2210072431460819e-06 0.0000000000000000e+00  -1.6012908384955226e-04 9.3980138431950962e-06 0.0000000000000000e+00  -1.6434696190736236e-04 1.2184049887882729e-05 0.0000000000000000e+00  -1.6844564115789119e-04 1.5858873480484695e-05 0.0000000000000000e+00  -1.7191133195517782e-04 2.0388158395631794e-05 0.0000000000000000e+00  -1.7484886354642013e-04 2.5737595154539005e-05 0.0000000000000000e+00  -1.7724082919020251e-04 3.1796287572775128e-05 0.0000000000000000e+00  -1.7895942299511023e-04 3.8617723373564173e-05 0.0000000000000000e+00  -1.8081230019917832e-04 4.5583615240693902e-05 0.0000000000000000e+00  -1.8368582605259604e-04 5.3089030832316957e-05 0.0000000000000000e+00  -1.9036043875784517e-04 6.0860888372130250e-05 0.0000000000000000e+00  -2.0234456649513650e-04 7.1689844642046122e-05 0.0000000000000000e+00  -2.2402819165627847e-04 8.6407879716684320e-05 0.0000000000000000e+00  -2.5411502183179783e-04 1.1019869708541891e-04 0.0000000000000000e+00  -2.9303798735843829e-04 1.4295724087388527e-04 0.0000000000000000e+00  -3.3537161756897762e-04 1.8438019285624857e-04 0.0000000000000000e+00  -3.7970825985518265e-04 2.2984112383091641e-04 0.0000000000000000e+00  -4.2638301331573189e-04 2.7599501297315745e-04 0.0000000000000000e+00  -4.7896270179200562e-04 3.2256556382784002e-04 0.0000000000000000e+00  -5.3828186164311422e-04 3.7330179634093751e-04 0.0000000000000000e+00  -6.0254325442019843e-04 4.3131773989566884e-04 0.0000000000000000e+00  -6.6552193852942732e-04 4.9831805705081284e-04 0.0000000000000000e+00  -7.1996383378819106e-04 5.7413559427505129e-04 0.0000000000000000e+00  -7.5940677408531105e-04 6.5414483390142724e-04 0.0000000000000000e+00  -7.8082561339482123e-04 7.3508569308762583e-04 0.0000000000000000e+00  -7.8303922738778636e-04 8.1427878227121676e-04 0.0000000000000000e+00  -7.6962451842708306e-04 8.8685219896712840e-04 0.0000000000000000e+00  7.8142821374093123e-04 5.9858739147572210e-04 0.0000000000000000e+00  7.7031628087180688e-04 5.8680252108240377e-04 0.0000000000000000e+00  7.4164883573746114e-04 5.6898022617866777e-04 0.0000000000000000e+00  7.0028719012537851e-04 5.515