<?xml version="1.0"?>
<VTKFile type="UnstructuredGrid"  version="0.1"  >
<UnstructuredGrid>
<Piece  NumberOfPoints="3879" NumberOfCells="6881">
<Points>
<DataArray  type="Float64"  NumberOfComponents="3"  format="ascii">0.207524190028372 0.2122422770132111 0  0 0 0  1 0 0  0 1 0  1 1 0  0.6249674373315121 0.2590146544375328 0  0.204663578893616 0.322657230836866 0  0.09605577522599912 0.4018360776629776 0  0.671351124618251 0.08738059142081528 0  0.7842102907526436 0.1666439122351055 0  0.8512483166984784 0.1985391006160637 0  0.6418797837909295 0.4423157172830166 0  0.9292488447973215 0.3869277868069776 0  0.3197896119137055 0.5509935221980964 0  0.3979283685568406 0.5079871620336583 0  0.1572503457993085 0.7345153245035532 0  0.3032914287999163 0.7872981443735918 0  0.3549464687598876 0.8870324161721976 0  0.9691791685505482 0.5159450047798622 0  0.9447564590470373 0.6146164845729313 0  0.7687603548175107 0.7176858127488035 0  0.8926159261971183 0.7422924070424508 0  0.2061587782631535 0.2217389244366831 0  0.2021731605082994 0.2304662099646423 0  0.1958902278109265 0.2377171008267789 0  0.1878189860121365 0.2429041729681512 0  0.1786133191209442 0.2456072006525708 0  0.1690190155206647 0.2456072006525708 0  0.1598133486294724 0.2429041729681512 0  0.1517421068306824 0.2377171008267789 0  0.1454591741333096 0.2304662099646422 0  0.1414735563784554 0.221738924436683 0  0.1401081446132369 0.212242277013211 0  0.1414735563784555 0.202745629589739 0  0.1454591741333096 0.1940183440617798 0  0.1517421068306825 0.1867674531996431 0  0.1598133486294725 0.1815803810582709 0  0.1690190155206649 0.1788773533738513 0  0.1786133191209443 0.1788773533738514 0  0.1878189860121367 0.181580381058271 0  0.1958902278109266 0.1867674531996433 0  0.2021731605082994 0.19401834406178 0  0.2061587782631535 0.2027456295897391 0  0.03333333333333333 0 0  0.06666666666666667 0 0  0.1 0 0  0.1333333333333333 0 0  0.1666666666666667 0 0  0.2 0 0  0.2333333333333333 0 0  0.2666666666666667 0 0  0.3 0 0  0.3333333333333333 0 0  0.3666666666666666 0 0  0.4 0 0  0.4333333333333333 0 0  0.4666666666666667 0 0  0.5 0 0  0.5333333333333333 0 0  0.5666666666666667 0 0  0.6 0 0  0.6333333333333333 0 0  0.6666666666666666 0 0  0.7 0 0  0.7333333333333333 0 0  0.7666666666666667 0 0  0.8 0 0  0.8333333333333334 0 0  0.8666666666666667 0 0  0.9 0 0  0.9333333333333333 0 0  0.9666666666666667 0 0  0 0.9666666666666667 0  0 0.9333333333333333 0  0 0.9 0  0 0.8666666666666667 0  0 0.8333333333333334 0  0 0.8 0  0 0.7666666666666666 0  0 0.7333333333333334 0  0 0.7 0  0 0.6666666666666667 0  0 0.6333333333333333 0  0 0.6 0  0 0.5666666666666667 0  0 0.5333333333333333 0  0 0.5 0  0 0.4666666666666667 0  0 0.4333333333333333 0  0 0.4 0  0 0.3666666666666667 0  0 0.3333333333333334 0  0 0.3 0  0 0.2666666666666667 0  0 0.2333333333333333 0  0 0.2 0  0 0.1666666666666666 0  0 0.1333333333333333 0  0 0.09999999999999998 0  0 0.06666666666666665 0  0 0.03333333333333333 0  1 0.03333333333333333 0  1 0.06666666666666667 0  1 0.1 0  1 0.1333333333333333 0  1 0.1666666666666667 0  1 0.2 0  1 0.2333333333333333 0  1 0.2666666666666667 0  1 0.3 0  1 0.3333333333333333 0  1 0.3666666666666666 0  1 0.4 0  1 0.4333333333333333 0  1 0.4666666666666667 0  1 0.5 0  1 0.5333333333333333 0  1 0.5666666666666667 0  1 0.6 0  1 0.6333333333333333 0  1 0.6666666666666666 0  1 0.7 0  1 0.7333333333333333 0  1 0.7666666666666667 0  1 0.8 0  1 0.8333333333333334 0  1 0.8666666666666667 0  1 0.9 0  1 0.9333333333333333 0  1 0.9666666666666667 0  0.9666666666666667 1 0  0.9333333333333333 1 0  0.9 1 0  0.8666666666666667 1 0  0.8333333333333334 1 0  0.8 1 0  0.7666666666666666 1 0  0.7333333333333334 1 0  0.7 1 0  0.6666666666666667 1 0  0.6333333333333333 1 0  0.6 1 0  0.5666666666666667 1 0  0.5333333333333333 1 0  0.5 1 0  0.4666666666666667 1 0  0.4333333333333333 1 0  0.4 1 0  0.3666666666666667 1 0  0.3333333333333334 1 0  0.3 1 0  0.2666666666666667 1 0  0.2333333333333333 1 0  0.2 1 0  0.1666666666666666 1 0  0.1333333333333333 1 0  0.09999999999999998 1 0  0.06666666666666665 1 0  0.03333333333333333 1 0  0.6247072676344306 0.2689501343248463 0  0.6239274716502419 0.2788583817523955 0  0.6226301867455355 0.2887122389026952 0  0.6208189686880621 0.2984846970382296 0  0.6184987819006211 0.3081489705305245 0  0.6156759858539226 0.317678570277693 0  0.6123583176357204 0.3270473763092224 0  0.6085548707439923 0.3362297093789981 0  0.6042760701622942 0.3452004013503318 0  0.5995336437856049 0.3539348641800754 0  0.5943405902749808 0.3624091573127375 0  0.5887111434291297 0.3706000532998825 0  0.582660733170558 0.3784851014649517 0  0.5762059432532257 0.3860426894390078 0  0.5693644658076293 0.3932521023987353 0  0.5621550528479018 0.4000935798443317 0  0.5545974648738458 0.4065483697616639 0  0.5467124167087765 0.4125987800202355 0  0.5385215207216315 0.4182282268660866 0  0.5300472275889694 0.4234212803767108 0  0.5213127647592257 0.4281637067534002 0  0.512342072787892 0.4324425073350981 0  0.5031597397181163 0.4362459542268262 0  0.493790933686587 0.4395636224450283 0  0.4842613339394185 0.4423864184917269 0  0.4745970604471235 0.4447066052791678 0  0.4648246023115891 0.4465178233366412 0  0.4549707451612894 0.4478151082413475 0  0.4450624977337403 0.4485949042255363 0  0.4351270178464268 0.4488550739226177 0  0.4251915379591132 0.4485949042255363 0  0.4152832905315641 0.4478151082413475 0  0.4054294333812644 0.4465178233366411 0  0.39565697524573 0.4447066052791677 0  0.385992701753435 0.4423864184917267 0  0.3764631020062665 0.4395636224450281 0  0.3670942959747371 0.4362459542268259 0  0.3579119629049616 0.4324425073350978 0  0.3489412709336278 0.4281637067533998 0  0.3402068081038843 0.4234212803767103 0  0.3317325149712221 0.4182282268660862 0  0.3235416189840771 0.412598780020235 0  0.3156565708190078 0.4065483697616634 0  0.3080989828449519 0.4000935798443311 0  0.3008895698852244 0.3932521023987346 0  0.2940480924396279 0.3860426894390071 0  0.2875933025222958 0.3784851014649511 0  0.2815428922637242 0.3706000532998818 0  0.2759134454178731 0.3624091573127368 0  0.2707203919072489 0.3539348641800746 0  0.2659779655305596 0.3452004013503309 0  0.2616991649488616 0.3362297093789972 0  0.2578957180571336 0.3270473763092215 0  0.2545780498389315 0.3176785702776921 0  0.251755253792233 0.3081489705305236 0  0.249435067004792 0.2984846970382286 0  0.2476238489473186 0.2887122389026941 0  0.2463265640426123 0.2788583817523945 0  0.2455467680584236 0.2689501343248454 0  0.2452865983613423 0.2590146544375318 0  0.2455467680584237 0.2490791745502182 0  0.2463265640426126 0.2391709271226692 0  0.247623848947319 0.2293170699723696 0  0.2494350670047924 0.2195446118368351 0  0.2517552537922335 0.2098803383445402 0  0.2545780498389321 0.2003507385973717 0  0.2578957180571343 0.1909819325658423 0  0.2616991649488624 0.1817995994960667 0  0.2659779655305604 0.172828907524733 0  0.2707203919072498 0.1640944446949895 0  0.2759134454178741 0.1556201515623273 0  0.2815428922637251 0.1474292555751825 0  0.2875933025222969 0.1395442074101132 0  0.2940480924396291 0.1319866194360571 0  0.3008895698852256 0.1247772064763297 0  0.3080989828449531 0.1179357290307334 0  0.3156565708190092 0.1114809391134012 0  0.3235416189840785 0.1054305288548295 0  0.3317325149712236 0.09980108200897844 0  0.3402068081038856 0.0946080284983544 0  0.3489412709336291 0.08986560212166514 0  0.357911962904963 0.08558680153996717 0  0.3670942959747386 0.08178335464823916 0  0.3764631020062678 0.07846568643003712 0  0.3859927017534364 0.0756428903833386 0  0.3956569752457313 0.0733227035958976 0  0.4054294333812659 0.07151148553842429 0  0.4152832905315654 0.07021420063371797 0  0.4251915379591144 0.0694344046495293 0  0.435127017846428 0.0691742349524479 0  0.4450624977337415 0.06943440464952938 0  0.4549707451612905 0.07021420063371814 0  0.4648246023115901 0.07151148553842454 0  0.4745970604471245 0.07332270359589793 0  0.4842613339394195 0.07564289038333902 0  0.4937909336865879 0.07846568643003757 0  0.5031597397181173 0.0817833546482398 0  0.5123420727878929 0.08558680153996781 0  0.5213127647592265 0.08986560212166581 0  0.53004722758897 0.0946080284983552 0  0.5385215207216321 0.09980108200897933 0  0.5467124167087771 0.1054305288548305 0  0.5545974648738462 0.1114809391134021 0  0.5621550528479023 0.1179357290307343 0  0.5693644658076298 0.1247772064763308 0  0.576205943253226 0.1319866194360582 0  0.5826607331705582 0.1395442074101142 0  0.5887111434291299 0.1474292555751835 0  0.594340590274981 0.1556201515623285 0  0.5995336437856051 0.1640944446949906 0  0.6042760701622945 0.172828907524734 0  0.6085548707439925 0.1817995994960678 0  0.6123583176357205 0.1909819325658435 0  0.6156759858539227 0.2003507385973728 0  0.6184987819006211 0.2098803383445412 0  0.6208189686880622 0.2195446118368362 0  0.6226301867455355 0.2293170699723706 0  0.6239274716502419 0.2391709271226702 0  0.6247072676344306 0.2490791745502192 0  0.203885768735257 0.3325402459548524 0  0.2015714905276826 0.3421799084407872 0  0.1977777294810124 0.3513388578120612 0  0.1925979005829864 0.3597915703383434 0  0.1861595484119405 0.3673299121842922 0  0.1786212065659918 0.373768264355338 0  0.1701684940397096 0.378948093253364 0  0.1610095446684356 0.3827418543000342 0  0.1513698821825007 0.3850561325076086 0  0.1414868670645144 0.3858339426659677 0  0.1316038519465281 0.3850561325076086 0  0.1219641894605933 0.3827418543000343 0  0.1128052400893193 0.378948093253364 0  0.1043525275630371 0.3737682643553381 0  0.09681418571708833 0.3673299121842922 0  0.09037583354604248 0.3597915703383434 0  0.08519600464801645 0.3513388578120612 0  0.08140224360134621 0.3421799084407872 0  0.07908796539377183 0.3325402459548523 0  0.07831015523541281 0.3226572308368659 0  0.07908796539377186 0.3127742157188796 0  0.08140224360134626 0.3031345532329447 0  0.08519600464801655 0.2939756038616707 0  0.0903758335460426 0.2855228913353884 0  0.0968141857
[...]
<PointData  Vectors="$u$"> 
<DataArray  type="Float64"  Name="$u$"  NumberOfComponents="3" format="ascii">1.5954693226207192e-04 2.9950962358512038e-04 0.0000000000000000e+00  0.0000000000000000e+00 0.0000000000000000e+00 0.0000000000000000e+00  -3.6473383932213860e-04 0.0000000000000000e+00 0.0000000000000000e+00  -4.9550534473042225e-05 3.2500000000000003e-03 0.0000000000000000e+00  -4.2657345998801873e-04 3.2500000000000003e-03 0.0000000000000000e+00  -6.0370855768468532e-04 7.7661983385586336e-04 0.0000000000000000e+00  6.2787103486319806e-04 4.8850142150288567e-04 0.0000000000000000e+00  5.4387657754809333e-04 9.2133539376311653e-04 0.0000000000000000e+00  -3.2124233405871446e-04 1.1250623549014102e-04 0.0000000000000000e+00  -4.9105192177999635e-04 1.4583615162845501e-05 0.0000000000000000e+00  -5.6370343427710108e-04 1.1813922662193625e-04 0.0000000000000000e+00  -8.4277281254056008e-05 1.2695249465167313e-03 0.0000000000000000e+00  -1.4875091760255860e-03 1.0053863819069659e-03 0.0000000000000000e+00  -2.3755722563801937e-04 1.9930619032858510e-03 0.0000000000000000e+00  -1.8797174370205631e-04 1.7883514468196645e-03 0.0000000000000000e+00  4.5940884603003831e-04 3.0838694893156873e-03 0.0000000000000000e+00  1.7420026300629619e-04 2.6055130290136880e-03 0.0000000000000000e+00  -2.4366682894536514e-04 3.1146892261184693e-03 0.0000000000000000e+00  -1.5709227634456437e-03 1.7123130697445877e-03 0.0000000000000000e+00  -1.2174797666304144e-03 2.2500835447135784e-03 0.0000000000000000e+00  -8.2453665401783583e-04 2.9566738031719495e-03 0.0000000000000000e+00  -7.4785598993620101e-04 2.8839231985862170e-03 0.0000000000000000e+00  2.1274443275601690e-04 3.5225905724845614e-04 0.0000000000000000e+00  2.6865187135085628e-04 3.9941414206598046e-04 0.0000000000000000e+00  3.1780397723138031e-04 4.3811953489261777e-04 0.0000000000000000e+00  3.5535497352611199e-04 4.5533101496664539e-04 0.0000000000000000e+00  3.8099508856369942e-04 4.4622578356441975e-04 0.0000000000000000e+00  3.8568361635396933e-04 4.0163236027689617e-04 0.0000000000000000e+00  3.7561890656462619e-04 3.3661085484731017e-04 0.0000000000000000e+00  3.4521451811829533e-04 2.8197444757093062e-04 0.0000000000000000e+00  3.0075041348463902e-04 2.5153121991884902e-04 0.0000000000000000e+00  2.5982855438530972e-04 2.3489839530587938e-04 0.0000000000000000e+00  2.1848232533347998e-04 2.1479293381718165e-04 0.0000000000000000e+00  1.8162565461902797e-04 1.9593640608882339e-04 0.0000000000000000e+00  1.4818794377038797e-04 1.7437600700398519e-04 0.0000000000000000e+00  1.1950669978721349e-04 1.5491233293515427e-04 0.0000000000000000e+00  9.4698272938633277e-05 1.4176830241402670e-04 0.0000000000000000e+00  7.7862103358179418e-05 1.3604490759678436e-04 0.0000000000000000e+00  6.6183040981175660e-05 1.3967125939127404e-04 0.0000000000000000e+00  6.3424993928782981e-05 1.5291794066081731e-04 0.0000000000000000e+00  7.0766449054973985e-05 1.7612056890948540e-04 0.0000000000000000e+00  8.7541747915693388e-05 2.0785683416732468e-04 0.0000000000000000e+00  1.1715241778133723e-04 2.4990055353503411e-04 0.0000000000000000e+00  0.0000000000000000e+00 0.0000000000000000e+00 0.0000000000000000e+00  -3.1609660372419862e-05 0.0000000000000000e+00 0.0000000000000000e+00  -4.4567696622334120e-05 0.0000000000000000e+00 0.0000000000000000e+00  -5.8006519622676091e-05 0.0000000000000000e+00 0.0000000000000000e+00  -6.7955207275553772e-05 0.0000000000000000e+00 0.0000000000000000e+00  -7.6825765039842902e-05 0.0000000000000000e+00 0.0000000000000000e+00  -8.4355540230128821e-05 0.0000000000000000e+00 0.0000000000000000e+00  -9.1154246723663460e-05 0.0000000000000000e+00 0.0000000000000000e+00  -9.6314810090217143e-05 0.0000000000000000e+00 0.0000000000000000e+00  -9.9694919230915586e-05 0.0000000000000000e+00 0.0000000000000000e+00  -1.0278516072704738e-04 0.0000000000000000e+00 0.0000000000000000e+00  -1.0725405238569843e-04 0.0000000000000000e+00 0.0000000000000000e+00  -1.1285664900142985e-04 0.0000000000000000e+00 0.0000000000000000e+00  -1.1979352142912402e-04 0.0000000000000000e+00 0.0000000000000000e+00  -1.2845084463081167e-04 0.0000000000000000e+00 0.0000000000000000e+00  -1.4291438303340584e-04 0.0000000000000000e+00 0.0000000000000000e+00  -1.6575741226736705e-04 0.0000000000000000e+00 0.0000000000000000e+00  -1.9668187955685821e-04 0.0000000000000000e+00 0.0000000000000000e+00  -2.1894041504220187e-04 0.0000000000000000e+00 0.0000000000000000e+00  -2.3833893913571114e-04 0.0000000000000000e+00 0.0000000000000000e+00  -2.6485055178299886e-04 0.0000000000000000e+00 0.0000000000000000e+00  -2.8218879878467789e-04 0.0000000000000000e+00 0.0000000000000000e+00  -2.8677307250926177e-04 0.0000000000000000e+00 0.0000000000000000e+00  -2.8676513979814579e-04 0.0000000000000000e+00 0.0000000000000000e+00  -2.8669749886527660e-04 0.0000000000000000e+00 0.0000000000000000e+00  -2.9197482276324498e-04 0.0000000000000000e+00 0.0000000000000000e+00  -3.0005477790154619e-04 0.0000000000000000e+00 0.0000000000000000e+00  -3.1640794135470409e-04 0.0000000000000000e+00 0.0000000000000000e+00  -3.3810668153892346e-04 0.0000000000000000e+00 0.0000000000000000e+00  -4.3623919316148108e-05 3.1544219102030251e-03 0.0000000000000000e+00  -2.4162937047621266e-05 3.0582446464794857e-03 0.0000000000000000e+00  8.9208583048720094e-06 2.9582516279415029e-03 0.0000000000000000e+00  5.8857607383649123e-05 2.8563130630539168e-03 0.0000000000000000e+00  1.2577598795436600e-04 2.7508376458116805e-03 0.0000000000000000e+00  2.1115858977713609e-04 2.6422834029800049e-03 0.0000000000000000e+00  3.1471613399862436e-04 2.5305882543474683e-03 0.0000000000000000e+00  4.3675600347436961e-04 2.4088055808405067e-03 0.0000000000000000e+00  5.8835730490146624e-04 2.2760452876721890e-03 0.0000000000000000e+00  7.8108612752440039e-04 2.1321646556164277e-03 0.0000000000000000e+00  1.0187971081435034e-03 1.9976994353952744e-03 0.0000000000000000e+00  1.2665268638839820e-03 1.8976360710962676e-03 0.0000000000000000e+00  1.4374076834631671e-03 1.8462871978001721e-03 0.0000000000000000e+00  1.4462645916406183e-03 1.8148779807610593e-03 0.0000000000000000e+00  1.3106415698280036e-03 1.7431551483651408e-03 0.0000000000000000e+00  1.1296427878978788e-03 1.6055934773043310e-03 0.0000000000000000e+00  1.0201484424317243e-03 1.4157731020898840e-03 0.0000000000000000e+00  9.5810574970009096e-04 1.2797202878355666e-03 0.0000000000000000e+00  7.8798757305817348e-04 1.1557915488613442e-03 0.0000000000000000e+00  6.3895900652902280e-04 9.9368341260048761e-04 0.0000000000000000e+00  5.3415965009247994e-04 8.7242165432331999e-04 0.0000000000000000e+00  4.2944200559259289e-04 7.6651925755081109e-04 0.0000000000000000e+00  3.3039916409509444e-04 6.6614875123028911e-04 0.0000000000000000e+00  2.4234931382079888e-04 5.6652662190524890e-04 0.0000000000000000e+00  1.6838732977987139e-04 4.6885907166680586e-04 0.0000000000000000e+00  1.0994752334481747e-04 3.7024062581626240e-04 0.0000000000000000e+00  6.7231923163362507e-05 2.7566265849515183e-04 0.0000000000000000e+00  3.7781511711766659e-05 1.7978699752834647e-04 0.0000000000000000e+00  2.4717203134205607e-05 9.2568398692257023e-05 0.0000000000000000e+00  -3.7088385713846743e-04 9.8816490633330998e-05 0.0000000000000000e+00  -3.9196716440757339e-04 1.9893463533514588e-04 0.0000000000000000e+00  -4.2750420256731805e-04 3.0192232723021042e-04 0.0000000000000000e+00  -4.8047267387623060e-04 4.0960716611188177e-04 0.0000000000000000e+00  -5.5355667086176791e-04 5.2240046323713378e-04 0.0000000000000000e+00  -6.5144060738273328e-04 6.4170018682063550e-04 0.0000000000000000e+00  -7.7690532610965365e-04 7.6404551430132514e-04 0.0000000000000000e+00  -9.3472799319495141e-04 8.9081294273249932e-04 0.0000000000000000e+00  -1.1228457366990626e-03 1.0079103391292402e-03 0.0000000000000000e+00  -1.3217870033745496e-03 1.1043382816131255e-03 0.0000000000000000e+00  -1.4900490524462717e-03 1.1702752686805732e-03 0.0000000000000000e+00  -1.5862589661819390e-03 1.2254067323973757e-03 0.0000000000000000e+00  -1.6050010643807854e-03 1.2968842588502220e-03 0.0000000000000000e+00  -1.5999850363400993e-03 1.4266293731483586e-03 0.0000000000000000e+00  -1.6536149363390637e-03 1.5682419284767778e-03 0.0000000000000000e+00  -1.5019706789749078e-03 1.6697852428297676e-03 0.0000000000000000e+00  -1.3107518863884116e-03 1.9028438426006002e-03 0.0000000000000000e+00  -1.2884325658717500e-03 2.0749707154354585e-03 0.0000000000000000e+00  -1.2353301970978938e-03 2.1678251646758510e-03 0.0000000000000000e+00  -1.1099643929408231e-03 2.2557368556594833e-03 0.0000000000000000e+00  -9.6535608277650853e-04 2.3591653495150865e-03 0.0000000000000000e+00  -8.3724129101627788e-04 2.4689217709506256e-03 0.0000000000000000e+00  -7.2818108423295487e-04 2.5752076122859974e-03 0.0000000000000000e+00  -6.3720150959193310e-04 2.6799579381624082e-03 0.0000000000000000e+00  -5.6612801282908995e-04 2.7829329360252748e-03 0.0000000000000000e+00  -5.1307891977993075e-04 2.8813180998141343e-03 0.0000000000000000e+00  -4.7414926018677852e-04 2.9763367934185184e-03 0.0000000000000000e+00  -4.4765884095846994e-04 3.0686889558042022e-03 0.0000000000000000e+00  -4.3150713732106541e-04 3.1594234985884051e-03 0.0000000000000000e+00  -4.0182135129683544e-04 3.2500000000000003e-03 0.0000000000000000e+00  -3.7961761216519138e-04 3.2500000000000003e-03 0.0000000000000000e+00  -3.6156074872175032e-04 3.2500000000000003e-03 0.0000000000000000e+00  -3.4679721511585377e-04 3.2500000000000003e-03 0.0000000000000000e+00  -3.3428274933934663e-04 3.2500000000000003e-03 0.0000000000000000e+00  -3.2358552554051978e-04 3.2500000000000003e-03 0.0000000000000000e+00  -3.1509131639124917e-04 3.2500000000000003e-03 0.0000000000000000e+00  -3.0925210558439722e-04 3.2500000000000003e-03 0.0000000000000000e+00  -3.0513895380956122e-04 3.2500000000000003e-03 0.0000000000000000e+00  -3.0283553668216079e-04 3.2500000000000003e-03 0.0000000000000000e+00  -2.9906385904724780e-04 3.2500000000000003e-03 0.0000000000000000e+00  -2.9399085028788984e-04 3.2500000000000003e-03 0.0000000000000000e+00  -2.8716786335241680e-04 3.2500000000000003e-03 0.0000000000000000e+00  -2.7948952769976193e-04 3.2500000000000003e-03 0.0000000000000000e+00  -2.7167066107808226e-04 3.2500000000000003e-03 0.0000000000000000e+00  -2.6151485356024762e-04 3.2500000000000003e-03 0.0000000000000000e+00  -2.4767010032151397e-04 3.2500000000000003e-03 0.0000000000000000e+00  -2.2724200520195912e-04 3.2500000000000003e-03 0.0000000000000000e+00  -2.0297368663833000e-04 3.2500000000000003e-03 0.0000000000000000e+00  -1.8227136904886131e-04 3.2500000000000003e-03 0.0000000000000000e+00  -1.6973643333935098e-04 3.2500000000000003e-03 0.0000000000000000e+00  -1.5836204459759721e-04 3.2500000000000003e-03 0.0000000000000000e+00  -1.4396183082912009e-04 3.2500000000000003e-03 0.0000000000000000e+00  -1.3326144231880750e-04 3.2500000000000003e-03 0.0000000000000000e+00  -1.2793343437033646e-04 3.2500000000000003e-03 0.0000000000000000e+00  -1.2096305740521878e-04 3.2500000000000003e-03 0.0000000000000000e+00  -1.1182942999915075e-04 3.2500000000000003e-03 0.0000000000000000e+00  -9.6720486548630035e-05 3.2500000000000003e-03 0.0000000000000000e+00  -7.5161319139055902e-05 3.2500000000000003e-03 0.0000000000000000e+00  -5.7450417769703188e-04 8.2876523892563944e-04 0.0000000000000000e+00  -5.4060224588607815e-04 8.7815918312027686e-04 0.0000000000000000e+00  -5.0202225181160951e-04 9.2719710171669588e-04 0.0000000000000000e+00  -4.6069472716507196e-04 9.7337727856333786e-04 0.0000000000000000e+00  -4.1722488447055599e-04 1.0193931057314106e-03 0.0000000000000000e+00  -3.7249798308746875e-04 1.0621020578765012e-03 0.0000000000000000e+00  -3.2849967046455990e-04 1.1007226749001353e-03 0.0000000000000000e+00  -2.8764482226113596e-04 1.1348683006639345e-03 0.0000000000000000e+00  -2.5059672911204435e-04 1.1633250818378577e-03 0.0000000000000000e+00  -2.2019389794963195e-04 1.1855944668480028e-03 0.0000000000000000e+00  -1.9690302912175368e-04 1.2022817719594060e-03 0.0000000000000000e+00  -1.8179266877685801e-04 1.2138658649743779e-03 0.0000000000000000e+00  -1.7542631638798510e-04 1.2210862628911794e-03 0.0000000000000000e+00  -1.7739565061205165e-04 1.2255842680615231e-03 0.0000000000000000e+00  -1.8794230727624814e-04 1.2278525479072211e-03 0.0000000000000000e+00  -2.0615552540998393e-04 1.2319416041631746e-03 0.0000000000000000e+00  -2.2889999349617489e-04 1.2405966996697926e-03 0.0000000000000000e+00  -2.5251439952609148e-04 1.2553488130863173e-03 0.0000000000000000e+00  -2.7503490736215862e-04 1.2773452001889531e-03 0.0000000000000000e+00  -2.9376335833152894e-04 1.3046887558832887e-03 0.0000000000000000e+00  -3.0987525469129603e-04 1.3380527624973423e-03 0.0000000000000000e+00  -3.2200146368082592e-04 1.3761292142736208e-03 0.0000000000000000e+00  -3.3014801578379327e-04 1.4180351168737110e-03 0.0000000000000000e+00  -3.3450689769818341e-04 1.4627428589598656e-03 0.0000000000000000e+00  -3.3515593495243347e-04 1.5088218613315170e-03 0.0000000000000000e+00  -3.3232861240670419e-04 1.5547284184322784e-03 0.0000000000000000e+00  -3.2624872614792734e-04 1.5990839242074717e-03 0.0000000000000000e+00  -3.1831519039351324e-04 1.6404550929412247e-03 0.0000000000000000e+00  -3.0865443857282162e-04 1.6786520154704263e-03 0.0000000000000000e+00  -2.9768756259072128e-04 1.7131664441352751e-03 0.0000000000000000e+00  -2.8571219261362267e-04 1.7442003752017269e-03 0.0000000000000000e+00  -2.7199508653034379e-04 1.7724153431210429e-03 0.0000000000000000e+00  -2.5534556852103280e-04 1.7973668216451698e-03 0.0000000000000000e+00  -2.3341263091681693e-04 1.8182011022919576e-03 0.0000000000000000e+00  -2.0358660667651164e-04 1.8316284301871308e-03 0.0000000000000000e+00  -1.6526327278420708e-04 1.8339762325260032e-03 0.0000000000000000e+00  -1.1894079178795242e-04 1.8233306018839534e-03 0.0000000000000000e+00  -6.4484113354438047e-05 1.7989878628415811e-03 0.0000000000000000e+00  -2.2727785323421608e-06 1.7604035975883655e-03 0.0000000000000000e+00  6.7026917509962827e-05 1.7068604391851066e-03 0.0000000000000000e+00  1.4225700290096662e-04 1.6384797780877398e-03 0.0000000000000000e+00  2.2073595085884124e-04 1.5550469695967135e-03 0.0000000000000000e+00  2.9794981082377671e-04 1.4598647531539057e-03 0.0000000000000000e+00  3.7237453420652133e-04 1.3558463755779814e-03 0.0000000000000000e+00  4.3977618944014723e-04 1.2471860468158474e-03 0.0000000000000000e+00  4.9519164691922150e-04 1.1366537168155349e-03 0.0000000000000000e+00  5.4093307042613807e-04 1.0332125098138426e-03 0.0000000000000000e+00  5.7564566475618918e-04 9.3531530961137239e-04 0.0000000000000000e+00  6.0000664007921548e-04 8.4593992159589474e-04 0.0000000000000000e+00  6.1594125991873026e-04 7.6555127747472489e-04 0.0000000000000000e+00  6.2392359988499072e-04 6.9225547468509702e-04 0.0000000000000000e+00  6.2479868183539801e-04 6.2591545102502202e-04 0.0000000000000000e+00  6.1752456227890339e-04 5.6395779017881834e-04 0.0000000000000000e+00  6.0131921726691595e-04 5.0703342301700483e-04 0.0000000000000000e+00  5.7622052916747320e-04 4.5515834263391727e-04 0.0000000000000000e+00  5.4281694591139923e-04 4.0832098954519269e-04 0.0000000000000000e+00  5.0382952108709623e-04 3.6747126817062353e-04 0.0000000000000000e+00  4.6240823943707936e-04 3.3119776444015189e-04 0.0000000000000000e+00  4.1978640033672244e-04 2.9649214307437329e-04 0.0000000000000000e+00  3.7588990358675486e-04 2.6250097834552025e-04 0.0000000000000000e+00  3.2915642137367802e-04 2.2724638155568140e-04 0.0000000000000000e+00  2.7799109721409588e-04 1.9279864369163322e-04 0.0000000000000000e+00  2.2438812098592251e-04 1.6325534039509593e-04 0.0000000000000000e+00  1.7384041277691451e-04 1.3951805367657278e-04 0.0000000000000000e+00  1.3054262053399472e-04 1.2216739627761954e-04 0.0000000000000000e+00  9.6990845826996772e-05 1.0834512556682984e-04 0.0000000000000000e+00  7.1903023932440034e-05 9.6078167128637627e-05 0.0000000000000000e+00  5.2757613770760619e-05 8.3786731867755554e-05 0.0000000000000000e+00  3.7122686331150273e-05 7.1520064128996390e-05 0.0000000000000000e+00  2.3320988237305008e-05 5.9415763219924116e-05 0.0000000000000000e+00  1.0564762908463136e-05 4.8073082282227349e-05 0.0000000000000000e+00  -1.5250367510965753e-06 3.7846607683510733e-05 0.0000000000000000e+00  -1.2945937474695385e-05 2.8738605390236281e-05 0.0000000000000000e+00  -2.3847543867961088e-05 2.0998781557375863e-05 0.0000000000000000e+00  -3.4034588430479005e-05 1.4695593672748157e-05 0.0000000000000000e+00  -4.3495231308974656e-05 9.4635636110209799e-06 0.0000000000000000e+00  -5.2243963555380911e-05 5.6144046761285013e-06 0.0000000000000000e+00  -6.0156067620328673e-05 2.6637356893498824e-06 0.0000000000000000e+00  -6.7351676897090015e-05 6.7912102582556725e-07 0.0000000000000000e+00  -7.3918804084503699e-05 -5.1901506271319595e-07 0.0000000000000000e+00  -7.9700568270648880e-05 -1.1063510765953493e-06 0.0000000000000000e+00  -8.4999709216601669e-05 -1.2280944028465579e-06 0.0000000000000000e+00  -8.9714926405688925e-05 -9.8468335987017744e-07 0.0000000000000000e+00  -9.4028076901788216e-05 -5.5511368753015113e-07 0.0000000000000000e+00  -9.7979915112389774e-05 1.7208474895380579e-08 0.0000000000000000e+00  -1.0174299815173020e-04 6.1064392408477711e-07 0.0000000000000000e+00  -1.0528857146314468e-04 1.2433999225273658e-06 0.0000000000000000e+00  -1.0874148176191964e-04 1.7976472186821310e-06 0.0000000000000000e+00  -1.1221347776855538e-04 2.3887345444667055e-06 0.0000000000000000e+00  -1.1565412062222908e-04 2.9972783613323756e-06 0.0000000000000000e+00  -1.1920416921106030e-04 3.7305890436998259e-06 0.0000000000000000e+00  -1.2275746496041940e-04 4.6438672327489637e-06 0.0000000000000000e+00  -1.2636678731593002e-04 5.8624571092464861e-06 0.0000000000000000e+00  -1.3006235942794784e-04 7.6212510970454291e-06 0.0000000000000000e+00  -1.3350127576112393e-04 9.8821663223002262e-06 0.0000000000000000e+00  -1.3682238727022737e-04 1.2861238375607740e-05 0.0000000000000000e+00  -1.3965401514111941e-04 1.6536005383402937e-05 0.0000000000000000e+00  -1.4204382194714604e-04 2.0869921106277203e-05 0.0000000000000000e+00  -1.4400506089495135e-04 2.5783512125782201e-05 0.0000000000000000e+00  -1.4542320157143207e-04 3.1316435193437490e-05 0.0000000000000000e+00  -1.4693603208729811e-04 3.6970216645252465e-05 0.0000000000000000e+00  -1.4936038827907059e-04 4.3038240812436666e-05 0.0000000000000000e+00  -1.5475002504385067e-04 4.9429769336747490e-05 0.0000000000000000e+00  -1.6457395010003253e-04 5.8162144182510999e-05 0.0000000000000000e+00  -1.8215900043513144e-04 7.0231654168147791e-05 0.0000000000000000e+00  -2.0658622738866779e-04 8.9558677369917249e-05 0.0000000000000000e+00  -2.3815288468002514e-04 1.1616250538203237e-04 0.0000000000000000e+00  -2.7250996111927172e-04 1.4980069039661399e-04 0.0000000000000000e+00  -3.0843924749663758e-04 1.8668255654687564e-04 0.0000000000000000e+00  -3.4637086974198642e-04 2.2412847984914285e-04 0.0000000000000000e+00  -3.8895254453481093e-04 2.6199417773855688e-04 0.0000000000000000e+00  -4.3713705643651419e-04 3.0310679725807898e-04 0.0000000000000000e+00  -4.8927061510881369e-04 3.5024547680270507e-04 0.0000000000000000e+00  -5.4038961111679373e-04 4.0466010658771293e-04 0.0000000000000000e+00  -5.8458644806068263e-04 4.6618637297500467e-04 0.0000000000000000e+00  -6.1662142191406220e-04 5.3117991938694581e-04 0.0000000000000000e+00  -6.3402897473174890e-04 5.9688706177276837e-04 0.0000000000000000e+00  -6.3587157441767671e-04 6.6116298767034435e-04 0.0000000000000000e+00  -6.2498241684187672e-04 7.2018531200363368e-04 0.0000000000000000e+00  6.3437219178970317e-04 4.8647447988398859e-04 0.0000000000000000e+00  6.2536772916595596e-04 4.7696783564009295e-04 0.0000000000000000e+00  6.0208067924452495e-04 4.6257105271862553e-04 0.0000000000000000e+00  5.6852273991893506e-04 4.484