<?xml version="1.0"?>
<VTKFile type="UnstructuredGrid"  version="0.1"  >
<UnstructuredGrid>
<Piece  NumberOfPoints="3879" NumberOfCells="6881">
<Points>
<DataArray  type="Float64"  NumberOfComponents="3"  format="ascii">0.207524190028372 0.2122422770132111 0  0 0 0  1 0 0  0 1 0  1 1 0  0.6249674373315121 0.2590146544375328 0  0.204663578893616 0.322657230836866 0  0.09605577522599912 0.4018360776629776 0  0.671351124618251 0.08738059142081528 0  0.7842102907526436 0.1666439122351055 0  0.8512483166984784 0.1985391006160637 0  0.6418797837909295 0.4423157172830166 0  0.9292488447973215 0.3869277868069776 0  0.3197896119137055 0.5509935221980964 0  0.3979283685568406 0.5079871620336583 0  0.1572503457993085 0.7345153245035532 0  0.3032914287999163 0.7872981443735918 0  0.3549464687598876 0.8870324161721976 0  0.9691791685505482 0.5159450047798622 0  0.9447564590470373 0.6146164845729313 0  0.7687603548175107 0.7176858127488035 0  0.8926159261971183 0.7422924070424508 0  0.2061587782631535 0.2217389244366831 0  0.2021731605082994 0.2304662099646423 0  0.1958902278109265 0.2377171008267789 0  0.1878189860121365 0.2429041729681512 0  0.1786133191209442 0.2456072006525708 0  0.1690190155206647 0.2456072006525708 0  0.1598133486294724 0.2429041729681512 0  0.1517421068306824 0.2377171008267789 0  0.1454591741333096 0.2304662099646422 0  0.1414735563784554 0.221738924436683 0  0.1401081446132369 0.212242277013211 0  0.1414735563784555 0.202745629589739 0  0.1454591741333096 0.1940183440617798 0  0.1517421068306825 0.1867674531996431 0  0.1598133486294725 0.1815803810582709 0  0.1690190155206649 0.1788773533738513 0  0.1786133191209443 0.1788773533738514 0  0.1878189860121367 0.181580381058271 0  0.1958902278109266 0.1867674531996433 0  0.2021731605082994 0.19401834406178 0  0.2061587782631535 0.2027456295897391 0  0.03333333333333333 0 0  0.06666666666666667 0 0  0.1 0 0  0.1333333333333333 0 0  0.1666666666666667 0 0  0.2 0 0  0.2333333333333333 0 0  0.2666666666666667 0 0  0.3 0 0  0.3333333333333333 0 0  0.3666666666666666 0 0  0.4 0 0  0.4333333333333333 0 0  0.4666666666666667 0 0  0.5 0 0  0.5333333333333333 0 0  0.5666666666666667 0 0  0.6 0 0  0.6333333333333333 0 0  0.6666666666666666 0 0  0.7 0 0  0.7333333333333333 0 0  0.7666666666666667 0 0  0.8 0 0  0.8333333333333334 0 0  0.8666666666666667 0 0  0.9 0 0  0.9333333333333333 0 0  0.9666666666666667 0 0  0 0.9666666666666667 0  0 0.9333333333333333 0  0 0.9 0  0 0.8666666666666667 0  0 0.8333333333333334 0  0 0.8 0  0 0.7666666666666666 0  0 0.7333333333333334 0  0 0.7 0  0 0.6666666666666667 0  0 0.6333333333333333 0  0 0.6 0  0 0.5666666666666667 0  0 0.5333333333333333 0  0 0.5 0  0 0.4666666666666667 0  0 0.4333333333333333 0  0 0.4 0  0 0.3666666666666667 0  0 0.3333333333333334 0  0 0.3 0  0 0.2666666666666667 0  0 0.2333333333333333 0  0 0.2 0  0 0.1666666666666666 0  0 0.1333333333333333 0  0 0.09999999999999998 0  0 0.06666666666666665 0  0 0.03333333333333333 0  1 0.03333333333333333 0  1 0.06666666666666667 0  1 0.1 0  1 0.1333333333333333 0  1 0.1666666666666667 0  1 0.2 0  1 0.2333333333333333 0  1 0.2666666666666667 0  1 0.3 0  1 0.3333333333333333 0  1 0.3666666666666666 0  1 0.4 0  1 0.4333333333333333 0  1 0.4666666666666667 0  1 0.5 0  1 0.5333333333333333 0  1 0.5666666666666667 0  1 0.6 0  1 0.6333333333333333 0  1 0.6666666666666666 0  1 0.7 0  1 0.7333333333333333 0  1 0.7666666666666667 0  1 0.8 0  1 0.8333333333333334 0  1 0.8666666666666667 0  1 0.9 0  1 0.9333333333333333 0  1 0.9666666666666667 0  0.9666666666666667 1 0  0.9333333333333333 1 0  0.9 1 0  0.8666666666666667 1 0  0.8333333333333334 1 0  0.8 1 0  0.7666666666666666 1 0  0.7333333333333334 1 0  0.7 1 0  0.6666666666666667 1 0  0.6333333333333333 1 0  0.6 1 0  0.5666666666666667 1 0  0.5333333333333333 1 0  0.5 1 0  0.4666666666666667 1 0  0.4333333333333333 1 0  0.4 1 0  0.3666666666666667 1 0  0.3333333333333334 1 0  0.3 1 0  0.2666666666666667 1 0  0.2333333333333333 1 0  0.2 1 0  0.1666666666666666 1 0  0.1333333333333333 1 0  0.09999999999999998 1 0  0.06666666666666665 1 0  0.03333333333333333 1 0  0.6247072676344306 0.2689501343248463 0  0.6239274716502419 0.2788583817523955 0  0.6226301867455355 0.2887122389026952 0  0.6208189686880621 0.2984846970382296 0  0.6184987819006211 0.3081489705305245 0  0.6156759858539226 0.317678570277693 0  0.6123583176357204 0.3270473763092224 0  0.6085548707439923 0.3362297093789981 0  0.6042760701622942 0.3452004013503318 0  0.5995336437856049 0.3539348641800754 0  0.5943405902749808 0.3624091573127375 0  0.5887111434291297 0.3706000532998825 0  0.582660733170558 0.3784851014649517 0  0.5762059432532257 0.3860426894390078 0  0.5693644658076293 0.3932521023987353 0  0.5621550528479018 0.4000935798443317 0  0.5545974648738458 0.4065483697616639 0  0.5467124167087765 0.4125987800202355 0  0.5385215207216315 0.4182282268660866 0  0.5300472275889694 0.4234212803767108 0  0.5213127647592257 0.4281637067534002 0  0.512342072787892 0.4324425073350981 0  0.5031597397181163 0.4362459542268262 0  0.493790933686587 0.4395636224450283 0  0.4842613339394185 0.4423864184917269 0  0.4745970604471235 0.4447066052791678 0  0.4648246023115891 0.4465178233366412 0  0.4549707451612894 0.4478151082413475 0  0.4450624977337403 0.4485949042255363 0  0.4351270178464268 0.4488550739226177 0  0.4251915379591132 0.4485949042255363 0  0.4152832905315641 0.4478151082413475 0  0.4054294333812644 0.4465178233366411 0  0.39565697524573 0.4447066052791677 0  0.385992701753435 0.4423864184917267 0  0.3764631020062665 0.4395636224450281 0  0.3670942959747371 0.4362459542268259 0  0.3579119629049616 0.4324425073350978 0  0.3489412709336278 0.4281637067533998 0  0.3402068081038843 0.4234212803767103 0  0.3317325149712221 0.4182282268660862 0  0.3235416189840771 0.412598780020235 0  0.3156565708190078 0.4065483697616634 0  0.3080989828449519 0.4000935798443311 0  0.3008895698852244 0.3932521023987346 0  0.2940480924396279 0.3860426894390071 0  0.2875933025222958 0.3784851014649511 0  0.2815428922637242 0.3706000532998818 0  0.2759134454178731 0.3624091573127368 0  0.2707203919072489 0.3539348641800746 0  0.2659779655305596 0.3452004013503309 0  0.2616991649488616 0.3362297093789972 0  0.2578957180571336 0.3270473763092215 0  0.2545780498389315 0.3176785702776921 0  0.251755253792233 0.3081489705305236 0  0.249435067004792 0.2984846970382286 0  0.2476238489473186 0.2887122389026941 0  0.2463265640426123 0.2788583817523945 0  0.2455467680584236 0.2689501343248454 0  0.2452865983613423 0.2590146544375318 0  0.2455467680584237 0.2490791745502182 0  0.2463265640426126 0.2391709271226692 0  0.247623848947319 0.2293170699723696 0  0.2494350670047924 0.2195446118368351 0  0.2517552537922335 0.2098803383445402 0  0.2545780498389321 0.2003507385973717 0  0.2578957180571343 0.1909819325658423 0  0.2616991649488624 0.1817995994960667 0  0.2659779655305604 0.172828907524733 0  0.2707203919072498 0.1640944446949895 0  0.2759134454178741 0.1556201515623273 0  0.2815428922637251 0.1474292555751825 0  0.2875933025222969 0.1395442074101132 0  0.2940480924396291 0.1319866194360571 0  0.3008895698852256 0.1247772064763297 0  0.3080989828449531 0.1179357290307334 0  0.3156565708190092 0.1114809391134012 0  0.3235416189840785 0.1054305288548295 0  0.3317325149712236 0.09980108200897844 0  0.3402068081038856 0.0946080284983544 0  0.3489412709336291 0.08986560212166514 0  0.357911962904963 0.08558680153996717 0  0.3670942959747386 0.08178335464823916 0  0.3764631020062678 0.07846568643003712 0  0.3859927017534364 0.0756428903833386 0  0.3956569752457313 0.0733227035958976 0  0.4054294333812659 0.07151148553842429 0  0.4152832905315654 0.07021420063371797 0  0.4251915379591144 0.0694344046495293 0  0.435127017846428 0.0691742349524479 0  0.4450624977337415 0.06943440464952938 0  0.4549707451612905 0.07021420063371814 0  0.4648246023115901 0.07151148553842454 0  0.4745970604471245 0.07332270359589793 0  0.4842613339394195 0.07564289038333902 0  0.4937909336865879 0.07846568643003757 0  0.5031597397181173 0.0817833546482398 0  0.5123420727878929 0.08558680153996781 0  0.5213127647592265 0.08986560212166581 0  0.53004722758897 0.0946080284983552 0  0.5385215207216321 0.09980108200897933 0  0.5467124167087771 0.1054305288548305 0  0.5545974648738462 0.1114809391134021 0  0.5621550528479023 0.1179357290307343 0  0.5693644658076298 0.1247772064763308 0  0.576205943253226 0.1319866194360582 0  0.5826607331705582 0.1395442074101142 0  0.5887111434291299 0.1474292555751835 0  0.594340590274981 0.1556201515623285 0  0.5995336437856051 0.1640944446949906 0  0.6042760701622945 0.172828907524734 0  0.6085548707439925 0.1817995994960678 0  0.6123583176357205 0.1909819325658435 0  0.6156759858539227 0.2003507385973728 0  0.6184987819006211 0.2098803383445412 0  0.6208189686880622 0.2195446118368362 0  0.6226301867455355 0.2293170699723706 0  0.6239274716502419 0.2391709271226702 0  0.6247072676344306 0.2490791745502192 0  0.203885768735257 0.3325402459548524 0  0.2015714905276826 0.3421799084407872 0  0.1977777294810124 0.3513388578120612 0  0.1925979005829864 0.3597915703383434 0  0.1861595484119405 0.3673299121842922 0  0.1786212065659918 0.373768264355338 0  0.1701684940397096 0.378948093253364 0  0.1610095446684356 0.3827418543000342 0  0.1513698821825007 0.3850561325076086 0  0.1414868670645144 0.3858339426659677 0  0.1316038519465281 0.3850561325076086 0  0.1219641894605933 0.3827418543000343 0  0.1128052400893193 0.378948093253364 0  0.1043525275630371 0.3737682643553381 0  0.09681418571708833 0.3673299121842922 0  0.09037583354604248 0.3597915703383434 0  0.08519600464801645 0.3513388578120612 0  0.08140224360134621 0.3421799084407872 0  0.07908796539377183 0.3325402459548523 0  0.07831015523541281 0.3226572308368659 0  0.07908796539377186 0.3127742157188796 0  0.08140224360134626 0.3031345532329447 0  0.08519600464801655 0.2939756038616707 0  0.0903758335460426 0.2855228913353884 0  0.0968141857
[...]
<PointData  Vectors="$u$"> 
<DataArray  type="Float64"  Name="$u$"  NumberOfComponents="3" format="ascii">1.4740246796523276e-04 2.7644362413358913e-04 0.0000000000000000e+00  0.0000000000000000e+00 0.0000000000000000e+00 0.0000000000000000e+00  -3.3663913465991713e-04 0.0000000000000000e+00 0.0000000000000000e+00  -4.5545554061333087e-05 3.0000000000000001e-03 0.0000000000000000e+00  -3.9358780301259797e-04 3.0000000000000001e-03 0.0000000000000000e+00  -5.5713595561527121e-04 7.1673253309442742e-04 0.0000000000000000e+00  5.7945007458001362e-04 4.5095774988257009e-04 0.0000000000000000e+00  5.0201892496624023e-04 8.5028185851091626e-04 0.0000000000000000e+00  -2.9646127093290576e-04 1.0400376392727696e-04 0.0000000000000000e+00  -4.5326165856178144e-04 1.3521231719493065e-05 0.0000000000000000e+00  -5.2028283806423352e-04 1.0917365029258871e-04 0.0000000000000000e+00  -7.7721430600431244e-05 1.1717070339183726e-03 0.0000000000000000e+00  -1.3726337967668915e-03 9.2835950320867690e-04 0.0000000000000000e+00  -2.1916623907152069e-04 1.8397412579897940e-03 0.0000000000000000e+00  -1.7347557436097038e-04 1.6507849444557091e-03 0.0000000000000000e+00  4.2406818844707239e-04 2.8465344087492037e-03 0.0000000000000000e+00  1.6095694594285827e-04 2.4052417633926549e-03 0.0000000000000000e+00  -2.2463872568489096e-04 2.8750286408253923e-03 0.0000000000000000e+00  -1.4485561809902086e-03 1.5804533456639869e-03 0.0000000000000000e+00  -1.1233812500269292e-03 2.0767918372025908e-03 0.0000000000000000e+00  -7.6091974550644606e-04 2.7291020716479933e-03 0.0000000000000000e+00  -6.9014162870942287e-04 2.6619115600071421e-03 0.0000000000000000e+00  1.9644895675385458e-04 3.2507778413672528e-04 0.0000000000000000e+00  2.4805094374249700e-04 3.6861537180031404e-04 0.0000000000000000e+00  2.9340530558318506e-04 4.0425741780682049e-04 0.0000000000000000e+00  3.2804690396146462e-04 4.2024615484601236e-04 0.0000000000000000e+00  3.5148815551370750e-04 4.1177691639520655e-04 0.0000000000000000e+00  3.5587553490680284e-04 3.7072019815506240e-04 0.0000000000000000e+00  3.4655598683048556e-04 3.1076889295927245e-04 0.0000000000000000e+00  3.1850295089301116e-04 2.6044271311277347e-04 0.0000000000000000e+00  2.7760236705883835e-04 2.3240250997825438e-04 0.0000000000000000e+00  2.3979556937053033e-04 2.1695338734556728e-04 0.0000000000000000e+00  2.0166465958241825e-04 1.9846052910034556e-04 0.0000000000000000e+00  1.6765706157035996e-04 1.8097121594854281e-04 0.0000000000000000e+00  1.3679203516444089e-04 1.6107185857034518e-04 0.0000000000000000e+00  1.1029938468595005e-04 1.4311646568393430e-04 0.0000000000000000e+00  8.7453249054859843e-05 1.3095865910257506e-04 0.0000000000000000e+00  7.1918591007518151e-05 1.2565946998325292e-04 0.0000000000000000e+00  6.1162890359324132e-05 1.2901215606844231e-04 0.0000000000000000e+00  5.8654872853850800e-05 1.4122823831179881e-04 0.0000000000000000e+00  6.5394597104968135e-05 1.6265886829416488e-04 0.0000000000000000e+00  8.0964904454100189e-05 1.9194629683869750e-04 0.0000000000000000e+00  1.0815832624215063e-04 2.3070281974427615e-04 0.0000000000000000e+00  0.0000000000000000e+00 0.0000000000000000e+00 0.0000000000000000e+00  -2.9038195950366947e-05 0.0000000000000000e+00 0.0000000000000000e+00  -4.1139700381622185e-05 0.0000000000000000e+00 0.0000000000000000e+00  -5.3481983020071375e-05 0.0000000000000000e+00 0.0000000000000000e+00  -6.2716661094563546e-05 0.0000000000000000e+00 0.0000000000000000e+00  -7.0895783071802163e-05 0.0000000000000000e+00 0.0000000000000000e+00  -7.7857051323833011e-05 0.0000000000000000e+00 0.0000000000000000e+00  -8.4127371007612127e-05 0.0000000000000000e+00 0.0000000000000000e+00  -8.8903811659797640e-05 0.0000000000000000e+00 0.0000000000000000e+00  -9.2022070872782016e-05 0.0000000000000000e+00 0.0000000000000000e+00  -9.4878135176479665e-05 0.0000000000000000e+00 0.0000000000000000e+00  -9.9002296509070997e-05 0.0000000000000000e+00 0.0000000000000000e+00  -1.0417453999161872e-04 0.0000000000000000e+00 0.0000000000000000e+00  -1.1058426696025955e-04 0.0000000000000000e+00 0.0000000000000000e+00  -1.1857227292376288e-04 0.0000000000000000e+00 0.0000000000000000e+00  -1.3193453268566839e-04 0.0000000000000000e+00 0.0000000000000000e+00  -1.5299711715773101e-04 0.0000000000000000e+00 0.0000000000000000e+00  -1.8153339892989392e-04 0.0000000000000000e+00 0.0000000000000000e+00  -2.0206758233068340e-04 0.0000000000000000e+00 0.0000000000000000e+00  -2.1999094396985881e-04 0.0000000000000000e+00 0.0000000000000000e+00  -2.4444365930201961e-04 0.0000000000000000e+00 0.0000000000000000e+00  -2.6043287178445799e-04 0.0000000000000000e+00 0.0000000000000000e+00  -2.6467426317949990e-04 0.0000000000000000e+00 0.0000000000000000e+00  -2.6464654902426767e-04 0.0000000000000000e+00 0.0000000000000000e+00  -2.6459869521152800e-04 0.0000000000000000e+00 0.0000000000000000e+00  -2.6946197968647807e-04 0.0000000000000000e+00 0.0000000000000000e+00  -2.7692955083781615e-04 0.0000000000000000e+00 0.0000000000000000e+00  -2.9203726638741249e-04 0.0000000000000000e+00 0.0000000000000000e+00  -3.1207276421987639e-04 0.0000000000000000e+00 0.0000000000000000e+00  -4.0058254943441346e-05 2.9117691697522594e-03 0.0000000000000000e+00  -2.2114313131042463e-05 2.8229856497647265e-03 0.0000000000000000e+00  8.4401886429950733e-06 2.7306692893621014e-03 0.0000000000000000e+00  5.4522475657077721e-05 2.6365821839129063e-03 0.0000000000000000e+00  1.1630001058530590e-04 2.5392000167627376e-03 0.0000000000000000e+00  1.9509316169697585e-04 2.4390255148491902e-03 0.0000000000000000e+00  2.9066948475580268e-04 2.3358752283613761e-03 0.0000000000000000e+00  4.0332244193309907e-04 2.2235058745070447e-03 0.0000000000000000e+00  5.4321699192222297e-04 2.1009126469043278e-03 0.0000000000000000e+00  7.2113605275198945e-04 1.9681601602141211e-03 0.0000000000000000e+00  9.4041946207371670e-04 1.8441814760408696e-03 0.0000000000000000e+00  1.1689773363956519e-03 1.7516052703806114e-03 0.0000000000000000e+00  1.3265955905020985e-03 1.7043367054934296e-03 0.0000000000000000e+00  1.3347264664573732e-03 1.6751254011563728e-03 0.0000000000000000e+00  1.2095575272102496e-03 1.6088881396537913e-03 0.0000000000000000e+00  1.0426327273819571e-03 1.4818175748571706e-03 0.0000000000000000e+00  9.4132232553401887e-04 1.3071617487251262e-03 0.0000000000000000e+00  8.8371484261848179e-04 1.1811939580418870e-03 0.0000000000000000e+00  7.2698596289005792e-04 1.0666176660465304e-03 0.0000000000000000e+00  5.8961098870627545e-04 9.1722887846219683e-04 0.0000000000000000e+00  4.9288510640362547e-04 8.0527225869517650e-04 0.0000000000000000e+00  3.9631983639745917e-04 7.0752174669680824e-04 0.0000000000000000e+00  3.0493648943194041e-04 6.1486545160575315e-04 0.0000000000000000e+00  2.2371600458666568e-04 5.2292287850135379e-04 0.0000000000000000e+00  1.5546249371059664e-04 4.3278233554569349e-04 0.0000000000000000e+00  1.0153146770002770e-04 3.4178658029242106e-04 0.0000000000000000e+00  6.2111555652041362e-05 2.5442127256063932e-04 0.0000000000000000e+00  3.4939310488186213e-05 1.6603492770443662e-04 0.0000000000000000e+00  2.2812532897928829e-05 8.5401323383293103e-05 0.0000000000000000e+00  -3.4233688665415981e-04 9.1246433011170011e-05 0.0000000000000000e+00  -3.6178952891606909e-04 1.8364551163503793e-04 0.0000000000000000e+00  -3.9459379022901118e-04 2.7873676077532091e-04 0.0000000000000000e+00  -4.4349371432380534e-04 3.7816601242415175e-04 0.0000000000000000e+00  -5.1095464578026768e-04 4.8225473925255679e-04 0.0000000000000000e+00  -6.0127818256661050e-04 5.9238134979219641e-04 0.0000000000000000e+00  -7.1709891676760042e-04 7.0533884798113097e-04 0.0000000000000000e+00  -8.6274290635681978e-04 8.2230662073339445e-04 0.0000000000000000e+00  -1.0363386517108504e-03 9.3037754514921930e-04 0.0000000000000000e+00  -1.2198990543723107e-03 1.0193542197105413e-03 0.0000000000000000e+00  -1.3750310827437650e-03 1.0801762384169209e-03 0.0000000000000000e+00  -1.4637168307676143e-03 1.1312736400448217e-03 0.0000000000000000e+00  -1.4809658331090087e-03 1.1972851530602064e-03 0.0000000000000000e+00  -1.4762665622491777e-03 1.3167644730684809e-03 0.0000000000000000e+00  -1.5249985706957466e-03 1.4473989253593863e-03 0.0000000000000000e+00  -1.3854592793609694e-03 1.5418358024145899e-03 0.0000000000000000e+00  -1.2095291465467491e-03 1.7563707706895143e-03 0.0000000000000000e+00  -1.1888436222882762e-03 1.9151921866589314e-03 0.0000000000000000e+00  -1.1399266698301387e-03 2.0009799200139257e-03 0.0000000000000000e+00  -1.0242682232673211e-03 2.0821804712031731e-03 0.0000000000000000e+00  -8.9088682351563841e-04 2.1776982366887268e-03 0.0000000000000000e+00  -7.7267930834901024e-04 2.2789115120695072e-03 0.0000000000000000e+00  -6.7200547353035950e-04 2.3770330862232102e-03 0.0000000000000000e+00  -5.8804236512089597e-04 2.4737471952337078e-03 0.0000000000000000e+00  -5.2244755897466386e-04 2.5687942016090282e-03 0.0000000000000000e+00  -4.7346628234996293e-04 2.6596026478323672e-03 0.0000000000000000e+00  -4.3752035210241152e-04 2.7473303663799625e-03 0.0000000000000000e+00  -4.1306510609927320e-04 2.8326152861523602e-03 0.0000000000000000e+00  -3.9816269751528314e-04 2.9163614214534907e-03 0.0000000000000000e+00  -3.7074179677797965e-04 3.0000000000000001e-03 0.0000000000000000e+00  -3.5024693761359220e-04 3.0000000000000001e-03 0.0000000000000000e+00  -3.3356616540816664e-04 3.0000000000000001e-03 0.0000000000000000e+00  -3.1993822443412555e-04 3.0000000000000001e-03 0.0000000000000000e+00  -3.0837671022350432e-04 3.0000000000000001e-03 0.0000000000000000e+00  -2.9850307317553110e-04 3.0000000000000001e-03 0.0000000000000000e+00  -2.9066097744660807e-04 3.0000000000000001e-03 0.0000000000000000e+00  -2.8525722751238748e-04 3.0000000000000001e-03 0.0000000000000000e+00  -2.8146891579388094e-04 3.0000000000000001e-03 0.0000000000000000e+00  -2.7933112403067713e-04 3.0000000000000001e-03 0.0000000000000000e+00  -2.7585598296702026e-04 3.0000000000000001e-03 0.0000000000000000e+00  -2.7116630379222118e-04 3.0000000000000001e-03 0.0000000000000000e+00  -2.6486785633044401e-04 3.0000000000000001e-03 0.0000000000000000e+00  -2.5777841454018209e-04 3.0000000000000001e-03 0.0000000000000000e+00  -2.5056015784862180e-04 3.0000000000000001e-03 0.0000000000000000e+00  -2.4118275843276364e-04 3.0000000000000001e-03 0.0000000000000000e+00  -2.2840546873624420e-04 3.0000000000000001e-03 0.0000000000000000e+00  -2.0955320088037230e-04 3.0000000000000001e-03 0.0000000000000000e+00  -1.8716306293355551e-04 3.0000000000000001e-03 0.0000000000000000e+00  -1.6805315788453301e-04 3.0000000000000001e-03 0.0000000000000000e+00  -1.5647930990395973e-04 3.0000000000000001e-03 0.0000000000000000e+00  -1.4597664793228503e-04 3.0000000000000001e-03 0.0000000000000000e+00  -1.3268661596230012e-04 3.0000000000000001e-03 0.0000000000000000e+00  -1.2282620669506634e-04 3.0000000000000001e-03 0.0000000000000000e+00  -1.1789677511072978e-04 3.0000000000000001e-03 0.0000000000000000e+00  -1.1146680287241377e-04 3.0000000000000001e-03 0.0000000000000000e+00  -1.0302468147761613e-04 3.0000000000000001e-03 0.0000000000000000e+00  -8.9084679092339344e-05 3.0000000000000001e-03 0.0000000000000000e+00  -6.9179518560639019e-05 3.0000000000000001e-03 0.0000000000000000e+00  -5.3018132642429364e-04 7.6489117876540414e-04 0.0000000000000000e+00  -4.9889313241547467e-04 8.1048123657116234e-04 0.0000000000000000e+00  -4.6328757049483946e-04 8.5573473997358125e-04 0.0000000000000000e+00  -4.2513959911932148e-04 8.9838259221088242e-04 0.0000000000000000e+00  -3.8502072515254725e-04 9.4084254836674080e-04 0.0000000000000000e+00  -3.4374205755624825e-04 9.8027769021454794e-04 0.0000000000000000e+00  -3.0314126988241491e-04 1.0159361846985007e-03 0.0000000000000000e+00  -2.6543098317463831e-04 1.0474572415127346e-03 0.0000000000000000e+00  -2.3123865084287391e-04 1.0737282728626892e-03 0.0000000000000000e+00  -2.0318402331142898e-04 1.0942953981370775e-03 0.0000000000000000e+00  -1.8168849148360438e-04 1.1096986132292522e-03 0.0000000000000000e+00  -1.6774926269876278e-04 1.1204051111619829e-03 0.0000000000000000e+00  -1.6187135167498894e-04 1.1270681991566616e-03 0.0000000000000000e+00  -1.6370463907836055e-04 1.1312326799100580e-03 0.0000000000000000e+00  -1.7344316141093856e-04 1.1333514695523791e-03 0.0000000000000000e+00  -1.9023582893555542e-04 1.1371399635562200e-03 0.0000000000000000e+00  -2.1121642960885217e-04 1.1451395254168505e-03 0.0000000000000000e+00  -2.3300267274159198e-04 1.1587643450306020e-03 0.0000000000000000e+00  -2.5378305909861830e-04 1.1790622965909996e-03 0.0000000000000000e+00  -2.7105473419065999e-04 1.2043049172912590e-03 0.0000000000000000e+00  -2.8592862448895584e-04 1.2350907529337283e-03 0.0000000000000000e+00  -2.9712244754657221e-04 1.2702396238252511e-03 0.0000000000000000e+00  -3.0464397243829298e-04 1.3089205467621556e-03 0.0000000000000000e+00  -3.0866648032931124e-04 1.3501824642441658e-03 0.0000000000000000e+00  -3.0927242340625594e-04 1.3927162495509272e-03 0.0000000000000000e+00  -3.0666127760360895e-04 1.4350875603245487e-03 0.0000000000000000e+00  -3.0106133975713815e-04 1.4760331035280157e-03 0.0000000000000000e+00  -2.9373802296211771e-04 1.5142209372990083e-03 0.0000000000000000e+00  -2.8482537471141142e-04 1.5494822807664431e-03 0.0000000000000000e+00  -2.7470386267067551e-04 1.5813426365338945e-03 0.0000000000000000e+00  -2.6364285931470020e-04 1.6099928946818713e-03 0.0000000000000000e+00  -2.5097720686074196e-04 1.6360290426691451e-03 0.0000000000000000e+00  -2.3560683808231377e-04 1.6590589500595581e-03 0.0000000000000000e+00  -2.1534588433516291e-04 1.6782750259123594e-03 0.0000000000000000e+00  -1.8782339025807227e-04 1.6906491408752464e-03 0.0000000000000000e+00  -1.5246082056017925e-04 1.6928098929592200e-03 0.0000000000000000e+00  -1.0971686708771141e-04 1.6829844554707408e-03 0.0000000000000000e+00  -5.9464134658284684e-05 1.6605218702565225e-03 0.0000000000000000e+00  -2.0539576749847695e-06 1.6249048200198295e-03 0.0000000000000000e+00  6.1904446917405897e-05 1.5754932275050708e-03 0.0000000000000000e+00  1.3132630228938910e-04 1.5123723048107074e-03 0.0000000000000000e+00  2.0374742998193428e-04 1.4353646536393271e-03 0.0000000000000000e+00  2.7500153776525548e-04 1.3475215036066210e-03 0.0000000000000000e+00  3.4369346562415724e-04 1.2515172076882103e-03 0.0000000000000000e+00  4.0588126529674207e-04 1.1512193068106138e-03 0.0000000000000000e+00  4.5702112593402704e-04 1.0492025008392611e-03 0.0000000000000000e+00  4.9923500939687954e-04 9.5373719165196629e-04 0.0000000000000000e+00  5.3127510473528652e-04 8.6339340782257633e-04 0.0000000000000000e+00  5.5376011319115581e-04 7.8090032235750067e-04 0.0000000000000000e+00  5.6844858719162013e-04 7.0668993412097592e-04 0.0000000000000000e+00  5.7581857986257405e-04 6.3905887540692573e-04 0.0000000000000000e+00  5.7661216453593176e-04 5.7780724756592377e-04 0.0000000000000000e+00  5.6988989457253320e-04 5.2063038089410554e-04 0.0000000000000000e+00  5.5493186838099357e-04 4.6810328241706341e-04 0.0000000000000000e+00  5.3177156523108232e-04 4.2022095263054477e-04 0.0000000000000000e+00  5.0095015144355204e-04 3.7698696541998869e-04 0.0000000000000000e+00  4.6497409369442385e-04 3.3927699486550238e-04 0.0000000000000000e+00  4.2675861127003379e-04 3.0578379063076101e-04 0.0000000000000000e+00  3.8743541676129561e-04 2.7376042355751860e-04 0.0000000000000000e+00  3.4694350167055921e-04 2.4237666328356830e-04 0.0000000000000000e+00  3.0381979732118150e-04 2.0982408752490635e-04 0.0000000000000000e+00  2.5661122721210337e-04 1.7805788272707483e-04 0.0000000000000000e+00  2.0717208377281650e-04 1.5076688847329609e-04 0.0000000000000000e+00  1.6054060828240484e-04 1.2885237601515667e-04 0.0000000000000000e+00  1.2058240572835103e-04 1.1280846478990908e-04 0.0000000000000000e+00  8.9612017851720138e-05 1.0004214684273657e-04 0.0000000000000000e+00  6.6448499511350710e-05 8.8695273130921841e-05 0.0000000000000000e+00  4.8765919638954071e-05 7.7351727024643625e-05 0.0000000000000000e+00  3.4321281643055366e-05 6.6019767402144237e-05 0.0000000000000000e+00  2.1575774491450993e-05 5.4852897629374641e-05 0.0000000000000000e+00  9.7923254321361955e-06 4.4377317237279976e-05 0.0000000000000000e+00  -1.3724557224187641e-06 3.4941912711927978e-05 0.0000000000000000e+00  -1.1917729587882962e-05 2.6529956833596716e-05 0.0000000000000000e+00  -2.1988019558868014e-05 1.9389306957827615e-05 0.0000000000000000e+00  -3.1392714547287828e-05 1.3568187176051728e-05 0.0000000000000000e+00  -4.0127698490603787e-05 8.7412668954813455e-06 0.0000000000000000e+00  -4.8205708294135877e-05 5.1845403769922483e-06 0.0000000000000000e+00  -5.5509265439226256e-05 2.4611083842681990e-06 0.0000000000000000e+00  -6.2157683408041198e-05 6.2940586401591633e-07 0.0000000000000000e+00  -6.8217895356477464e-05 -4.7706231552886783e-07 0.0000000000000000e+00  -7.3557849575659905e-05 -1.0216614393440412e-06 0.0000000000000000e+00  -7.8450299703020115e-05 -1.1335074737893906e-06 0.0000000000000000e+00  -8.2806260829965841e-05 -9.0826040744658489e-07 0.0000000000000000e+00  -8.6786839737991957e-05 -5.1158293432815129e-07 0.0000000000000000e+00  -9.0438120422519291e-05 1.5832425929710849e-08 0.0000000000000000e+00  -9.3912484626192222e-05 5.6459305786390931e-07 0.0000000000000000e+00  -9.7187256981693185e-05 1.1488363873065474e-06 0.0000000000000000e+00  -1.0037612028293867e-04 1.6594145351621188e-06 0.0000000000000000e+00  -1.0358327600877565e-04 2.2053464008959348e-06 0.0000000000000000e+00  -1.0675850103784595e-04 2.7675360968799811e-06 0.0000000000000000e+00  -1.1003727685888134e-04 3.4436478972257503e-06 0.0000000000000000e+00  -1.1332141958319476e-04 4.2872138207251906e-06 0.0000000000000000e+00  -1.1664988020582889e-04 5.4112676889594968e-06 0.0000000000000000e+00  -1.2006319459569019e-04 7.0314455182400316e-06 0.0000000000000000e+00  -1.2324302747985228e-04 9.1175727651839086e-06 0.0000000000000000e+00  -1.2630723718177401e-04 1.1865169605729237e-05 0.0000000000000000e+00  -1.2892727173170824e-04 1.5255812073761413e-05 0.0000000000000000e+00  -1.3113576769579967e-04 1.9251746793411337e-05 0.0000000000000000e+00  -1.3295359662561664e-04 2.3784935464198608e-05 0.0000000000000000e+00  -1.3427124789694087e-04 2.8888394609838602e-05 0.0000000000000000e+00  -1.3567418980813106e-04 3.4105391779542923e-05 0.0000000000000000e+00  -1.3794101060177712e-04 3.9699045427429139e-05 0.0000000000000000e+00  -1.4290978540317033e-04 4.5623499843088713e-05 0.0000000000000000e+00  -1.5200742655374852e-04 5.3666136282593294e-05 0.0000000000000000e+00  -1.6823012030482221e-04 6.4846697659292908e-05 0.0000000000000000e+00  -1.9077062294866175e-04 8.2689550873552063e-05 0.0000000000000000e+00  -2.1988572312517187e-04 1.0724549403397801e-04 0.0000000000000000e+00  -2.5158366642855047e-04 1.3828922328192416e-04 0.0000000000000000e+00  -2.8471379690455284e-04 1.7231569138158765e-04 0.0000000000000000e+00  -3.1972370301780164e-04 2.0686365817212997e-04 0.0000000000000000e+00  -3.5897958613063398e-04 2.4182374880709232e-04 0.0000000000000000e+00  -4.0344379874538284e-04 2.7973996536689942e-04 0.0000000000000000e+00  -4.5153434421461825e-04 3.2324983237059498e-04 0.0000000000000000e+00  -4.9869511088329794e-04 3.7347121346223113e-04 0.0000000000000000e+00  -5.3947261619124781e-04 4.3023672985867401e-04 0.0000000000000000e+00  -5.6903215338842644e-04 4.9022546076750808e-04 0.0000000000000000e+00  -5.8509836371621062e-04 5.5085481113482276e-04 0.0000000000000000e+00  -5.8681025604703557e-04 6.1016043392261778e-04 0.0000000000000000e+00  -5.7675993729295499e-04 6.6466310162309103e-04 0.0000000000000000e+00  5.8543094552196862e-04 4.4911756608311497e-04 0.0000000000000000e+00  5.7713274465820462e-04 4.4037183428069341e-04 0.0000000000000000e+00  5.5564459676478938e-04 4.2711566476416661e-04 0.0000000000000000e+00  5.2469196630535982e-04 4.141