<?xml version="1.0"?>
<VTKFile type="UnstructuredGrid"  version="0.1"  >
<UnstructuredGrid>
<Piece  NumberOfPoints="3879" NumberOfCells="6881">
<Points>
<DataArray  type="Float64"  NumberOfComponents="3"  format="ascii">0.207524190028372 0.2122422770132111 0  0 0 0  1 0 0  0 1 0  1 1 0  0.6249674373315121 0.2590146544375328 0  0.204663578893616 0.322657230836866 0  0.09605577522599912 0.4018360776629776 0  0.671351124618251 0.08738059142081528 0  0.7842102907526436 0.1666439122351055 0  0.8512483166984784 0.1985391006160637 0  0.6418797837909295 0.4423157172830166 0  0.9292488447973215 0.3869277868069776 0  0.3197896119137055 0.5509935221980964 0  0.3979283685568406 0.5079871620336583 0  0.1572503457993085 0.7345153245035532 0  0.3032914287999163 0.7872981443735918 0  0.3549464687598876 0.8870324161721976 0  0.9691791685505482 0.5159450047798622 0  0.9447564590470373 0.6146164845729313 0  0.7687603548175107 0.7176858127488035 0  0.8926159261971183 0.7422924070424508 0  0.2061587782631535 0.2217389244366831 0  0.2021731605082994 0.2304662099646423 0  0.1958902278109265 0.2377171008267789 0  0.1878189860121365 0.2429041729681512 0  0.1786133191209442 0.2456072006525708 0  0.1690190155206647 0.2456072006525708 0  0.1598133486294724 0.2429041729681512 0  0.1517421068306824 0.2377171008267789 0  0.1454591741333096 0.2304662099646422 0  0.1414735563784554 0.221738924436683 0  0.1401081446132369 0.212242277013211 0  0.1414735563784555 0.202745629589739 0  0.1454591741333096 0.1940183440617798 0  0.1517421068306825 0.1867674531996431 0  0.1598133486294725 0.1815803810582709 0  0.1690190155206649 0.1788773533738513 0  0.1786133191209443 0.1788773533738514 0  0.1878189860121367 0.181580381058271 0  0.1958902278109266 0.1867674531996433 0  0.2021731605082994 0.19401834406178 0  0.2061587782631535 0.2027456295897391 0  0.03333333333333333 0 0  0.06666666666666667 0 0  0.1 0 0  0.1333333333333333 0 0  0.1666666666666667 0 0  0.2 0 0  0.2333333333333333 0 0  0.2666666666666667 0 0  0.3 0 0  0.3333333333333333 0 0  0.3666666666666666 0 0  0.4 0 0  0.4333333333333333 0 0  0.4666666666666667 0 0  0.5 0 0  0.5333333333333333 0 0  0.5666666666666667 0 0  0.6 0 0  0.6333333333333333 0 0  0.6666666666666666 0 0  0.7 0 0  0.7333333333333333 0 0  0.7666666666666667 0 0  0.8 0 0  0.8333333333333334 0 0  0.8666666666666667 0 0  0.9 0 0  0.9333333333333333 0 0  0.9666666666666667 0 0  0 0.9666666666666667 0  0 0.9333333333333333 0  0 0.9 0  0 0.8666666666666667 0  0 0.8333333333333334 0  0 0.8 0  0 0.7666666666666666 0  0 0.7333333333333334 0  0 0.7 0  0 0.6666666666666667 0  0 0.6333333333333333 0  0 0.6 0  0 0.5666666666666667 0  0 0.5333333333333333 0  0 0.5 0  0 0.4666666666666667 0  0 0.4333333333333333 0  0 0.4 0  0 0.3666666666666667 0  0 0.3333333333333334 0  0 0.3 0  0 0.2666666666666667 0  0 0.2333333333333333 0  0 0.2 0  0 0.1666666666666666 0  0 0.1333333333333333 0  0 0.09999999999999998 0  0 0.06666666666666665 0  0 0.03333333333333333 0  1 0.03333333333333333 0  1 0.06666666666666667 0  1 0.1 0  1 0.1333333333333333 0  1 0.1666666666666667 0  1 0.2 0  1 0.2333333333333333 0  1 0.2666666666666667 0  1 0.3 0  1 0.3333333333333333 0  1 0.3666666666666666 0  1 0.4 0  1 0.4333333333333333 0  1 0.4666666666666667 0  1 0.5 0  1 0.5333333333333333 0  1 0.5666666666666667 0  1 0.6 0  1 0.6333333333333333 0  1 0.6666666666666666 0  1 0.7 0  1 0.7333333333333333 0  1 0.7666666666666667 0  1 0.8 0  1 0.8333333333333334 0  1 0.8666666666666667 0  1 0.9 0  1 0.9333333333333333 0  1 0.9666666666666667 0  0.9666666666666667 1 0  0.9333333333333333 1 0  0.9 1 0  0.8666666666666667 1 0  0.8333333333333334 1 0  0.8 1 0  0.7666666666666666 1 0  0.7333333333333334 1 0  0.7 1 0  0.6666666666666667 1 0  0.6333333333333333 1 0  0.6 1 0  0.5666666666666667 1 0  0.5333333333333333 1 0  0.5 1 0  0.4666666666666667 1 0  0.4333333333333333 1 0  0.4 1 0  0.3666666666666667 1 0  0.3333333333333334 1 0  0.3 1 0  0.2666666666666667 1 0  0.2333333333333333 1 0  0.2 1 0  0.1666666666666666 1 0  0.1333333333333333 1 0  0.09999999999999998 1 0  0.06666666666666665 1 0  0.03333333333333333 1 0  0.6247072676344306 0.2689501343248463 0  0.6239274716502419 0.2788583817523955 0  0.6226301867455355 0.2887122389026952 0  0.6208189686880621 0.2984846970382296 0  0.6184987819006211 0.3081489705305245 0  0.6156759858539226 0.317678570277693 0  0.6123583176357204 0.3270473763092224 0  0.6085548707439923 0.3362297093789981 0  0.6042760701622942 0.3452004013503318 0  0.5995336437856049 0.3539348641800754 0  0.5943405902749808 0.3624091573127375 0  0.5887111434291297 0.3706000532998825 0  0.582660733170558 0.3784851014649517 0  0.5762059432532257 0.3860426894390078 0  0.5693644658076293 0.3932521023987353 0  0.5621550528479018 0.4000935798443317 0  0.5545974648738458 0.4065483697616639 0  0.5467124167087765 0.4125987800202355 0  0.5385215207216315 0.4182282268660866 0  0.5300472275889694 0.4234212803767108 0  0.5213127647592257 0.4281637067534002 0  0.512342072787892 0.4324425073350981 0  0.5031597397181163 0.4362459542268262 0  0.493790933686587 0.4395636224450283 0  0.4842613339394185 0.4423864184917269 0  0.4745970604471235 0.4447066052791678 0  0.4648246023115891 0.4465178233366412 0  0.4549707451612894 0.4478151082413475 0  0.4450624977337403 0.4485949042255363 0  0.4351270178464268 0.4488550739226177 0  0.4251915379591132 0.4485949042255363 0  0.4152832905315641 0.4478151082413475 0  0.4054294333812644 0.4465178233366411 0  0.39565697524573 0.4447066052791677 0  0.385992701753435 0.4423864184917267 0  0.3764631020062665 0.4395636224450281 0  0.3670942959747371 0.4362459542268259 0  0.3579119629049616 0.4324425073350978 0  0.3489412709336278 0.4281637067533998 0  0.3402068081038843 0.4234212803767103 0  0.3317325149712221 0.4182282268660862 0  0.3235416189840771 0.412598780020235 0  0.3156565708190078 0.4065483697616634 0  0.3080989828449519 0.4000935798443311 0  0.3008895698852244 0.3932521023987346 0  0.2940480924396279 0.3860426894390071 0  0.2875933025222958 0.3784851014649511 0  0.2815428922637242 0.3706000532998818 0  0.2759134454178731 0.3624091573127368 0  0.2707203919072489 0.3539348641800746 0  0.2659779655305596 0.3452004013503309 0  0.2616991649488616 0.3362297093789972 0  0.2578957180571336 0.3270473763092215 0  0.2545780498389315 0.3176785702776921 0  0.251755253792233 0.3081489705305236 0  0.249435067004792 0.2984846970382286 0  0.2476238489473186 0.2887122389026941 0  0.2463265640426123 0.2788583817523945 0  0.2455467680584236 0.2689501343248454 0  0.2452865983613423 0.2590146544375318 0  0.2455467680584237 0.2490791745502182 0  0.2463265640426126 0.2391709271226692 0  0.247623848947319 0.2293170699723696 0  0.2494350670047924 0.2195446118368351 0  0.2517552537922335 0.2098803383445402 0  0.2545780498389321 0.2003507385973717 0  0.2578957180571343 0.1909819325658423 0  0.2616991649488624 0.1817995994960667 0  0.2659779655305604 0.172828907524733 0  0.2707203919072498 0.1640944446949895 0  0.2759134454178741 0.1556201515623273 0  0.2815428922637251 0.1474292555751825 0  0.2875933025222969 0.1395442074101132 0  0.2940480924396291 0.1319866194360571 0  0.3008895698852256 0.1247772064763297 0  0.3080989828449531 0.1179357290307334 0  0.3156565708190092 0.1114809391134012 0  0.3235416189840785 0.1054305288548295 0  0.3317325149712236 0.09980108200897844 0  0.3402068081038856 0.0946080284983544 0  0.3489412709336291 0.08986560212166514 0  0.357911962904963 0.08558680153996717 0  0.3670942959747386 0.08178335464823916 0  0.3764631020062678 0.07846568643003712 0  0.3859927017534364 0.0756428903833386 0  0.3956569752457313 0.0733227035958976 0  0.4054294333812659 0.07151148553842429 0  0.4152832905315654 0.07021420063371797 0  0.4251915379591144 0.0694344046495293 0  0.435127017846428 0.0691742349524479 0  0.4450624977337415 0.06943440464952938 0  0.4549707451612905 0.07021420063371814 0  0.4648246023115901 0.07151148553842454 0  0.4745970604471245 0.07332270359589793 0  0.4842613339394195 0.07564289038333902 0  0.4937909336865879 0.07846568643003757 0  0.5031597397181173 0.0817833546482398 0  0.5123420727878929 0.08558680153996781 0  0.5213127647592265 0.08986560212166581 0  0.53004722758897 0.0946080284983552 0  0.5385215207216321 0.09980108200897933 0  0.5467124167087771 0.1054305288548305 0  0.5545974648738462 0.1114809391134021 0  0.5621550528479023 0.1179357290307343 0  0.5693644658076298 0.1247772064763308 0  0.576205943253226 0.1319866194360582 0  0.5826607331705582 0.1395442074101142 0  0.5887111434291299 0.1474292555751835 0  0.594340590274981 0.1556201515623285 0  0.5995336437856051 0.1640944446949906 0  0.6042760701622945 0.172828907524734 0  0.6085548707439925 0.1817995994960678 0  0.6123583176357205 0.1909819325658435 0  0.6156759858539227 0.2003507385973728 0  0.6184987819006211 0.2098803383445412 0  0.6208189686880622 0.2195446118368362 0  0.6226301867455355 0.2293170699723706 0  0.6239274716502419 0.2391709271226702 0  0.6247072676344306 0.2490791745502192 0  0.203885768735257 0.3325402459548524 0  0.2015714905276826 0.3421799084407872 0  0.1977777294810124 0.3513388578120612 0  0.1925979005829864 0.3597915703383434 0  0.1861595484119405 0.3673299121842922 0  0.1786212065659918 0.373768264355338 0  0.1701684940397096 0.378948093253364 0  0.1610095446684356 0.3827418543000342 0  0.1513698821825007 0.3850561325076086 0  0.1414868670645144 0.3858339426659677 0  0.1316038519465281 0.3850561325076086 0  0.1219641894605933 0.3827418543000343 0  0.1128052400893193 0.378948093253364 0  0.1043525275630371 0.3737682643553381 0  0.09681418571708833 0.3673299121842922 0  0.09037583354604248 0.3597915703383434 0  0.08519600464801645 0.3513388578120612 0  0.08140224360134621 0.3421799084407872 0  0.07908796539377183 0.3325402459548523 0  0.07831015523541281 0.3226572308368659 0  0.07908796539377186 0.3127742157188796 0  0.08140224360134626 0.3031345532329447 0  0.08519600464801655 0.2939756038616707 0  0.0903758335460426 0.2855228913353884 0  0.0968141857
[...]
<PointData  Vectors="$u$"> 
<DataArray  type="Float64"  Name="$u$"  NumberOfComponents="3" format="ascii">7.4345370167201613e-05 1.3804299531888846e-04 0.0000000000000000e+00  0.0000000000000000e+00 0.0000000000000000e+00 0.0000000000000000e+00  -1.6814914153712063e-04 0.0000000000000000e+00 0.0000000000000000e+00  -2.1713276038652707e-05 1.5000000000000000e-03 0.0000000000000000e+00  -1.9587286560198393e-04 1.5000000000000000e-03 0.0000000000000000e+00  -2.7779197826848998e-04 3.5754955945418873e-04 0.0000000000000000e+00  2.8890977768626479e-04 2.2569999958843321e-04 0.0000000000000000e+00  2.5081314600209644e-04 4.2415001569184451e-04 0.0000000000000000e+00  -1.4778215690825156e-04 5.2677030212387561e-05 0.0000000000000000e+00  -2.2654995837809757e-04 7.1048825484727741e-06 0.0000000000000000e+00  -2.5981234636719426e-04 5.5309452846952545e-05 0.0000000000000000e+00  -3.8535833440587719e-05 5.8505266998295721e-04 0.0000000000000000e+00  -6.8367007427255137e-04 4.6588265396109788e-04 0.0000000000000000e+00  -1.0895393858899302e-04 9.1979666769248676e-04 0.0000000000000000e+00  -8.6534657998451375e-05 8.2537164309538975e-04 0.0000000000000000e+00  2.1187231617235093e-04 1.4225295702082026e-03 0.0000000000000000e+00  8.1293513169999911e-05 1.2035491144923819e-03 0.0000000000000000e+00  -1.1076043161432064e-04 1.4371683548435477e-03 0.0000000000000000e+00  -7.1573922109178156e-04 7.8942589059891890e-04 0.0000000000000000e+00  -5.5905095015542478e-04 1.0373268960202615e-03 0.0000000000000000e+00  -3.7933257539250628e-04 1.3637371674859152e-03 0.0000000000000000e+00  -3.4400330299096284e-04 1.3300005105551427e-03 0.0000000000000000e+00  9.8626104039436219e-05 1.6207084291586422e-04 0.0000000000000000e+00  1.2437206750351491e-04 1.8383646024613362e-04 0.0000000000000000e+00  1.4691884363590208e-04 2.0130894460127475e-04 0.0000000000000000e+00  1.6405110918544925e-04 2.0971153983686725e-04 0.0000000000000000e+00  1.7476726199766390e-04 2.0518230951324908e-04 0.0000000000000000e+00  1.7700498258996453e-04 1.8519176287475964e-04 0.0000000000000000e+00  1.7228010724009918e-04 1.5566813499383374e-04 0.0000000000000000e+00  1.5833900298841319e-04 1.3115089677274901e-04 0.0000000000000000e+00  1.3858595518049588e-04 1.1737922049334971e-04 0.0000000000000000e+00  1.1962075744321718e-04 1.0929589914206095e-04 0.0000000000000000e+00  1.0069682303098959e-04 1.0025880226094516e-04 0.0000000000000000e+00  8.3793622117097640e-05 9.1216200550072780e-05 0.0000000000000000e+00  6.8372847437118663e-05 8.1223538991870943e-05 0.0000000000000000e+00  5.5094432291947910e-05 7.2258754534424170e-05 0.0000000000000000e+00  4.3902507850767279e-05 6.6061763661746662e-05 0.0000000000000000e+00  3.6213984016937412e-05 6.3335386609097847e-05 0.0000000000000000e+00  3.1024755634897603e-05 6.5014440141121843e-05 0.0000000000000000e+00  2.9917833164040423e-05 7.1054004107944888e-05 0.0000000000000000e+00  3.3158138978792853e-05 8.1835273127803148e-05 0.0000000000000000e+00  4.1254271643448737e-05 9.6404859061495612e-05 0.0000000000000000e+00  5.4289963832322488e-05 1.1552825515378160e-04 0.0000000000000000e+00  0.0000000000000000e+00 0.0000000000000000e+00 0.0000000000000000e+00  -1.3822217532699299e-05 0.0000000000000000e+00 0.0000000000000000e+00  -2.0482006419799189e-05 0.0000000000000000e+00 0.0000000000000000e+00  -2.6470474585554302e-05 0.0000000000000000e+00 0.0000000000000000e+00  -3.1278268976044882e-05 0.0000000000000000e+00 0.0000000000000000e+00  -3.5372915146896962e-05 0.0000000000000000e+00 0.0000000000000000e+00  -3.8887633787844508e-05 0.0000000000000000e+00 0.0000000000000000e+00  -4.2011761899381321e-05 0.0000000000000000e+00 0.0000000000000000e+00  -4.4459414752948642e-05 0.0000000000000000e+00 0.0000000000000000e+00  -4.6015463061404697e-05 0.0000000000000000e+00 0.0000000000000000e+00  -4.7461471384085789e-05 0.0000000000000000e+00 0.0000000000000000e+00  -4.9519453995966395e-05 0.0000000000000000e+00 0.0000000000000000e+00  -5.2117806069286611e-05 0.0000000000000000e+00 0.0000000000000000e+00  -5.5344983846610792e-05 0.0000000000000000e+00 0.0000000000000000e+00  -5.9344643446353287e-05 0.0000000000000000e+00 0.0000000000000000e+00  -6.6053332415082601e-05 0.0000000000000000e+00 0.0000000000000000e+00  -7.6497968613343405e-05 0.0000000000000000e+00 0.0000000000000000e+00  -9.0682336994201272e-05 0.0000000000000000e+00 0.0000000000000000e+00  -1.0089711938020571e-04 0.0000000000000000e+00 0.0000000000000000e+00  -1.0994397367475999e-04 0.0000000000000000e+00 0.0000000000000000e+00  -1.2205220859537820e-04 0.0000000000000000e+00 0.0000000000000000e+00  -1.2998084228431526e-04 0.0000000000000000e+00 0.0000000000000000e+00  -1.3213834564633012e-04 0.0000000000000000e+00 0.0000000000000000e+00  -1.3204031220158418e-04 0.0000000000000000e+00 0.0000000000000000e+00  -1.3207935226952386e-04 0.0000000000000000e+00 0.0000000000000000e+00  -1.3447325794004318e-04 0.0000000000000000e+00 0.0000000000000000e+00  -1.3826642525704771e-04 0.0000000000000000e+00 0.0000000000000000e+00  -1.4588073101547350e-04 0.0000000000000000e+00 0.0000000000000000e+00  -1.5593269712360476e-04 0.0000000000000000e+00 0.0000000000000000e+00  -1.8877851948281083e-05 1.4558460217918804e-03 0.0000000000000000e+00  -1.0000265094034395e-05 1.4114276594352072e-03 0.0000000000000000e+00  5.3461744277347963e-06 1.3652051676373159e-03 0.0000000000000000e+00  2.8325629611544904e-05 1.3181838158077795e-03 0.0000000000000000e+00  5.9240204295776492e-05 1.2694374355915732e-03 0.0000000000000000e+00  9.8497899495034733e-05 1.2194448718126603e-03 0.0000000000000000e+00  1.4620789104891784e-04 1.1676779156727377e-03 0.0000000000000000e+00  2.0252828099926509e-04 1.1116772071853968e-03 0.0000000000000000e+00  2.7220130867219177e-04 1.0502173760051127e-03 0.0000000000000000e+00  3.6118258703483701e-04 9.8420309078057371e-04 0.0000000000000000e+00  4.7000874463651884e-04 9.2286992067189310e-04 0.0000000000000000e+00  5.8357411997840374e-04 8.7566785364622977e-04 0.0000000000000000e+00  6.6158463654664189e-04 8.5245713795060064e-04 0.0000000000000000e+00  6.6547412077550667e-04 8.3672743519529755e-04 0.0000000000000000e+00  6.0310240643736727e-04 8.0319555616456854e-04 0.0000000000000000e+00  5.2052240133265801e-04 7.3956360440705765e-04 0.0000000000000000e+00  4.6848110173794357e-04 6.5501185551558670e-04 0.0000000000000000e+00  4.3779047524182329e-04 5.9020083144443645e-04 0.0000000000000000e+00  3.6109276238254970e-04 5.3177693230647147e-04 0.0000000000000000e+00  2.9358246732871806e-04 4.5845623323046206e-04 0.0000000000000000e+00  2.4533080912767348e-04 4.0240147545191274e-04 0.0000000000000000e+00  1.9759285901216469e-04 3.5354448461399288e-04 0.0000000000000000e+00  1.5218659101276738e-04 3.0720568658391874e-04 0.0000000000000000e+00  1.1186392063748966e-04 2.6132907718926055e-04 0.0000000000000000e+00  7.7873759147948230e-05 2.1632428697564751e-04 0.0000000000000000e+00  5.1002285756423634e-05 1.7100206238676357e-04 0.0000000000000000e+00  3.1319936309633290e-05 1.2710652474575429e-04 0.0000000000000000e+00  1.7832412210131593e-05 8.3350261052612463e-05 0.0000000000000000e+00  1.1373161268036469e-05 4.2501690937667566e-05 0.0000000000000000e+00  -1.7110768923850550e-04 4.5780520864139890e-05 0.0000000000000000e+00  -1.8078021295176556e-04 9.1915765475112770e-05 0.0000000000000000e+00  -1.9720280005944106e-04 1.3956266341617134e-04 0.0000000000000000e+00  -2.2166510929302329e-04 1.8941802816410387e-04 0.0000000000000000e+00  -2.5538632350213082e-04 2.4133090123920666e-04 0.0000000000000000e+00  -3.0035156541768942e-04 2.9635893586724469e-04 0.0000000000000000e+00  -3.5829904797327256e-04 3.5298107382431292e-04 0.0000000000000000e+00  -4.3085811874492589e-04 4.1117031012030431e-04 0.0000000000000000e+00  -5.1734913322455342e-04 4.6507341063194423e-04 0.0000000000000000e+00  -6.0861899492459573e-04 5.0932295235144379e-04 0.0000000000000000e+00  -6.8512540228998265e-04 5.3972567667787369e-04 0.0000000000000000e+00  -7.2878406779861482e-04 5.6623715036777838e-04 0.0000000000000000e+00  -7.3712574641126389e-04 5.9946666596134770e-04 0.0000000000000000e+00  -7.3431886761048527e-04 6.5768307127638188e-04 0.0000000000000000e+00  -7.5461061986018267e-04 7.2263412422861372e-04 0.0000000000000000e+00  -6.8713604788859183e-04 7.7357772840015476e-04 0.0000000000000000e+00  -6.0244747767960907e-04 8.7792865163069736e-04 0.0000000000000000e+00  -5.9161249838255456e-04 9.5656499503627649e-04 0.0000000000000000e+00  -5.6764814309494933e-04 1.0001539295354444e-03 0.0000000000000000e+00  -5.1028005770891837e-04 1.0409926013801340e-03 0.0000000000000000e+00  -4.4418496872144071e-04 1.0889083430459072e-03 0.0000000000000000e+00  -3.8540401729907146e-04 1.1390696904856807e-03 0.0000000000000000e+00  -3.3509938964777932e-04 1.1881095674532501e-03 0.0000000000000000e+00  -2.9322703010345170e-04 1.2365899876707308e-03 0.0000000000000000e+00  -2.6051577966556075e-04 1.2840548662286524e-03 0.0000000000000000e+00  -2.3595375738417830e-04 1.3294085900346841e-03 0.0000000000000000e+00  -2.1793487206790623e-04 1.3733613844002473e-03 0.0000000000000000e+00  -2.0568010739307417e-04 1.4161778392658868e-03 0.0000000000000000e+00  -1.9827250751782880e-04 1.4580341000410950e-03 0.0000000000000000e+00  -1.8446025101854225e-04 1.5000000000000000e-03 0.0000000000000000e+00  -1.7421444368449936e-04 1.5000000000000000e-03 0.0000000000000000e+00  -1.6580961129404208e-04 1.5000000000000000e-03 0.0000000000000000e+00  -1.5898027233886562e-04 1.5000000000000000e-03 0.0000000000000000e+00  -1.5316118786279099e-04 1.5000000000000000e-03 0.0000000000000000e+00  -1.4821557608640033e-04 1.5000000000000000e-03 0.0000000000000000e+00  -1.4427627771440452e-04 1.5000000000000000e-03 0.0000000000000000e+00  -1.4151498955815986e-04 1.5000000000000000e-03 0.0000000000000000e+00  -1.3964654819854388e-04 1.5000000000000000e-03 0.0000000000000000e+00  -1.3852485768684679e-04 1.5000000000000000e-03 0.0000000000000000e+00  -1.3681234474661812e-04 1.5000000000000000e-03 0.0000000000000000e+00  -1.3443466394398538e-04 1.5000000000000000e-03 0.0000000000000000e+00  -1.3127823463757559e-04 1.5000000000000000e-03 0.0000000000000000e+00  -1.2772766636308516e-04 1.5000000000000000e-03 0.0000000000000000e+00  -1.2410516798214133e-04 1.5000000000000000e-03 0.0000000000000000e+00  -1.1941013900677923e-04 1.5000000000000000e-03 0.0000000000000000e+00  -1.1303301401370918e-04 1.5000000000000000e-03 0.0000000000000000e+00  -1.0363555716307159e-04 1.5000000000000000e-03 0.0000000000000000e+00  -9.2498143609327535e-05 1.5000000000000000e-03 0.0000000000000000e+00  -8.2947944439942475e-05 1.5000000000000000e-03 0.0000000000000000e+00  -7.7140765550875551e-05 1.5000000000000000e-03 0.0000000000000000e+00  -7.1873991773810708e-05 1.5000000000000000e-03 0.0000000000000000e+00  -6.5249916841211199e-05 1.5000000000000000e-03 0.0000000000000000e+00  -6.0398005920963339e-05 1.5000000000000000e-03 0.0000000000000000e+00  -5.7881794960913236e-05 1.5000000000000000e-03 0.0000000000000000e+00  -5.4682249887567198e-05 1.5000000000000000e-03 0.0000000000000000e+00  -5.0412098810099315e-05 1.5000000000000000e-03 0.0000000000000000e+00  -4.3461754899488172e-05 1.5000000000000000e-03 0.0000000000000000e+00  -3.3491459624448949e-05 1.5000000000000000e-03 0.0000000000000000e+00  -2.6433654406005433e-04 3.8172808916590666e-04 0.0000000000000000e+00  -2.4873293550264837e-04 4.0451244137310808e-04 0.0000000000000000e+00  -2.3096332769530849e-04 4.2707732471720781e-04 0.0000000000000000e+00  -2.1189490177702907e-04 4.4848459212937870e-04 0.0000000000000000e+00  -1.9188338150183528e-04 4.6965430850947568e-04 0.0000000000000000e+00  -1.7128940220987725e-04 4.8942426408811164e-04 0.0000000000000000e+00  -1.5106352904412131e-04 5.0730103707828525e-04 0.0000000000000000e+00  -1.3222753673264729e-04 5.2308652161262080e-04 0.0000000000000000e+00  -1.1516324317856929e-04 5.3624194366856735e-04 0.0000000000000000e+00  -1.0119277674910376e-04 5.4657424278439293e-04 0.0000000000000000e+00  -9.0479691675256267e-05 5.5431606195229606e-04 0.0000000000000000e+00  -8.3541965535208188e-05 5.5971540187080737e-04 0.0000000000000000e+00  -8.0610197142038875e-05 5.6306967554727570e-04 0.0000000000000000e+00  -8.1599888370157862e-05 5.6522525063998981e-04 0.0000000000000000e+00  -8.6477621503249411e-05 5.6642185705990417e-04 0.0000000000000000e+00  -9.4782812200697229e-05 5.6841041276953675e-04 0.0000000000000000e+00  -1.0517276005651695e-04 5.7246383786868030e-04 0.0000000000000000e+00  -1.1600329084161336e-04 5.7931765419665549e-04 0.0000000000000000e+00  -1.2632890504645010e-04 5.8942568054148534e-04 0.0000000000000000e+00  -1.3489541927411982e-04 6.0205194882854149e-04 0.0000000000000000e+00  -1.4232608517572939e-04 6.1739254913125872e-04 0.0000000000000000e+00  -1.4792068439885129e-04 6.3495444199946553e-04 0.0000000000000000e+00  -1.5169461273086801e-04 6.5429143511578367e-04 0.0000000000000000e+00  -1.5370487422176353e-04 6.7488368366830744e-04 0.0000000000000000e+00  -1.5402976952719161e-04 6.9613360251176556e-04 0.0000000000000000e+00  -1.5273811096966092e-04 7.1729442995713245e-04 0.0000000000000000e+00  -1.4999745637576972e-04 7.3777466249478956e-04 0.0000000000000000e+00  -1.4634714166530881e-04 7.5686621695959984e-04 0.0000000000000000e+00  -1.4191189224992996e-04 7.7450326758172333e-04 0.0000000000000000e+00  -1.3686337230822354e-04 7.9043920070623265e-04 0.0000000000000000e+00  -1.3130625798118490e-04 8.0477613880152615e-04 0.0000000000000000e+00  -1.2494100972806216e-04 8.1775556395550478e-04 0.0000000000000000e+00  -1.1723143019440263e-04 8.2923793257543401e-04 0.0000000000000000e+00  -1.0704144618990655e-04 8.3875705995886240e-04 0.0000000000000000e+00  -9.3322480493300135e-05 8.4482670583565839e-04 0.0000000000000000e+00  -7.5728308402513329e-05 8.4586892959042292e-04 0.0000000000000000e+00  -5.4435274966582750e-05 8.4096073134573459e-04 0.0000000000000000e+00  -2.9410810891567812e-05 8.2975820534948318e-04 0.0000000000000000e+00  -8.0085622315734722e-07 8.1196144797226414e-04 0.0000000000000000e+00  3.1122172098055836e-05 7.8730678392035841e-04 0.0000000000000000e+00  6.5672756704558786e-05 7.5574439637704841e-04 0.0000000000000000e+00  1.0176717628340204e-04 7.1730829067786453e-04 0.0000000000000000e+00  1.3729374943907018e-04 6.7347481456335250e-04 0.0000000000000000e+00  1.7154666131137463e-04 6.2553595343033629e-04 0.0000000000000000e+00  2.0247587250421997e-04 5.7544249991804241e-04 0.0000000000000000e+00  2.2798677409097533e-04 5.2452669643267768e-04 0.0000000000000000e+00  2.4903031744530731e-04 4.7687581535002212e-04 0.0000000000000000e+00  2.6501737364305127e-04 4.3184325365805095e-04 0.0000000000000000e+00  2.7624070855246391e-04 3.9065751365975545e-04 0.0000000000000000e+00  2.8349551838048078e-04 3.5355680744329917e-04 0.0000000000000000e+00  2.8716792563365253e-04 3.1984359804313530e-04 0.0000000000000000e+00  2.8748052508315231e-04 2.8917551986045153e-04 0.0000000000000000e+00  2.8408705456042219e-04 2.6067384639870059e-04 0.0000000000000000e+00  2.7661052055838134e-04 2.3451770143349118e-04 0.0000000000000000e+00  2.6508168319600462e-04 2.1059370631327002e-04 0.0000000000000000e+00  2.4975334532881119e-04 1.8898359129979872e-04 0.0000000000000000e+00  2.3184653748825479e-04 1.7009789121742475e-04 0.0000000000000000e+00  2.1286023921348094e-04 1.5331688009554033e-04 0.0000000000000000e+00  1.9333427310170719e-04 1.3733913285644370e-04 0.0000000000000000e+00  1.7322875233646802e-04 1.2160853680688581e-04 0.0000000000000000e+00  1.5176485337617605e-04 1.0532320420598819e-04 0.0000000000000000e+00  1.2831783603233559e-04 8.9550230640006098e-05 0.0000000000000000e+00  1.0380518115760676e-04 7.5828747137042209e-05 0.0000000000000000e+00  8.0655189035451456e-05 6.4820919861278205e-05 0.0000000000000000e+00  6.0743236920774121e-05 5.6671950388865384e-05 0.0000000000000000e+00  4.5269259737810276e-05 5.0199622172734907e-05 0.0000000000000000e+00  3.3647591374250166e-05 4.4422341666780394e-05 0.0000000000000000e+00  2.4746302823211761e-05 3.8735340719143431e-05 0.0000000000000000e+00  1.7463324063241653e-05 3.3038195472331732e-05 0.0000000000000000e+00  1.1046305269877821e-05 2.7464642453685822e-05 0.0000000000000000e+00  5.1099287518139747e-06 2.2221462977065335e-05 0.0000000000000000e+00  -4.9834419841451737e-07 1.7503562974289072e-05 0.0000000000000000e+00  -5.7969812703930773e-06 1.3290223977593382e-05 0.0000000000000000e+00  -1.0867909301545333e-05 9.7282894636817100e-06 0.0000000000000000e+00  -1.5582626798857233e-05 6.8095156364889169e-06 0.0000000000000000e+00  -1.9960016858849252e-05 4.4071486141795600e-06 0.0000000000000000e+00  -2.4010802367709589e-05 2.6066809744555807e-06 0.0000000000000000e+00  -2.7669723301308149e-05 1.2475054028665124e-06 0.0000000000000000e+00  -3.1021267017556273e-05 3.3225622445435038e-07 0.0000000000000000e+00  -3.4049255982975992e-05 -2.2610967156644746e-07 0.0000000000000000e+00  -3.6733107012600010e-05 -5.1253221350873437e-07 0.0000000000000000e+00  -3.9188285738614923e-05 -5.6546812370379281e-07 0.0000000000000000e+00  -4.1381990186325663e-05 -4.5098711262526966e-07 0.0000000000000000e+00  -4.3373841689643723e-05 -2.4954062414317576e-07 0.0000000000000000e+00  -4.5215182899615842e-05 8.0689164636682398e-09 0.0000000000000000e+00  -4.6959174097221986e-05 2.8789656826629659e-07 0.0000000000000000e+00  -4.8608164619034048e-05 5.8123896317068575e-07 0.0000000000000000e+00  -5.0213104131340867e-05 8.3110846113791164e-07 0.0000000000000000e+00  -5.1824916030326649e-05 1.1044574012677741e-06 0.0000000000000000e+00  -5.3414962730758226e-05 1.3896464510161888e-06 0.0000000000000000e+00  -5.5062354489693508e-05 1.7238914464573709e-06 0.0000000000000000e+00  -5.6723403231512558e-05 2.1486399697505708e-06 0.0000000000000000e+00  -5.8379078066109490e-05 2.7026245555991682e-06 0.0000000000000000e+00  -6.0093107507119345e-05 3.4987047216699592e-06 0.0000000000000000e+00  -6.1709107861161776e-05 4.5356972466849312e-06 0.0000000000000000e+00  -6.3244395648026080e-05 5.8969451222568774e-06 0.0000000000000000e+00  -6.4581309310861521e-05 7.5834797056137803e-06 0.0000000000000000e+00  -6.5704189465175191e-05 9.5551054646586068e-06 0.0000000000000000e+00  -6.6650433454618438e-05 1.1811482044056175e-05 0.0000000000000000e+00  -6.7359878897562317e-05 1.4331925386167438e-05 0.0000000000000000e+00  -6.8122642561555040e-05 1.6933160481637591e-05 0.0000000000000000e+00  -6.9362082579201673e-05 1.9714556103601693e-05 0.0000000000000000e+00  -7.1873189383735237e-05 2.2756283782901387e-05 0.0000000000000000e+00  -7.6541244608133280e-05 2.6747903158779409e-05 0.0000000000000000e+00  -8.4623919275766219e-05 3.2500810653540203e-05 0.0000000000000000e+00  -9.5842965169009027e-05 4.1457723942763429e-05 0.0000000000000000e+00  -1.1026553321127505e-04 5.3747510376179035e-05 0.0000000000000000e+00  -1.2600779773350987e-04 6.9208988820940634e-05 0.0000000000000000e+00  -1.4240483787675618e-04 8.6128589708035156e-05 0.0000000000000000e+00  -1.5982725790291297e-04 1.0332031022786272e-04 0.0000000000000000e+00  -1.7924440028979982e-04 1.2078463773012363e-04 0.0000000000000000e+00  -2.0134191754087789e-04 1.3963146872129651e-04 0.0000000000000000e+00  -2.2521370540724706e-04 1.6133922461630668e-04 0.0000000000000000e+00  -2.4863116278305822e-04 1.8639690452082420e-04 0.0000000000000000e+00  -2.6889833972203474e-04 2.1464402209206177e-04 0.0000000000000000e+00  -2.8360028540874558e-04 2.4459138590316896e-04 0.0000000000000000e+00  -2.9162842973431274e-04 2.7476119311664615e-04 0.0000000000000000e+00  -2.9253349158744549e-04 3.0426366419059834e-04 0.0000000000000000e+00  -2.8754241329875032e-04 3.3159909701765549e-04 0.0000000000000000e+00  2.9179772135049463e-04 2.2495548271776381e-04 0.0000000000000000e+00  2.8770437059110469e-04 2.2077577082860387e-04 0.0000000000000000e+00  2.7701782902259326e-04 2.1434475712256700e-04 0.0000000000000000e+00  2.6168870925511595e-04 2.079