<?xml version="1.0"?>
<VTKFile type="UnstructuredGrid"  version="0.1"  >
<UnstructuredGrid>
<Piece  NumberOfPoints="3879" NumberOfCells="6881">
<Points>
<DataArray  type="Float64"  NumberOfComponents="3"  format="ascii">0.207524190028372 0.2122422770132111 0  0 0 0  1 0 0  0 1 0  1 1 0  0.6249674373315121 0.2590146544375328 0  0.204663578893616 0.322657230836866 0  0.09605577522599912 0.4018360776629776 0  0.671351124618251 0.08738059142081528 0  0.7842102907526436 0.1666439122351055 0  0.8512483166984784 0.1985391006160637 0  0.6418797837909295 0.4423157172830166 0  0.9292488447973215 0.3869277868069776 0  0.3197896119137055 0.5509935221980964 0  0.3979283685568406 0.5079871620336583 0  0.1572503457993085 0.7345153245035532 0  0.3032914287999163 0.7872981443735918 0  0.3549464687598876 0.8870324161721976 0  0.9691791685505482 0.5159450047798622 0  0.9447564590470373 0.6146164845729313 0  0.7687603548175107 0.7176858127488035 0  0.8926159261971183 0.7422924070424508 0  0.2061587782631535 0.2217389244366831 0  0.2021731605082994 0.2304662099646423 0  0.1958902278109265 0.2377171008267789 0  0.1878189860121365 0.2429041729681512 0  0.1786133191209442 0.2456072006525708 0  0.1690190155206647 0.2456072006525708 0  0.1598133486294724 0.2429041729681512 0  0.1517421068306824 0.2377171008267789 0  0.1454591741333096 0.2304662099646422 0  0.1414735563784554 0.221738924436683 0  0.1401081446132369 0.212242277013211 0  0.1414735563784555 0.202745629589739 0  0.1454591741333096 0.1940183440617798 0  0.1517421068306825 0.1867674531996431 0  0.1598133486294725 0.1815803810582709 0  0.1690190155206649 0.1788773533738513 0  0.1786133191209443 0.1788773533738514 0  0.1878189860121367 0.181580381058271 0  0.1958902278109266 0.1867674531996433 0  0.2021731605082994 0.19401834406178 0  0.2061587782631535 0.2027456295897391 0  0.03333333333333333 0 0  0.06666666666666667 0 0  0.1 0 0  0.1333333333333333 0 0  0.1666666666666667 0 0  0.2 0 0  0.2333333333333333 0 0  0.2666666666666667 0 0  0.3 0 0  0.3333333333333333 0 0  0.3666666666666666 0 0  0.4 0 0  0.4333333333333333 0 0  0.4666666666666667 0 0  0.5 0 0  0.5333333333333333 0 0  0.5666666666666667 0 0  0.6 0 0  0.6333333333333333 0 0  0.6666666666666666 0 0  0.7 0 0  0.7333333333333333 0 0  0.7666666666666667 0 0  0.8 0 0  0.8333333333333334 0 0  0.8666666666666667 0 0  0.9 0 0  0.9333333333333333 0 0  0.9666666666666667 0 0  0 0.9666666666666667 0  0 0.9333333333333333 0  0 0.9 0  0 0.8666666666666667 0  0 0.8333333333333334 0  0 0.8 0  0 0.7666666666666666 0  0 0.7333333333333334 0  0 0.7 0  0 0.6666666666666667 0  0 0.6333333333333333 0  0 0.6 0  0 0.5666666666666667 0  0 0.5333333333333333 0  0 0.5 0  0 0.4666666666666667 0  0 0.4333333333333333 0  0 0.4 0  0 0.3666666666666667 0  0 0.3333333333333334 0  0 0.3 0  0 0.2666666666666667 0  0 0.2333333333333333 0  0 0.2 0  0 0.1666666666666666 0  0 0.1333333333333333 0  0 0.09999999999999998 0  0 0.06666666666666665 0  0 0.03333333333333333 0  1 0.03333333333333333 0  1 0.06666666666666667 0  1 0.1 0  1 0.1333333333333333 0  1 0.1666666666666667 0  1 0.2 0  1 0.2333333333333333 0  1 0.2666666666666667 0  1 0.3 0  1 0.3333333333333333 0  1 0.3666666666666666 0  1 0.4 0  1 0.4333333333333333 0  1 0.4666666666666667 0  1 0.5 0  1 0.5333333333333333 0  1 0.5666666666666667 0  1 0.6 0  1 0.6333333333333333 0  1 0.6666666666666666 0  1 0.7 0  1 0.7333333333333333 0  1 0.7666666666666667 0  1 0.8 0  1 0.8333333333333334 0  1 0.8666666666666667 0  1 0.9 0  1 0.9333333333333333 0  1 0.9666666666666667 0  0.9666666666666667 1 0  0.9333333333333333 1 0  0.9 1 0  0.8666666666666667 1 0  0.8333333333333334 1 0  0.8 1 0  0.7666666666666666 1 0  0.7333333333333334 1 0  0.7 1 0  0.6666666666666667 1 0  0.6333333333333333 1 0  0.6 1 0  0.5666666666666667 1 0  0.5333333333333333 1 0  0.5 1 0  0.4666666666666667 1 0  0.4333333333333333 1 0  0.4 1 0  0.3666666666666667 1 0  0.3333333333333334 1 0  0.3 1 0  0.2666666666666667 1 0  0.2333333333333333 1 0  0.2 1 0  0.1666666666666666 1 0  0.1333333333333333 1 0  0.09999999999999998 1 0  0.06666666666666665 1 0  0.03333333333333333 1 0  0.6247072676344306 0.2689501343248463 0  0.6239274716502419 0.2788583817523955 0  0.6226301867455355 0.2887122389026952 0  0.6208189686880621 0.2984846970382296 0  0.6184987819006211 0.3081489705305245 0  0.6156759858539226 0.317678570277693 0  0.6123583176357204 0.3270473763092224 0  0.6085548707439923 0.3362297093789981 0  0.6042760701622942 0.3452004013503318 0  0.5995336437856049 0.3539348641800754 0  0.5943405902749808 0.3624091573127375 0  0.5887111434291297 0.3706000532998825 0  0.582660733170558 0.3784851014649517 0  0.5762059432532257 0.3860426894390078 0  0.5693644658076293 0.3932521023987353 0  0.5621550528479018 0.4000935798443317 0  0.5545974648738458 0.4065483697616639 0  0.5467124167087765 0.4125987800202355 0  0.5385215207216315 0.4182282268660866 0  0.5300472275889694 0.4234212803767108 0  0.5213127647592257 0.4281637067534002 0  0.512342072787892 0.4324425073350981 0  0.5031597397181163 0.4362459542268262 0  0.493790933686587 0.4395636224450283 0  0.4842613339394185 0.4423864184917269 0  0.4745970604471235 0.4447066052791678 0  0.4648246023115891 0.4465178233366412 0  0.4549707451612894 0.4478151082413475 0  0.4450624977337403 0.4485949042255363 0  0.4351270178464268 0.4488550739226177 0  0.4251915379591132 0.4485949042255363 0  0.4152832905315641 0.4478151082413475 0  0.4054294333812644 0.4465178233366411 0  0.39565697524573 0.4447066052791677 0  0.385992701753435 0.4423864184917267 0  0.3764631020062665 0.4395636224450281 0  0.3670942959747371 0.4362459542268259 0  0.3579119629049616 0.4324425073350978 0  0.3489412709336278 0.4281637067533998 0  0.3402068081038843 0.4234212803767103 0  0.3317325149712221 0.4182282268660862 0  0.3235416189840771 0.412598780020235 0  0.3156565708190078 0.4065483697616634 0  0.3080989828449519 0.4000935798443311 0  0.3008895698852244 0.3932521023987346 0  0.2940480924396279 0.3860426894390071 0  0.2875933025222958 0.3784851014649511 0  0.2815428922637242 0.3706000532998818 0  0.2759134454178731 0.3624091573127368 0  0.2707203919072489 0.3539348641800746 0  0.2659779655305596 0.3452004013503309 0  0.2616991649488616 0.3362297093789972 0  0.2578957180571336 0.3270473763092215 0  0.2545780498389315 0.3176785702776921 0  0.251755253792233 0.3081489705305236 0  0.249435067004792 0.2984846970382286 0  0.2476238489473186 0.2887122389026941 0  0.2463265640426123 0.2788583817523945 0  0.2455467680584236 0.2689501343248454 0  0.2452865983613423 0.2590146544375318 0  0.2455467680584237 0.2490791745502182 0  0.2463265640426126 0.2391709271226692 0  0.247623848947319 0.2293170699723696 0  0.2494350670047924 0.2195446118368351 0  0.2517552537922335 0.2098803383445402 0  0.2545780498389321 0.2003507385973717 0  0.2578957180571343 0.1909819325658423 0  0.2616991649488624 0.1817995994960667 0  0.2659779655305604 0.172828907524733 0  0.2707203919072498 0.1640944446949895 0  0.2759134454178741 0.1556201515623273 0  0.2815428922637251 0.1474292555751825 0  0.2875933025222969 0.1395442074101132 0  0.2940480924396291 0.1319866194360571 0  0.3008895698852256 0.1247772064763297 0  0.3080989828449531 0.1179357290307334 0  0.3156565708190092 0.1114809391134012 0  0.3235416189840785 0.1054305288548295 0  0.3317325149712236 0.09980108200897844 0  0.3402068081038856 0.0946080284983544 0  0.3489412709336291 0.08986560212166514 0  0.357911962904963 0.08558680153996717 0  0.3670942959747386 0.08178335464823916 0  0.3764631020062678 0.07846568643003712 0  0.3859927017534364 0.0756428903833386 0  0.3956569752457313 0.0733227035958976 0  0.4054294333812659 0.07151148553842429 0  0.4152832905315654 0.07021420063371797 0  0.4251915379591144 0.0694344046495293 0  0.435127017846428 0.0691742349524479 0  0.4450624977337415 0.06943440464952938 0  0.4549707451612905 0.07021420063371814 0  0.4648246023115901 0.07151148553842454 0  0.4745970604471245 0.07332270359589793 0  0.4842613339394195 0.07564289038333902 0  0.4937909336865879 0.07846568643003757 0  0.5031597397181173 0.0817833546482398 0  0.5123420727878929 0.08558680153996781 0  0.5213127647592265 0.08986560212166581 0  0.53004722758897 0.0946080284983552 0  0.5385215207216321 0.09980108200897933 0  0.5467124167087771 0.1054305288548305 0  0.5545974648738462 0.1114809391134021 0  0.5621550528479023 0.1179357290307343 0  0.5693644658076298 0.1247772064763308 0  0.576205943253226 0.1319866194360582 0  0.5826607331705582 0.1395442074101142 0  0.5887111434291299 0.1474292555751835 0  0.594340590274981 0.1556201515623285 0  0.5995336437856051 0.1640944446949906 0  0.6042760701622945 0.172828907524734 0  0.6085548707439925 0.1817995994960678 0  0.6123583176357205 0.1909819325658435 0  0.6156759858539227 0.2003507385973728 0  0.6184987819006211 0.2098803383445412 0  0.6208189686880622 0.2195446118368362 0  0.6226301867455355 0.2293170699723706 0  0.6239274716502419 0.2391709271226702 0  0.6247072676344306 0.2490791745502192 0  0.203885768735257 0.3325402459548524 0  0.2015714905276826 0.3421799084407872 0  0.1977777294810124 0.3513388578120612 0  0.1925979005829864 0.3597915703383434 0  0.1861595484119405 0.3673299121842922 0  0.1786212065659918 0.373768264355338 0  0.1701684940397096 0.378948093253364 0  0.1610095446684356 0.3827418543000342 0  0.1513698821825007 0.3850561325076086 0  0.1414868670645144 0.3858339426659677 0  0.1316038519465281 0.3850561325076086 0  0.1219641894605933 0.3827418543000343 0  0.1128052400893193 0.378948093253364 0  0.1043525275630371 0.3737682643553381 0  0.09681418571708833 0.3673299121842922 0  0.09037583354604248 0.3597915703383434 0  0.08519600464801645 0.3513388578120612 0  0.08140224360134621 0.3421799084407872 0  0.07908796539377183 0.3325402459548523 0  0.07831015523541281 0.3226572308368659 0  0.07908796539377186 0.3127742157188796 0  0.08140224360134626 0.3031345532329447 0  0.08519600464801655 0.2939756038616707 0  0.0903758335460426 0.2855228913353884 0  0.0968141857
[...]
<PointData  Vectors="$u$"> 
<DataArray  type="Float64"  Name="$u$"  NumberOfComponents="3" format="ascii">1.7169005891207436e-04 3.2257731016434001e-04 0.0000000000000000e+00  0.0000000000000000e+00 0.0000000000000000e+00 0.0000000000000000e+00  -3.9284328519281482e-04 0.0000000000000000e+00 0.0000000000000000e+00  -5.3572375795518532e-05 3.5000000000000001e-03 0.0000000000000000e+00  -4.5958398932944048e-04 3.5000000000000001e-03 0.0000000000000000e+00  -6.5027784042717544e-04 8.3652187128432356e-04 0.0000000000000000e+00  6.7631433178678253e-04 5.2605089862681762e-04 0.0000000000000000e+00  5.8576080455066952e-04 9.9239601831428693e-04 0.0000000000000000e+00  -3.4603864687745228e-04 1.2100016632967199e-04 0.0000000000000000e+00  -5.2884955594048632e-04 1.5641278738793533e-05 0.0000000000000000e+00  -6.0712689671549010e-04 1.2708112795565876e-04 0.0000000000000000e+00  -9.0789077748453117e-05 1.3673618767973280e-03 0.0000000000000000e+00  -1.6023659749989103e-03 1.0822674726597425e-03 0.0000000000000000e+00  -2.5592382230552182e-04 2.1463770119822894e-03 0.0000000000000000e+00  -2.0243102001112065e-04 1.9259263830493502e-03 0.0000000000000000e+00  4.9474552331652769e-04 3.3212052807058226e-03 0.0000000000000000e+00  1.8742816535212762e-04 2.8057781910415945e-03 0.0000000000000000e+00  -2.6271773338853869e-04 3.3543531320167964e-03 0.0000000000000000e+00  -1.6932930627424612e-03 1.8444779208787847e-03 0.0000000000000000e+00  -1.3115063421256761e-03 2.4235318089171729e-03 0.0000000000000000e+00  -8.8812501225921884e-04 3.1842372656794857e-03 0.0000000000000000e+00  -8.0555178103211035e-04 3.1059834710079506e-03 0.0000000000000000e+00  2.2904405396034978e-04 3.7944554369122665e-04 0.0000000000000000e+00  2.8925809258015321e-04 4.3021675309699793e-04 0.0000000000000000e+00  3.4220793216552443e-04 4.7199378675469539e-04 0.0000000000000000e+00  3.8266722325506407e-04 4.9042017187950063e-04 0.0000000000000000e+00  4.1052472179301110e-04 4.8068242183050555e-04 0.0000000000000000e+00  4.1550151756264008e-04 4.3254671663173552e-04 0.0000000000000000e+00  4.0469726156488453e-04 3.6245164891445474e-04 0.0000000000000000e+00  3.7193857768073684e-04 3.0350310744386755e-04 0.0000000000000000e+00  3.2390506926780388e-04 2.7065170666909255e-04 0.0000000000000000e+00  2.7987143987191776e-04 2.5284325323977181e-04 0.0000000000000000e+00  2.3530522110073296e-04 2.3111627147404806e-04 0.0000000000000000e+00  1.9559900491088327e-04 2.1090291146903144e-04 0.0000000000000000e+00  1.5958770606049931e-04 1.8767826245947574e-04 0.0000000000000000e+00  1.2872014332789721e-04 1.6670457926325265e-04 0.0000000000000000e+00  1.0194379173817976e-04 1.5257628343072206e-04 0.0000000000000000e+00  8.3807056157453652e-05 1.4642997433480799e-04 0.0000000000000000e+00  7.1206309405897979e-05 1.5032944877903953e-04 0.0000000000000000e+00  6.8193853087576887e-05 1.6460654519395544e-04 0.0000000000000000e+00  7.6141214804881064e-05 1.8958203582533596e-04 0.0000000000000000e+00  9.4113112418011110e-05 2.2376525740049695e-04 0.0000000000000000e+00  1.2615381402773259e-04 2.6910110997325603e-04 0.0000000000000000e+00  0.0000000000000000e+00 0.0000000000000000e+00 0.0000000000000000e+00  -3.4188038547804162e-05 0.0000000000000000e+00 0.0000000000000000e+00  -4.7992434348817313e-05 0.0000000000000000e+00 0.0000000000000000e+00  -6.2536590653054867e-05 0.0000000000000000e+00 0.0000000000000000e+00  -7.3193450431047335e-05 0.0000000000000000e+00 0.0000000000000000e+00  -8.2758891305928880e-05 0.0000000000000000e+00 0.0000000000000000e+00  -9.0855490805312486e-05 0.0000000000000000e+00 0.0000000000000000e+00  -9.8184115914943612e-05 0.0000000000000000e+00 0.0000000000000000e+00  -1.0372853812523813e-04 0.0000000000000000e+00 0.0000000000000000e+00  -1.0737137188502222e-04 0.0000000000000000e+00 0.0000000000000000e+00  -1.1069635902087627e-04 0.0000000000000000e+00 0.0000000000000000e+00  -1.1551084228283488e-04 0.0000000000000000e+00 0.0000000000000000e+00  -1.2154506979218062e-04 0.0000000000000000e+00 0.0000000000000000e+00  -1.2900922934673491e-04 0.0000000000000000e+00 0.0000000000000000e+00  -1.3833815266089570e-04 0.0000000000000000e+00 0.0000000000000000e+00  -1.5390228303048710e-04 0.0000000000000000e+00 0.0000000000000000e+00  -1.7852949333506700e-04 0.0000000000000000e+00 0.0000000000000000e+00  -2.1184319300294660e-04 0.0000000000000000e+00 0.0000000000000000e+00  -2.3582818775779311e-04 0.0000000000000000e+00 0.0000000000000000e+00  -2.5670232880924885e-04 0.0000000000000000e+00 0.0000000000000000e+00  -2.8527439247622358e-04 0.0000000000000000e+00 0.0000000000000000e+00  -3.0396462279551220e-04 0.0000000000000000e+00 0.0000000000000000e+00  -3.0889224038439323e-04 0.0000000000000000e+00 0.0000000000000000e+00  -3.0890652501195705e-04 0.0000000000000000e+00 0.0000000000000000e+00  -3.0881861739808354e-04 0.0000000000000000e+00 0.0000000000000000e+00  -3.1451002658796414e-04 0.0000000000000000e+00 0.0000000000000000e+00  -3.2320171758574160e-04 0.0000000000000000e+00 0.0000000000000000e+00  -3.4079793452435476e-04 0.0000000000000000e+00 0.0000000000000000e+00  -3.6415758163497645e-04 0.0000000000000000e+00 0.0000000000000000e+00  -4.7206777891703243e-05 3.3970736325195038e-03 0.0000000000000000e+00  -2.6227127098533939e-05 3.2935022129230392e-03 0.0000000000000000e+00  9.3852697250591152e-06 3.1858331081614758e-03 0.0000000000000000e+00  6.3178233591499290e-05 3.0760406026313978e-03 0.0000000000000000e+00  1.3523793249162132e-04 2.9624745798893281e-03 0.0000000000000000e+00  2.2721103159168053e-04 2.8455367849676986e-03 0.0000000000000000e+00  3.3875216305310129e-04 2.7252995725906598e-03 0.0000000000000000e+00  4.7018030493484701e-04 2.5941004995216764e-03 0.0000000000000000e+00  6.3349092946127369e-04 2.4511761558240704e-03 0.0000000000000000e+00  8.4102978416942175e-04 2.2961669701398136e-03 0.0000000000000000e+00  1.0971739153786161e-03 2.1512059690854393e-03 0.0000000000000000e+00  1.3640814594662212e-03 2.0436686649131859e-03 0.0000000000000000e+00  1.5482281878368294e-03 1.9882266065265729e-03 0.0000000000000000e+00  1.5578199893927715e-03 1.9546301050373228e-03 0.0000000000000000e+00  1.4117490782022089e-03 1.8774147470518533e-03 0.0000000000000000e+00  1.2166774758859517e-03 1.7293803374338241e-03 0.0000000000000000e+00  1.0990044424946362e-03 1.5243722095664184e-03 0.0000000000000000e+00  1.0325337324622477e-03 1.3782551227354827e-03 0.0000000000000000e+00  8.4901632032833088e-04 1.2449755038273572e-03 0.0000000000000000e+00  6.8832982754442914e-04 1.0701451325617081e-03 0.0000000000000000e+00  5.7545317850907316e-04 9.3957865901516237e-04 0.0000000000000000e+00  4.6257701297656409e-04 8.2552484676360499e-04 0.0000000000000000e+00  3.5587207585053399e-04 7.1744024635137828e-04 0.0000000000000000e+00  2.6098751714352620e-04 6.1013740498692113e-04 0.0000000000000000e+00  1.8131544218026775e-04 5.0494116013945992e-04 0.0000000000000000e+00  1.1836559946248425e-04 3.9869669438801842e-04 0.0000000000000000e+00  7.2351589219122914e-05 2.9691190508762119e-04 0.0000000000000000e+00  4.0623012065941515e-05 1.9353538082113490e-04 0.0000000000000000e+00  2.6621858718361977e-05 9.9739753231073408e-05 0.0000000000000000e+00  -3.9944431658632616e-04 1.0637531752231371e-04 0.0000000000000000e+00  -4.2215671711197649e-04 2.1420433393556554e-04 0.0000000000000000e+00  -4.6042428817680221e-04 3.2507624458062077e-04 0.0000000000000000e+00  -5.1745634852206452e-04 4.4100507908634501e-04 0.0000000000000000e+00  -5.9615805494903746e-04 5.6249362155873152e-04 0.0000000000000000e+00  -7.0159515752828984e-04 6.9095300855977735e-04 0.0000000000000000e+00  -8.3669469085523101e-04 8.2267517220331327e-04 0.0000000000000000e+00  -1.0066847284255758e-03 9.5923129660997817e-04 0.0000000000000000e+00  -1.2093148018640302e-03 1.0853465767031547e-03 0.0000000000000000e+00  -1.4236288324317448e-03 1.1892170051494701e-03 0.0000000000000000e+00  -1.6050276038334461e-03 1.2602749695467647e-03 0.0000000000000000e+00  -1.7087781914933914e-03 1.3194225090569962e-03 0.0000000000000000e+00  -1.7290277326123774e-03 1.3963677771883557e-03 0.0000000000000000e+00  -1.7237102333650829e-03 1.5364225476402101e-03 0.0000000000000000e+00  -1.7826144032616240e-03 1.6891801351305051e-03 0.0000000000000000e+00  -1.6185624517362201e-03 1.7977231641176947e-03 0.0000000000000000e+00  -1.4118869659804736e-03 2.0494657633638260e-03 0.0000000000000000e+00  -1.3879421019744426e-03 2.2348913594787963e-03 0.0000000000000000e+00  -1.3306474396886795e-03 2.3348191535102238e-03 0.0000000000000000e+00  -1.1955906178260801e-03 2.4294273925275335e-03 0.0000000000000000e+00  -1.0397726146421430e-03 2.5407502246510881e-03 0.0000000000000000e+00  -9.0176877256966173e-04 2.6590419289244088e-03 0.0000000000000000e+00  -7.8433920137965037e-04 2.7734731540623751e-03 0.0000000000000000e+00  -6.8635501752379615e-04 2.8862454136979283e-03 0.0000000000000000e+00  -6.0981318900864615e-04 2.9971340825875751e-03 0.0000000000000000e+00  -5.5270382220721441e-04 3.1030827416795434e-03 0.0000000000000000e+00  -5.1079649866094402e-04 3.2053796700949318e-03 0.0000000000000000e+00  -4.8227406051998414e-04 3.3047851263938821e-03 0.0000000000000000e+00  -4.6487505654694287e-04 3.4024981391271914e-03 0.0000000000000000e+00  -4.3292857657623078e-04 3.5000000000000001e-03 0.0000000000000000e+00  -4.0901840130840359e-04 3.5000000000000001e-03 0.0000000000000000e+00  -3.8958769263684550e-04 3.5000000000000001e-03 0.0000000000000000e+00  -3.7368851445443533e-04 3.5000000000000001e-03 0.0000000000000000e+00  -3.6022212031022830e-04 3.5000000000000001e-03 0.0000000000000000e+00  -3.4870008928271747e-04 3.5000000000000001e-03 0.0000000000000000e+00  -3.3955215695808175e-04 3.5000000000000001e-03 0.0000000000000000e+00  -3.3327712716545475e-04 3.5000000000000001e-03 0.0000000000000000e+00  -3.2883647387094736e-04 3.5000000000000001e-03 0.0000000000000000e+00  -3.2636677804763486e-04 3.5000000000000001e-03 0.0000000000000000e+00  -3.2229693829411923e-04 3.5000000000000001e-03 0.0000000000000000e+00  -3.1684012872157640e-04 3.5000000000000001e-03 0.0000000000000000e+00  -3.0949165616422360e-04 3.5000000000000001e-03 0.0000000000000000e+00  -3.0122401630011691e-04 3.5000000000000001e-03 0.0000000000000000e+00  -2.9280348252016245e-04 3.5000000000000001e-03 0.0000000000000000e+00  -2.8186916711161612e-04 3.5000000000000001e-03 0.0000000000000000e+00  -2.6695617132913024e-04 3.5000000000000001e-03 0.0000000000000000e+00  -2.4495151082415460e-04 3.5000000000000001e-03 0.0000000000000000e+00  -2.1880395646742723e-04 3.5000000000000001e-03 0.0000000000000000e+00  -1.9650887247522284e-04 3.5000000000000001e-03 0.0000000000000000e+00  -1.8301253537439776e-04 3.5000000000000001e-03 0.0000000000000000e+00  -1.7076589197863418e-04 3.5000000000000001e-03 0.0000000000000000e+00  -1.5525540670969896e-04 3.5000000000000001e-03 0.0000000000000000e+00  -1.4371379298031272e-04 3.5000000000000001e-03 0.0000000000000000e+00  -1.3798777322319544e-04 3.5000000000000001e-03 0.0000000000000000e+00  -1.3047645328879897e-04 3.5000000000000001e-03 0.0000000000000000e+00  -1.2065191528853424e-04 3.5000000000000001e-03 0.0000000000000000e+00  -1.0437311633124668e-04 3.5000000000000001e-03 0.0000000000000000e+00  -8.1160286430167970e-05 3.5000000000000001e-03 0.0000000000000000e+00  -6.1882200623744556e-04 8.9265201863838409e-04 0.0000000000000000e+00  -5.8230470355726883e-04 9.4585134300365201e-04 0.0000000000000000e+00  -5.4074799642737253e-04 9.9867509277900873e-04 0.0000000000000000e+00  -4.9623880870830613e-04 1.0483869478895853e-03 0.0000000000000000e+00  -4.4941595539824825e-04 1.0979611364409123e-03 0.0000000000000000e+00  -4.0123825695745927e-04 1.1439443179442834e-03 0.0000000000000000e+00  -3.5383969776147306e-04 1.1855278520108389e-03 0.0000000000000000e+00  -3.0983808221851785e-04 1.2222998756701983e-03 0.0000000000000000e+00  -2.6993130780476508e-04 1.2529436383761977e-03 0.0000000000000000e+00  -2.3717769499507495e-04 1.2769151719196562e-03 0.0000000000000000e+00  -2.1208979047071630e-04 1.2948903123434835e-03 0.0000000000000000e+00  -1.9580472667818857e-04 1.3073509908017504e-03 0.0000000000000000e+00  -1.8894836765362297e-04 1.3151316050024908e-03 0.0000000000000000e+00  -1.9105082344064017e-04 1.3199638370056251e-03 0.0000000000000000e+00  -2.0240317990078915e-04 1.3223820243550867e-03 0.0000000000000000e+00  -2.2203651590382354e-04 1.3267731111805548e-03 0.0000000000000000e+00  -2.4654226782844631e-04 1.3360837624263933e-03 0.0000000000000000e+00  -2.7198438046262529e-04 1.3519638369104169e-03 0.0000000000000000e+00  -2.9624272704372649e-04 1.3756589198991294e-03 0.0000000000000000e+00  -3.1642836463725214e-04 1.4051032027844158e-03 0.0000000000000000e+00  -3.3377658481375204e-04 1.4410461422599131e-03 0.0000000000000000e+00  -3.4683426357221491e-04 1.4820488410316871e-03 0.0000000000000000e+00  -3.5560556376412880e-04 1.5271794549471373e-03 0.0000000000000000e+00  -3.6030060907959094e-04 1.5753321298852753e-03 0.0000000000000000e+00  -3.6099160285707531e-04 1.6249546156039379e-03 0.0000000000000000e+00  -3.5794918250737438e-04 1.6743949552552213e-03 0.0000000000000000e+00  -3.5138864497750755e-04 1.7221586251586181e-03 0.0000000000000000e+00  -3.4284560472734344e-04 1.7667114533289805e-03 0.0000000000000000e+00  -3.3243658711331139e-04 1.8078416042497524e-03 0.0000000000000000e+00  -3.2062477534329904e-04 1.8450081600510559e-03 0.0000000000000000e+00  -3.0773628121341049e-04 1.8784232999707526e-03 0.0000000000000000e+00  -2.9296764920993824e-04 1.9088158194174945e-03 0.0000000000000000e+00  -2.7503879751799871e-04 1.9356858900598977e-03 0.0000000000000000e+00  -2.5143579786861438e-04 1.9581367677206367e-03 0.0000000000000000e+00  -2.1930571225189764e-04 1.9726155264207547e-03 0.0000000000000000e+00  -1.7802303703540778e-04 1.9751484311479810e-03 0.0000000000000000e+00  -1.2812139514023922e-04 1.9636808734294683e-03 0.0000000000000000e+00  -6.9462155376701190e-05 1.9374552711844577e-03 0.0000000000000000e+00  -2.4504743229275874e-06 1.8959033269318022e-03 0.0000000000000000e+00  7.2190938857723456e-05 1.8382262556942437e-03 0.0000000000000000e+00  1.5322596857144397e-04 1.7645842973354065e-03 0.0000000000000000e+00  2.3776293953917303e-04 1.6747270402484209e-03 0.0000000000000000e+00  3.2093664774237630e-04 1.5722044488336818e-03 0.0000000000000000e+00  4.0109074881382556e-04 1.4601706027746149e-03 0.0000000000000000e+00  4.7370565689981324e-04 1.3431491417020315e-03 0.0000000000000000e+00  5.3339614419632090e-04 1.2241016405810988e-03 0.0000000000000000e+00  5.8266332101037657e-04 1.1126833039178296e-03 0.0000000000000000e+00  6.2004665429178651e-04 1.0072330782859627e-03 0.0000000000000000e+00  6.4628181875223860e-04 9.1097554268476275e-04 0.0000000000000000e+00  6.6346265030540628e-04 8.2441062034669830e-04 0.0000000000000000e+00  6.7205510907525281e-04 7.4544746844081218e-04 0.0000000000000000e+00  6.7301014588540470e-04 6.7402103409270860e-04 0.0000000000000000e+00  6.6518307217469403e-04 6.0728224739461597e-04 0.0000000000000000e+00  6.4772839834605783e-04 5.4596047547714134e-04 0.0000000000000000e+00  6.2068929887736026e-04 4.9009258739290691e-04 0.0000000000000000e+00  5.8470161021420151e-04 4.3965257212729667e-04 0.0000000000000000e+00  5.4270071773915957e-04 3.9566216982253610e-04 0.0000000000000000e+00  4.9807156279047286e-04 3.5661056870656404e-04 0.0000000000000000e+00  4.5215000325340136e-04 3.1922099668645987e-04 0.0000000000000000e+00  4.0484580871708682e-04 2.8262215925475305e-04 0.0000000000000000e+00  3.5450088599872100e-04 2.4466869431848023e-04 0.0000000000000000e+00  2.9937881073770602e-04 2.0753523993670113e-04 0.0000000000000000e+00  2.4160837000499619e-04 1.7574227172985192e-04 0.0000000000000000e+00  1.8714308877198815e-04 1.5018062921343402e-04 0.0000000000000000e+00  1.4050485132249005e-04 1.3152602688582397e-04 0.0000000000000000e+00  1.0437130505733122e-04 1.1664540697937712e-04 0.0000000000000000e+00  7.7358134671658631e-05 1.0346104759350638e-04 0.0000000000000000e+00  5.6749608465332327e-05 9.0220400997544510e-05 0.0000000000000000e+00  3.9924871526221084e-05 7.7020338950484790e-05 0.0000000000000000e+00  2.5065982943819290e-05 6.3977065890590768e-05 0.0000000000000000e+00  1.1337124962768028e-05 5.1769262514423040e-05 0.0000000000000000e+00  -1.6776604561912769e-06 4.0749865194770705e-05 0.0000000000000000e+00  -1.3975083261276109e-05 3.0947371903759674e-05 0.0000000000000000e+00  -2.5707676516568361e-05 2.2607442074670557e-05 0.0000000000000000e+00  -3.6677762655027145e-05 1.5822834440049147e-05 0.0000000000000000e+00  -4.6864156742972467e-05 1.0185537093559823e-05 0.0000000000000000e+00  -5.6283832732721012e-05 6.0440117005741204e-06 0.0000000000000000e+00  -6.4805152411733259e-05 2.8663059434981541e-06 0.0000000000000000e+00  -7.2547723942210075e-05 7.2880813080996707e-07 0.0000000000000000e+00  -7.9622434096635676e-05 -5.6100150621297126e-07 0.0000000000000000e+00  -8.5846141559574004e-05 -1.1909664624740509e-06 0.0000000000000000e+00  -9.1552504251346645e-05 -1.3225095343324106e-06 0.0000000000000000e+00  -9.6627023286761471e-05 -1.0609554215451344e-06 0.0000000000000000e+00  -1.0127339168381610e-04 -5.9833959391636831e-07 0.0000000000000000e+00  -1.0552586836587786e-04 1.8879515437659904e-08 0.0000000000000000e+00  -1.0957817647917008e-04 6.5704335085083574e-07 0.0000000000000000e+00  -1.1339487352347077e-04 1.3383253626782621e-06 0.0000000000000000e+00  -1.1711229138128667e-04 1.9363349612981383e-06 0.0000000000000000e+00  -1.2084924806419127e-04 2.5725129537274973e-06 0.0000000000000000e+00  -1.2455603326844231e-04 3.2275222357735891e-06 0.0000000000000000e+00  -1.2837759909451667e-04 4.0180884613579342e-06 0.0000000000000000e+00  -1.3220015446372747e-04 5.0011185210935497e-06 0.0000000000000000e+00  -1.3609122501447360e-04 6.3141464099906223e-06 0.0000000000000000e+00  -1.4006922339435284e-04 8.2119228672371651e-06 0.0000000000000000e+00  -1.4376726942985415e-04 1.0647698220106442e-05 0.0000000000000000e+00  -1.4734622354234159e-04 1.3858402860151778e-05 0.0000000000000000e+00  -1.5038913072474650e-04 1.7817553795552418e-05 0.0000000000000000e+00  -1.5296070814648280e-04 2.2489630840892834e-05 0.0000000000000000e+00  -1.5506526032999852e-04 2.7784152161955674e-05 0.0000000000000000e+00  -1.5658366875469161e-04 3.3746404571360264e-05 0.0000000000000000e+00  -1.5820795940409645e-04 3.9837195516469962e-05 0.0000000000000000e+00  -1.6078587280754516e-04 4.6381778767036943e-05 0.0000000000000000e+00  -1.6660002941349311e-04 5.3236712947829893e-05 0.0000000000000000e+00  -1.7714703776989672e-04 6.2663229581875598e-05 0.0000000000000000e+00  -1.9609628500543401e-04 7.5618264681746728e-05 0.0000000000000000e+00  -2.2241008970647853e-04 9.6430991392372747e-05 0.0000000000000000e+00  -2.5642862889130660e-04 1.2508417000589497e-04 0.0000000000000000e+00  -2.9344479540711237e-04 1.6131657207468206e-04 0.0000000000000000e+00  -3.3217525670730313e-04 2.0105557558677668e-04 0.0000000000000000e+00  -3.7302530809207570e-04 2.4140143075662005e-04 0.0000000000000000e+00  -4.1893694269342198e-04 2.8217034123979520e-04 0.0000000000000000e+00  -4.7083811139979830e-04 3.2648492028057580e-04 0.0000000000000000e+00  -5.2701529034965668e-04 3.7725075621967139e-04 0.0000000000000000e+00  -5.8209098693307168e-04 4.3585933717013554e-04 0.0000000000000000e+00  -6.2970594243746741e-04 5.0214791041589880e-04 0.0000000000000000e+00  -6.6421430575844124e-04 5.7214632033945531e-04 0.0000000000000000e+00  -6.8296206460598079e-04 6.4293131200323338e-04 0.0000000000000000e+00  -6.8493279181074010e-04 7.1217847708576168e-04 0.0000000000000000e+00  -6.7320428086041723e-04 7.7571894734930090e-04 0.0000000000000000e+00  6.8333877401701901e-04 5.2383571877558956e-04 0.0000000000000000e+00  6.7362880482057846e-04 5.1356882563880553e-04 0.0000000000000000e+00  6.4854467106059655e-04 4.9803080494457714e-04 0.0000000000000000e+00  6.1238271042609498e-04 4.828