<?xml version="1.0"?>
<VTKFile type="UnstructuredGrid"  version="0.1"  >
<UnstructuredGrid>
<Piece  NumberOfPoints="3879" NumberOfCells="6881">
<Points>
<DataArray  type="Float64"  NumberOfComponents="3"  format="ascii">0.207524190028372 0.2122422770132111 0  0 0 0  1 0 0  0 1 0  1 1 0  0.6249674373315121 0.2590146544375328 0  0.204663578893616 0.322657230836866 0  0.09605577522599912 0.4018360776629776 0  0.671351124618251 0.08738059142081528 0  0.7842102907526436 0.1666439122351055 0  0.8512483166984784 0.1985391006160637 0  0.6418797837909295 0.4423157172830166 0  0.9292488447973215 0.3869277868069776 0  0.3197896119137055 0.5509935221980964 0  0.3979283685568406 0.5079871620336583 0  0.1572503457993085 0.7345153245035532 0  0.3032914287999163 0.7872981443735918 0  0.3549464687598876 0.8870324161721976 0  0.9691791685505482 0.5159450047798622 0  0.9447564590470373 0.6146164845729313 0  0.7687603548175107 0.7176858127488035 0  0.8926159261971183 0.7422924070424508 0  0.2061587782631535 0.2217389244366831 0  0.2021731605082994 0.2304662099646423 0  0.1958902278109265 0.2377171008267789 0  0.1878189860121365 0.2429041729681512 0  0.1786133191209442 0.2456072006525708 0  0.1690190155206647 0.2456072006525708 0  0.1598133486294724 0.2429041729681512 0  0.1517421068306824 0.2377171008267789 0  0.1454591741333096 0.2304662099646422 0  0.1414735563784554 0.221738924436683 0  0.1401081446132369 0.212242277013211 0  0.1414735563784555 0.202745629589739 0  0.1454591741333096 0.1940183440617798 0  0.1517421068306825 0.1867674531996431 0  0.1598133486294725 0.1815803810582709 0  0.1690190155206649 0.1788773533738513 0  0.1786133191209443 0.1788773533738514 0  0.1878189860121367 0.181580381058271 0  0.1958902278109266 0.1867674531996433 0  0.2021731605082994 0.19401834406178 0  0.2061587782631535 0.2027456295897391 0  0.03333333333333333 0 0  0.06666666666666667 0 0  0.1 0 0  0.1333333333333333 0 0  0.1666666666666667 0 0  0.2 0 0  0.2333333333333333 0 0  0.2666666666666667 0 0  0.3 0 0  0.3333333333333333 0 0  0.3666666666666666 0 0  0.4 0 0  0.4333333333333333 0 0  0.4666666666666667 0 0  0.5 0 0  0.5333333333333333 0 0  0.5666666666666667 0 0  0.6 0 0  0.6333333333333333 0 0  0.6666666666666666 0 0  0.7 0 0  0.7333333333333333 0 0  0.7666666666666667 0 0  0.8 0 0  0.8333333333333334 0 0  0.8666666666666667 0 0  0.9 0 0  0.9333333333333333 0 0  0.9666666666666667 0 0  0 0.9666666666666667 0  0 0.9333333333333333 0  0 0.9 0  0 0.8666666666666667 0  0 0.8333333333333334 0  0 0.8 0  0 0.7666666666666666 0  0 0.7333333333333334 0  0 0.7 0  0 0.6666666666666667 0  0 0.6333333333333333 0  0 0.6 0  0 0.5666666666666667 0  0 0.5333333333333333 0  0 0.5 0  0 0.4666666666666667 0  0 0.4333333333333333 0  0 0.4 0  0 0.3666666666666667 0  0 0.3333333333333334 0  0 0.3 0  0 0.2666666666666667 0  0 0.2333333333333333 0  0 0.2 0  0 0.1666666666666666 0  0 0.1333333333333333 0  0 0.09999999999999998 0  0 0.06666666666666665 0  0 0.03333333333333333 0  1 0.03333333333333333 0  1 0.06666666666666667 0  1 0.1 0  1 0.1333333333333333 0  1 0.1666666666666667 0  1 0.2 0  1 0.2333333333333333 0  1 0.2666666666666667 0  1 0.3 0  1 0.3333333333333333 0  1 0.3666666666666666 0  1 0.4 0  1 0.4333333333333333 0  1 0.4666666666666667 0  1 0.5 0  1 0.5333333333333333 0  1 0.5666666666666667 0  1 0.6 0  1 0.6333333333333333 0  1 0.6666666666666666 0  1 0.7 0  1 0.7333333333333333 0  1 0.7666666666666667 0  1 0.8 0  1 0.8333333333333334 0  1 0.8666666666666667 0  1 0.9 0  1 0.9333333333333333 0  1 0.9666666666666667 0  0.9666666666666667 1 0  0.9333333333333333 1 0  0.9 1 0  0.8666666666666667 1 0  0.8333333333333334 1 0  0.8 1 0  0.7666666666666666 1 0  0.7333333333333334 1 0  0.7 1 0  0.6666666666666667 1 0  0.6333333333333333 1 0  0.6 1 0  0.5666666666666667 1 0  0.5333333333333333 1 0  0.5 1 0  0.4666666666666667 1 0  0.4333333333333333 1 0  0.4 1 0  0.3666666666666667 1 0  0.3333333333333334 1 0  0.3 1 0  0.2666666666666667 1 0  0.2333333333333333 1 0  0.2 1 0  0.1666666666666666 1 0  0.1333333333333333 1 0  0.09999999999999998 1 0  0.06666666666666665 1 0  0.03333333333333333 1 0  0.6247072676344306 0.2689501343248463 0  0.6239274716502419 0.2788583817523955 0  0.6226301867455355 0.2887122389026952 0  0.6208189686880621 0.2984846970382296 0  0.6184987819006211 0.3081489705305245 0  0.6156759858539226 0.317678570277693 0  0.6123583176357204 0.3270473763092224 0  0.6085548707439923 0.3362297093789981 0  0.6042760701622942 0.3452004013503318 0  0.5995336437856049 0.3539348641800754 0  0.5943405902749808 0.3624091573127375 0  0.5887111434291297 0.3706000532998825 0  0.582660733170558 0.3784851014649517 0  0.5762059432532257 0.3860426894390078 0  0.5693644658076293 0.3932521023987353 0  0.5621550528479018 0.4000935798443317 0  0.5545974648738458 0.4065483697616639 0  0.5467124167087765 0.4125987800202355 0  0.5385215207216315 0.4182282268660866 0  0.5300472275889694 0.4234212803767108 0  0.5213127647592257 0.4281637067534002 0  0.512342072787892 0.4324425073350981 0  0.5031597397181163 0.4362459542268262 0  0.493790933686587 0.4395636224450283 0  0.4842613339394185 0.4423864184917269 0  0.4745970604471235 0.4447066052791678 0  0.4648246023115891 0.4465178233366412 0  0.4549707451612894 0.4478151082413475 0  0.4450624977337403 0.4485949042255363 0  0.4351270178464268 0.4488550739226177 0  0.4251915379591132 0.4485949042255363 0  0.4152832905315641 0.4478151082413475 0  0.4054294333812644 0.4465178233366411 0  0.39565697524573 0.4447066052791677 0  0.385992701753435 0.4423864184917267 0  0.3764631020062665 0.4395636224450281 0  0.3670942959747371 0.4362459542268259 0  0.3579119629049616 0.4324425073350978 0  0.3489412709336278 0.4281637067533998 0  0.3402068081038843 0.4234212803767103 0  0.3317325149712221 0.4182282268660862 0  0.3235416189840771 0.412598780020235 0  0.3156565708190078 0.4065483697616634 0  0.3080989828449519 0.4000935798443311 0  0.3008895698852244 0.3932521023987346 0  0.2940480924396279 0.3860426894390071 0  0.2875933025222958 0.3784851014649511 0  0.2815428922637242 0.3706000532998818 0  0.2759134454178731 0.3624091573127368 0  0.2707203919072489 0.3539348641800746 0  0.2659779655305596 0.3452004013503309 0  0.2616991649488616 0.3362297093789972 0  0.2578957180571336 0.3270473763092215 0  0.2545780498389315 0.3176785702776921 0  0.251755253792233 0.3081489705305236 0  0.249435067004792 0.2984846970382286 0  0.2476238489473186 0.2887122389026941 0  0.2463265640426123 0.2788583817523945 0  0.2455467680584236 0.2689501343248454 0  0.2452865983613423 0.2590146544375318 0  0.2455467680584237 0.2490791745502182 0  0.2463265640426126 0.2391709271226692 0  0.247623848947319 0.2293170699723696 0  0.2494350670047924 0.2195446118368351 0  0.2517552537922335 0.2098803383445402 0  0.2545780498389321 0.2003507385973717 0  0.2578957180571343 0.1909819325658423 0  0.2616991649488624 0.1817995994960667 0  0.2659779655305604 0.172828907524733 0  0.2707203919072498 0.1640944446949895 0  0.2759134454178741 0.1556201515623273 0  0.2815428922637251 0.1474292555751825 0  0.2875933025222969 0.1395442074101132 0  0.2940480924396291 0.1319866194360571 0  0.3008895698852256 0.1247772064763297 0  0.3080989828449531 0.1179357290307334 0  0.3156565708190092 0.1114809391134012 0  0.3235416189840785 0.1054305288548295 0  0.3317325149712236 0.09980108200897844 0  0.3402068081038856 0.0946080284983544 0  0.3489412709336291 0.08986560212166514 0  0.357911962904963 0.08558680153996717 0  0.3670942959747386 0.08178335464823916 0  0.3764631020062678 0.07846568643003712 0  0.3859927017534364 0.0756428903833386 0  0.3956569752457313 0.0733227035958976 0  0.4054294333812659 0.07151148553842429 0  0.4152832905315654 0.07021420063371797 0  0.4251915379591144 0.0694344046495293 0  0.435127017846428 0.0691742349524479 0  0.4450624977337415 0.06943440464952938 0  0.4549707451612905 0.07021420063371814 0  0.4648246023115901 0.07151148553842454 0  0.4745970604471245 0.07332270359589793 0  0.4842613339394195 0.07564289038333902 0  0.4937909336865879 0.07846568643003757 0  0.5031597397181173 0.0817833546482398 0  0.5123420727878929 0.08558680153996781 0  0.5213127647592265 0.08986560212166581 0  0.53004722758897 0.0946080284983552 0  0.5385215207216321 0.09980108200897933 0  0.5467124167087771 0.1054305288548305 0  0.5545974648738462 0.1114809391134021 0  0.5621550528479023 0.1179357290307343 0  0.5693644658076298 0.1247772064763308 0  0.576205943253226 0.1319866194360582 0  0.5826607331705582 0.1395442074101142 0  0.5887111434291299 0.1474292555751835 0  0.594340590274981 0.1556201515623285 0  0.5995336437856051 0.1640944446949906 0  0.6042760701622945 0.172828907524734 0  0.6085548707439925 0.1817995994960678 0  0.6123583176357205 0.1909819325658435 0  0.6156759858539227 0.2003507385973728 0  0.6184987819006211 0.2098803383445412 0  0.6208189686880622 0.2195446118368362 0  0.6226301867455355 0.2293170699723706 0  0.6239274716502419 0.2391709271226702 0  0.6247072676344306 0.2490791745502192 0  0.203885768735257 0.3325402459548524 0  0.2015714905276826 0.3421799084407872 0  0.1977777294810124 0.3513388578120612 0  0.1925979005829864 0.3597915703383434 0  0.1861595484119405 0.3673299121842922 0  0.1786212065659918 0.373768264355338 0  0.1701684940397096 0.378948093253364 0  0.1610095446684356 0.3827418543000342 0  0.1513698821825007 0.3850561325076086 0  0.1414868670645144 0.3858339426659677 0  0.1316038519465281 0.3850561325076086 0  0.1219641894605933 0.3827418543000343 0  0.1128052400893193 0.378948093253364 0  0.1043525275630371 0.3737682643553381 0  0.09681418571708833 0.3673299121842922 0  0.09037583354604248 0.3597915703383434 0  0.08519600464801645 0.3513388578120612 0  0.08140224360134621 0.3421799084407872 0  0.07908796539377183 0.3325402459548523 0  0.07831015523541281 0.3226572308368659 0  0.07908796539377186 0.3127742157188796 0  0.08140224360134626 0.3031345532329447 0  0.08519600464801655 0.2939756038616707 0  0.0903758335460426 0.2855228913353884 0  0.0968141857
[...]
<PointData  Vectors="$u$"> 
<DataArray  type="Float64"  Name="$u$"  NumberOfComponents="3" format="ascii">4.9863778577076847e-05 9.1919720070028884e-05 0.0000000000000000e+00  0.0000000000000000e+00 0.0000000000000000e+00 0.0000000000000000e+00  -1.1203365053337000e-04 0.0000000000000000e+00 0.0000000000000000e+00  -1.3887043829994939e-05 1.0000000000000000e-03 0.0000000000000000e+00  -1.3008532763597971e-04 1.0000000000000000e-03 0.0000000000000000e+00  -1.8474286105274088e-04 2.3789653746020162e-04 0.0000000000000000e+00  1.9204149656012765e-04 1.5061485317096216e-04 0.0000000000000000e+00  1.6703067892073826e-04 2.8224847687088140e-04 0.0000000000000000e+00  -9.8238546053116681e-05 3.5380005691799710e-05 0.0000000000000000e+00  -1.5100449647428114e-04 4.9496773292612000e-06 0.0000000000000000e+00  -1.7302564232116689e-04 3.7321538375939889e-05 0.0000000000000000e+00  -2.5579195747000488e-05 3.8965112253660096e-04 0.0000000000000000e+00  -4.5421336056044052e-04 3.1156010054749547e-04 0.0000000000000000e+00  -7.2305047380376742e-05 6.1314300955824679e-04 0.0000000000000000e+00  -5.7595184930073127e-05 5.5022300077496545e-04 0.0000000000000000e+00  1.4106997267421544e-04 9.4787096159146007e-04 0.0000000000000000e+00  5.4620615852310862e-05 8.0293589663417799e-04 0.0000000000000000e+00  -7.2979788134253898e-05 9.5793950824803859e-04 0.0000000000000000e+00  -4.7248508266040524e-04 5.2579327750564117e-04 0.0000000000000000e+00  -3.7114375255878785e-04 6.9096982690179881e-04 0.0000000000000000e+00  -2.5222374105795815e-04 9.0866181717161071e-04 0.0000000000000000e+00  -2.2872468654431652e-04 8.8610282330561297e-04 0.0000000000000000e+00  6.5974228795896131e-05 1.0779569458906399e-04 0.0000000000000000e+00  8.3081288938344821e-05 1.2226770003193684e-04 0.0000000000000000e+00  9.8024314902052183e-05 1.3379607308562554e-04 0.0000000000000000e+00  1.0929795266440717e-04 1.3952222206666041e-04 0.0000000000000000e+00  1.1602043497454445e-04 1.3639378220536085e-04 0.0000000000000000e+00  1.1739239905486515e-04 1.2331929125314648e-04 0.0000000000000000e+00  1.1423559151764324e-04 1.0395937426406681e-04 0.0000000000000000e+00  1.0503848250461238e-04 8.7977116543089173e-05 0.0000000000000000e+00  9.2160070994862074e-05 7.8874100679717402e-05 0.0000000000000000e+00  7.9561465040386983e-05 7.3392049190713776e-05 0.0000000000000000e+00  6.7010993509716089e-05 6.7411585590985298e-05 0.0000000000000000e+00  5.5801062734545331e-05 6.1291245797156100e-05 0.0000000000000000e+00  4.5537048557540029e-05 5.4587583660737381e-05 0.0000000000000000e+00  3.6703197228195084e-05 4.8586576913634634e-05 0.0000000000000000e+00  2.9341351492548066e-05 4.4396729077063194e-05 0.0000000000000000e+00  2.4283154471990386e-05 4.2542902561901370e-05 0.0000000000000000e+00  2.0939041613826402e-05 4.3646542195931986e-05 0.0000000000000000e+00  2.0259301720229066e-05 4.7641792606382145e-05 0.0000000000000000e+00  2.2388933592615372e-05 5.4846684258364023e-05 0.0000000000000000e+00  2.7860740501686263e-05 6.4516639327268769e-05 0.0000000000000000e+00  3.6372569273878210e-05 7.7127497951648796e-05 0.0000000000000000e+00  0.0000000000000000e+00 0.0000000000000000e+00 0.0000000000000000e+00  -8.8969053580373335e-06 0.0000000000000000e+00 0.0000000000000000e+00  -1.3560986998104749e-05 0.0000000000000000e+00 0.0000000000000000e+00  -1.7538689343018733e-05 0.0000000000000000e+00 0.0000000000000000e+00  -2.0810047397380870e-05 0.0000000000000000e+00 0.0000000000000000e+00  -2.3562572325219059e-05 0.0000000000000000e+00 0.0000000000000000e+00  -2.5919734441333712e-05 0.0000000000000000e+00 0.0000000000000000e+00  -2.8005169290786542e-05 0.0000000000000000e+00 0.0000000000000000e+00  -2.9661352564632880e-05 0.0000000000000000e+00 0.0000000000000000e+00  -3.0701717023443925e-05 0.0000000000000000e+00 0.0000000000000000e+00  -3.1675290668795922e-05 0.0000000000000000e+00 0.0000000000000000e+00  -3.3046770148317917e-05 0.0000000000000000e+00 0.0000000000000000e+00  -3.4789230396843370e-05 0.0000000000000000e+00 0.0000000000000000e+00  -3.6947513328475942e-05 0.0000000000000000e+00 0.0000000000000000e+00  -3.9625746675971630e-05 0.0000000000000000e+00 0.0000000000000000e+00  -4.4099281665122242e-05 0.0000000000000000e+00 0.0000000000000000e+00  -5.1033414410366426e-05 0.0000000000000000e+00 0.0000000000000000e+00  -6.0421481024907856e-05 0.0000000000000000e+00 0.0000000000000000e+00  -6.7214917285821936e-05 0.0000000000000000e+00 0.0000000000000000e+00  -7.3285118823013481e-05 0.0000000000000000e+00 0.0000000000000000e+00  -8.1289423895041871e-05 0.0000000000000000e+00 0.0000000000000000e+00  -8.6543060975872952e-05 0.0000000000000000e+00 0.0000000000000000e+00  -8.7990314629676685e-05 0.0000000000000000e+00 0.0000000000000000e+00  -8.7897833773226312e-05 0.0000000000000000e+00 0.0000000000000000e+00  -8.7946566464452346e-05 0.0000000000000000e+00 0.0000000000000000e+00  -8.9530294638960235e-05 0.0000000000000000e+00 0.0000000000000000e+00  -9.2094015267981394e-05 0.0000000000000000e+00 0.0000000000000000e+00  -9.7198578645543997e-05 0.0000000000000000e+00 0.0000000000000000e+00  -1.0391832690005527e-04 0.0000000000000000e+00 0.0000000000000000e+00  -1.1949062477518849e-05 9.7053772250983944e-04 0.0000000000000000e+00  -6.0717208788676433e-06 9.4090854202031010e-04 0.0000000000000000e+00  4.1866506996817693e-06 9.1007029034875786e-04 0.0000000000000000e+00  1.9478483032459610e-05 8.7872266437349575e-04 0.0000000000000000e+00  4.0091149911442939e-05 8.4622035384555373e-04 0.0000000000000000e+00  6.6176011360366381e-05 8.1290704681102302e-04 0.0000000000000000e+00  9.7940188167694209e-05 7.7834370993155270e-04 0.0000000000000000e+00  1.3547327391172788e-04 7.4105608208138263e-04 0.0000000000000000e+00  1.8175436337830291e-04 7.0006979713258997e-04 0.0000000000000000e+00  2.4102688183165534e-04 6.5626633513328285e-04 0.0000000000000000e+00  3.1312126144765039e-04 6.1564802550832353e-04 0.0000000000000000e+00  3.8835907614468541e-04 5.8386227174707513e-04 0.0000000000000000e+00  4.3983271855350134e-04 5.6839767330579285e-04 0.0000000000000000e+00  4.4238174721963197e-04 5.5733633544045901e-04 0.0000000000000000e+00  4.0099456071284356e-04 5.3465411657736166e-04 0.0000000000000000e+00  3.4640816283257309e-04 4.9242620930371999e-04 0.0000000000000000e+00  3.1096434227968945e-04 4.3726049154333498e-04 0.0000000000000000e+00  2.8951221624292533e-04 3.9330700034743239e-04 0.0000000000000000e+00  2.3923895244796058e-04 3.5370579193156991e-04 0.0000000000000000e+00  1.9493191945645953e-04 3.0547382433953907e-04 0.0000000000000000e+00  1.6288318636734197e-04 2.6813171910516833e-04 0.0000000000000000e+00  1.3135115329315360e-04 2.3555477090654069e-04 0.0000000000000000e+00  1.0127697244031746e-04 2.0467407629657020e-04 0.0000000000000000e+00  7.4545236752954046e-05 1.7414231233270648e-04 0.0000000000000000e+00  5.1979609314246768e-05 1.4417282047312209e-04 0.0000000000000000e+00  3.4125393249157287e-05 1.1403947571276342e-04 0.0000000000000000e+00  2.1015079764345436e-05 8.4736640203999673e-05 0.0000000000000000e+00  1.2079355008971026e-05 5.5688242425780940e-05 0.0000000000000000e+00  7.5543042793817338e-06 2.8264825863247647e-05 0.0000000000000000e+00  -1.1405778078286638e-04 3.0599831376572000e-05 0.0000000000000000e+00  -1.2047867487452056e-04 6.1348806564512183e-05 0.0000000000000000e+00  -1.3144694673467711e-04 9.3146015853468663e-05 0.0000000000000000e+00  -1.4775336929780046e-04 1.2644788452822027e-04 0.0000000000000000e+00  -1.7022165951030964e-04 1.6100928250830401e-04 0.0000000000000000e+00  -2.0008375375809537e-04 1.9764645397335725e-04 0.0000000000000000e+00  -2.3872730677995422e-04 2.3546591982631242e-04 0.0000000000000000e+00  -2.8692885332983956e-04 2.7410227701110001e-04 0.0000000000000000e+00  -3.4439802192033083e-04 3.0993309811644951e-04 0.0000000000000000e+00  -4.0491682657885371e-04 3.3931239405840454e-04 0.0000000000000000e+00  -4.5533405379264124e-04 3.5970306091210360e-04 0.0000000000000000e+00  -4.8405057569098151e-04 3.7777913251070322e-04 0.0000000000000000e+00  -4.8943745897441892e-04 4.0003664353857328e-04 0.0000000000000000e+00  -4.8721094511103953e-04 4.3814105391491145e-04 0.0000000000000000e+00  -4.9861979850399942e-04 4.8127210965524342e-04 0.0000000000000000e+00  -4.5487642251323046e-04 5.1706075344632309e-04 0.0000000000000000e+00  -4.0026054741489482e-04 5.8524667744840270e-04 0.0000000000000000e+00  -3.9276692802452296e-04 6.3708865685168444e-04 0.0000000000000000e+00  -3.7703434503259575e-04 6.6659526150291640e-04 0.0000000000000000e+00  -3.3909336236205350e-04 6.9398291644537022e-04 0.0000000000000000e+00  -2.9537936284313083e-04 7.2594815049777833e-04 0.0000000000000000e+00  -2.5638373574544227e-04 7.5921584843450271e-04 0.0000000000000000e+00  -2.2289627764912059e-04 7.9186434913936844e-04 0.0000000000000000e+00  -1.9504841007127489e-04 8.2423739025883644e-04 0.0000000000000000e+00  -1.7329263357303550e-04 8.5584593801537364e-04 0.0000000000000000e+00  -1.5688199605492294e-04 8.8606326056631720e-04 0.0000000000000000e+00  -1.4485048578155227e-04 9.1540467070417555e-04 0.0000000000000000e+00  -1.3665778872241785e-04 9.4402609636532603e-04 0.0000000000000000e+00  -1.3174237675837026e-04 9.7194961157342054e-04 0.0000000000000000e+00  -1.2248035198353401e-04 1.0000000000000000e-03 0.0000000000000000e+00  -1.1564478538683885e-04 1.0000000000000000e-03 0.0000000000000000e+00  -1.1001089866581742e-04 1.0000000000000000e-03 0.0000000000000000e+00  -1.0544416810549178e-04 1.0000000000000000e-03 0.0000000000000000e+00  -1.0154822519169976e-04 1.0000000000000000e-03 0.0000000000000000e+00  -9.8239428119448874e-05 1.0000000000000000e-03 0.0000000000000000e+00  -9.5597671861597471e-05 1.0000000000000000e-03 0.0000000000000000e+00  -9.3732120736291139e-05 1.0000000000000000e-03 0.0000000000000000e+00  -9.2489536417092550e-05 1.0000000000000000e-03 0.0000000000000000e+00  -9.1720488532341977e-05 1.0000000000000000e-03 0.0000000000000000e+00  -9.0584678162890291e-05 1.0000000000000000e-03 0.0000000000000000e+00  -8.8985265780476880e-05 1.0000000000000000e-03 0.0000000000000000e+00  -8.6874836239042756e-05 1.0000000000000000e-03 0.0000000000000000e+00  -8.4505392150776632e-05 1.0000000000000000e-03 0.0000000000000000e+00  -8.2079874229526564e-05 1.0000000000000000e-03 0.0000000000000000e+00  -7.8949902427495204e-05 1.0000000000000000e-03 0.0000000000000000e+00  -7.4705571382920427e-05 1.0000000000000000e-03 0.0000000000000000e+00  -6.8461068730206484e-05 1.0000000000000000e-03 0.0000000000000000e+00  -6.1062936140729557e-05 1.0000000000000000e-03 0.0000000000000000e+00  -5.4702012713372407e-05 1.0000000000000000e-03 0.0000000000000000e+00  -5.0816440667500492e-05 1.0000000000000000e-03 0.0000000000000000e+00  -4.7301462357766175e-05 1.0000000000000000e-03 0.0000000000000000e+00  -4.2901240903213984e-05 1.0000000000000000e-03 0.0000000000000000e+00  -3.9697158335878415e-05 1.0000000000000000e-03 0.0000000000000000e+00  -3.7999122109499507e-05 1.0000000000000000e-03 0.0000000000000000e+00  -3.5870333494404137e-05 1.0000000000000000e-03 0.0000000000000000e+00  -3.3005527456795112e-05 1.0000000000000000e-03 0.0000000000000000e+00  -2.8372072073207312e-05 1.0000000000000000e-03 0.0000000000000000e+00  -2.1718051779116440e-05 1.0000000000000000e-03 0.0000000000000000e+00  -1.7578958686113435e-04 2.5405480552526198e-04 0.0000000000000000e+00  -1.6541346533024414e-04 2.6924369859944772e-04 0.0000000000000000e+00  -1.5358405008304097e-04 2.8425694120255967e-04 0.0000000000000000e+00  -1.4087941359626800e-04 2.9855667581545867e-04 0.0000000000000000e+00  -1.2756865020830825e-04 3.1265637761709864e-04 0.0000000000000000e+00  -1.1386884669032056e-04 3.2585759600581255e-04 0.0000000000000000e+00  -1.0042706450732612e-04 3.3780041131456820e-04 0.0000000000000000e+00  -8.7887336811658595e-05 3.4834385564610153e-04 0.0000000000000000e+00  -7.6533083784338890e-05 3.5712809772585379e-04 0.0000000000000000e+00  -6.7252604895080842e-05 3.6404409292461711e-04 0.0000000000000000e+00  -6.0136030357092343e-05 3.6923957612681194e-04 0.0000000000000000e+00  -5.5525701267594078e-05 3.7286181023121127e-04 0.0000000000000000e+00  -5.3582122098030291e-05 3.7512660215202387e-04 0.0000000000000000e+00  -5.4272083025022063e-05 3.7661085753005146e-04 0.0000000000000000e+00  -5.7523249638460929e-05 3.7748202053967483e-04 0.0000000000000000e+00  -6.3016067550233562e-05 3.7886467443874365e-04 0.0000000000000000e+00  -6.9884049572165082e-05 3.8159827666854639e-04 0.0000000000000000e+00  -7.7065364440342062e-05 3.8618652610051586e-04 0.0000000000000000e+00  -8.3906358547301433e-05 3.9290134217218037e-04 0.0000000000000000e+00  -8.9587137642909529e-05 4.0131566842407945e-04 0.0000000000000000e+00  -9.4532113842909853e-05 4.1152085860415486e-04 0.0000000000000000e+00  -9.8258277923375998e-05 4.2321258354396967e-04 0.0000000000000000e+00  -1.0078090239249896e-04 4.3610059921121767e-04 0.0000000000000000e+00  -1.0212469899112479e-04 4.4980808181800506e-04 0.0000000000000000e+00  -1.0234860360929757e-04 4.6395820899060324e-04 0.0000000000000000e+00  -1.0150317344147050e-04 4.7805084803818172e-04 0.0000000000000000e+00  -9.9704992785061116e-05 4.9170527475598505e-04 0.0000000000000000e+00  -9.7285042825610098e-05 5.0443358140856928e-04 0.0000000000000000e+00  -9.4338718263143085e-05 5.1619219953277047e-04 0.0000000000000000e+00  -9.0980839142724613e-05 5.2682070898420414e-04 0.0000000000000000e+00  -8.7265735079304635e-05 5.3638178611127509e-04 0.0000000000000000e+00  -8.3000339465834401e-05 5.4501705090428216e-04 0.0000000000000000e+00  -7.7838506842231104e-05 5.5264682043541021e-04 0.0000000000000000e+00  -7.1025475820537219e-05 5.5894129150214564e-04 0.0000000000000000e+00  -6.1901596948470855e-05 5.6292328847212672e-04 0.0000000000000000e+00  -5.0222887253790893e-05 5.6359582733225009e-04 0.0000000000000000e+00  -3.6075553835102748e-05 5.6032168388640781e-04 0.0000000000000000e+00  -1.9455489340449728e-05 5.5286472059614430e-04 0.0000000000000000e+00  -4.4024846516219996e-07 5.4101048269333232e-04 0.0000000000000000e+00  2.0797250615693302e-05 5.2459184604359622e-04 0.0000000000000000e+00  4.3734491023231378e-05 5.0355805726050404e-04 0.0000000000000000e+00  6.7721136089644515e-05 4.7797846378561581e-04 0.0000000000000000e+00  9.1346764759925975e-05 4.4880071423827081e-04 0.0000000000000000e+00  1.1410766618052289e-04 4.1688368032522373e-04 0.0000000000000000e+00  1.3463564031012475e-04 3.8353813505661986e-04 0.0000000000000000e+00  1.5161366017245022e-04 3.4965730011143632e-04 0.0000000000000000e+00  1.6560178435916435e-04 3.1792579256263893e-04 0.0000000000000000e+00  1.7622599438381538e-04 2.8798215130195680e-04 0.0000000000000000e+00  1.8369215137280562e-04 2.6057918068077848e-04 0.0000000000000000e+00  1.8849315091689069e-04 2.3586605326531959e-04 0.0000000000000000e+00  1.9092103376441825e-04 2.1342676067085826e-04 0.0000000000000000e+00  1.9108418571266942e-04 1.9298221373661450e-04 0.0000000000000000e+00  1.8880972556434151e-04 1.7403271374557308e-04 0.0000000000000000e+00  1.8382745706221524e-04 1.5665450374399668e-04 0.0000000000000000e+00  1.7617592672000682e-04 1.4072083363443136e-04 0.0000000000000000e+00  1.6601199931755379e-04 1.2631792094449957e-04 0.0000000000000000e+00  1.5413240077894019e-04 1.1370695414828229e-04 0.0000000000000000e+00  1.4155372346334353e-04 1.0250116646941265e-04 0.0000000000000000e+00  1.2862444586406098e-04 9.1852193400465619e-05 0.0000000000000000e+00  1.1529694812779549e-04 8.1350561012964273e-05 0.0000000000000000e+00  1.0105690765915022e-04 7.0497780603135055e-05 0.0000000000000000e+00  8.5528504072204575e-05 6.0015138434301051e-05 0.0000000000000000e+00  6.9298007199184011e-05 5.0837970932355696e-05 0.0000000000000000e+00  5.3959533883418170e-05 4.3459099592783251e-05 0.0000000000000000e+00  4.0734986412445648e-05 3.7961219111316064e-05 0.0000000000000000e+00  3.0429827731838989e-05 3.3581220025546091e-05 0.0000000000000000e+00  2.2658340820408319e-05 2.9677744671366990e-05 0.0000000000000000e+00  1.6688765140427843e-05 2.5864370836676442e-05 0.0000000000000000e+00  1.1800907186103316e-05 2.2054110160496111e-05 0.0000000000000000e+00  7.4944614623771687e-06 1.8336661527997774e-05 0.0000000000000000e+00  3.5121180234287343e-06 1.4841744440969300e-05 0.0000000000000000e+00  -2.4193325015154789e-07 1.1691496153511959e-05 0.0000000000000000e+00  -3.7917946203701858e-06 8.8825366787497761e-06 0.0000000000000000e+00  -7.1914369562199915e-06 6.5087228674222638e-06 0.0000000000000000e+00  -1.0342583964642017e-05 4.5604020343903297e-06 0.0000000000000000e+00  -1.3266340789887644e-05 2.9622531160664148e-06 0.0000000000000000e+00  -1.5973206055867557e-05 1.7499847477248639e-06 0.0000000000000000e+00  -1.8418738590083515e-05 8.4427443867122145e-07 0.0000000000000000e+00  -2.0664828074139675e-05 2.3406351427732860e-07 0.0000000000000000e+00  -2.2687070318812295e-05 -1.4244895548858258e-07 0.0000000000000000e+00  -2.4482718828206899e-05 -3.4126270171240487e-07 0.0000000000000000e+00  -2.6125333526987324e-05 -3.7599539541962515e-07 0.0000000000000000e+00  -2.7595348811234626e-05 -2.9896039927064465e-07 0.0000000000000000e+00  -2.8927214631300335e-05 -1.6217140570516508e-07 0.0000000000000000e+00  -3.0162346733845019e-05 6.2523826799717719e-09 0.0000000000000000e+00  -3.1329457496892276e-05 1.9515087034640707e-07 0.0000000000000000e+00  -3.2436178703333136e-05 3.9184600537955569e-07 0.0000000000000000e+00  -3.3512534235467239e-05 5.5522286047113901e-07 0.0000000000000000e+00  -3.4590043637411988e-05 7.3734662272603582e-07 0.0000000000000000e+00  -3.5654140577129799e-05 9.3001092268474896e-07 0.0000000000000000e+00  -3.6756347376583436e-05 1.1516027920623957e-06 0.0000000000000000e+00  -3.7871968601622795e-05 1.4357852554328720e-06 0.0000000000000000e+00  -3.8975832484805129e-05 1.7993572349025494e-06 0.0000000000000000e+00  -4.0121053757663513e-05 2.3240965858503412e-06 0.0000000000000000e+00  -4.1210158656376753e-05 3.0114365308278606e-06 0.0000000000000000e+00  -4.2240468885891941e-05 3.9127894341214142e-06 0.0000000000000000e+00  -4.3144391460415101e-05 5.0300361261489229e-06 0.0000000000000000e+00  -4.3905188843697733e-05 6.3305443658377737e-06 0.0000000000000000e+00  -4.4554843932833963e-05 7.8286609955832027e-06 0.0000000000000000e+00  -4.5058982130279604e-05 9.4890459453224199e-06 0.0000000000000000e+00  -4.5608739208720935e-05 1.1219860681727981e-05 0.0000000000000000e+00  -4.6478806445023375e-05 1.3072952592010491e-05 0.0000000000000000e+00  -4.8189022815616620e-05 1.5127359027885151e-05 0.0000000000000000e+00  -5.1349596481957020e-05 1.7800841127814510e-05 0.0000000000000000e+00  -5.6729714863245854e-05 2.1699641296559086e-05 0.0000000000000000e+00  -6.4178154504503017e-05 2.7698926390422511e-05 0.0000000000000000e+00  -7.3719289003835434e-05 3.5907304813238296e-05 0.0000000000000000e+00  -8.4141878878658496e-05 4.6176022227275108e-05 0.0000000000000000e+00  -9.4990407529226819e-05 5.7405845461889033e-05 0.0000000000000000e+00  -1.0653330243123151e-04 6.8825758031925240e-05 0.0000000000000000e+00  -1.1938329759873846e-04 8.0439798175858002e-05 0.0000000000000000e+00  -1.3401733965936818e-04 9.2968505380376770e-05 0.0000000000000000e+00  -1.4983353534853380e-04 1.0740547051118641e-04 0.0000000000000000e+00  -1.6534516546826437e-04 1.2406967311131303e-04 0.0000000000000000e+00  -1.7877831055847991e-04 1.4283865696003165e-04 0.0000000000000000e+00  -1.8853095702327770e-04 1.6276113711297005e-04 0.0000000000000000e+00  -1.9388209259992196e-04 1.8278818115000523e-04 0.0000000000000000e+00  -1.9450857456871024e-04 2.0237089338877678e-04 0.0000000000000000e+00  -1.9121250115001251e-04 2.2061940407666907e-04 0.0000000000000000e+00  1.9391634309261923e-04 1.5022766632053072e-04 0.0000000000000000e+00  1.9120440450027057e-04 1.4756060721668490e-04 0.0000000000000000e+00  1.8412286225509507e-04 1.4339250485786398e-04 0.0000000000000000e+00  1.7398751078943008e-04 1.391