<?xml version="1.0"?>
<VTKFile type="UnstructuredGrid"  version="0.1"  >
<UnstructuredGrid>
<Piece  NumberOfPoints="3879" NumberOfCells="6881">
<Points>
<DataArray  type="Float64"  NumberOfComponents="3"  format="ascii">0.207524190028372 0.2122422770132111 0  0 0 0  1 0 0  0 1 0  1 1 0  0.6249674373315121 0.2590146544375328 0  0.204663578893616 0.322657230836866 0  0.09605577522599912 0.4018360776629776 0  0.671351124618251 0.08738059142081528 0  0.7842102907526436 0.1666439122351055 0  0.8512483166984784 0.1985391006160637 0  0.6418797837909295 0.4423157172830166 0  0.9292488447973215 0.3869277868069776 0  0.3197896119137055 0.5509935221980964 0  0.3979283685568406 0.5079871620336583 0  0.1572503457993085 0.7345153245035532 0  0.3032914287999163 0.7872981443735918 0  0.3549464687598876 0.8870324161721976 0  0.9691791685505482 0.5159450047798622 0  0.9447564590470373 0.6146164845729313 0  0.7687603548175107 0.7176858127488035 0  0.8926159261971183 0.7422924070424508 0  0.2061587782631535 0.2217389244366831 0  0.2021731605082994 0.2304662099646423 0  0.1958902278109265 0.2377171008267789 0  0.1878189860121365 0.2429041729681512 0  0.1786133191209442 0.2456072006525708 0  0.1690190155206647 0.2456072006525708 0  0.1598133486294724 0.2429041729681512 0  0.1517421068306824 0.2377171008267789 0  0.1454591741333096 0.2304662099646422 0  0.1414735563784554 0.221738924436683 0  0.1401081446132369 0.212242277013211 0  0.1414735563784555 0.202745629589739 0  0.1454591741333096 0.1940183440617798 0  0.1517421068306825 0.1867674531996431 0  0.1598133486294725 0.1815803810582709 0  0.1690190155206649 0.1788773533738513 0  0.1786133191209443 0.1788773533738514 0  0.1878189860121367 0.181580381058271 0  0.1958902278109266 0.1867674531996433 0  0.2021731605082994 0.19401834406178 0  0.2061587782631535 0.2027456295897391 0  0.03333333333333333 0 0  0.06666666666666667 0 0  0.1 0 0  0.1333333333333333 0 0  0.1666666666666667 0 0  0.2 0 0  0.2333333333333333 0 0  0.2666666666666667 0 0  0.3 0 0  0.3333333333333333 0 0  0.3666666666666666 0 0  0.4 0 0  0.4333333333333333 0 0  0.4666666666666667 0 0  0.5 0 0  0.5333333333333333 0 0  0.5666666666666667 0 0  0.6 0 0  0.6333333333333333 0 0  0.6666666666666666 0 0  0.7 0 0  0.7333333333333333 0 0  0.7666666666666667 0 0  0.8 0 0  0.8333333333333334 0 0  0.8666666666666667 0 0  0.9 0 0  0.9333333333333333 0 0  0.9666666666666667 0 0  0 0.9666666666666667 0  0 0.9333333333333333 0  0 0.9 0  0 0.8666666666666667 0  0 0.8333333333333334 0  0 0.8 0  0 0.7666666666666666 0  0 0.7333333333333334 0  0 0.7 0  0 0.6666666666666667 0  0 0.6333333333333333 0  0 0.6 0  0 0.5666666666666667 0  0 0.5333333333333333 0  0 0.5 0  0 0.4666666666666667 0  0 0.4333333333333333 0  0 0.4 0  0 0.3666666666666667 0  0 0.3333333333333334 0  0 0.3 0  0 0.2666666666666667 0  0 0.2333333333333333 0  0 0.2 0  0 0.1666666666666666 0  0 0.1333333333333333 0  0 0.09999999999999998 0  0 0.06666666666666665 0  0 0.03333333333333333 0  1 0.03333333333333333 0  1 0.06666666666666667 0  1 0.1 0  1 0.1333333333333333 0  1 0.1666666666666667 0  1 0.2 0  1 0.2333333333333333 0  1 0.2666666666666667 0  1 0.3 0  1 0.3333333333333333 0  1 0.3666666666666666 0  1 0.4 0  1 0.4333333333333333 0  1 0.4666666666666667 0  1 0.5 0  1 0.5333333333333333 0  1 0.5666666666666667 0  1 0.6 0  1 0.6333333333333333 0  1 0.6666666666666666 0  1 0.7 0  1 0.7333333333333333 0  1 0.7666666666666667 0  1 0.8 0  1 0.8333333333333334 0  1 0.8666666666666667 0  1 0.9 0  1 0.9333333333333333 0  1 0.9666666666666667 0  0.9666666666666667 1 0  0.9333333333333333 1 0  0.9 1 0  0.8666666666666667 1 0  0.8333333333333334 1 0  0.8 1 0  0.7666666666666666 1 0  0.7333333333333334 1 0  0.7 1 0  0.6666666666666667 1 0  0.6333333333333333 1 0  0.6 1 0  0.5666666666666667 1 0  0.5333333333333333 1 0  0.5 1 0  0.4666666666666667 1 0  0.4333333333333333 1 0  0.4 1 0  0.3666666666666667 1 0  0.3333333333333334 1 0  0.3 1 0  0.2666666666666667 1 0  0.2333333333333333 1 0  0.2 1 0  0.1666666666666666 1 0  0.1333333333333333 1 0  0.09999999999999998 1 0  0.06666666666666665 1 0  0.03333333333333333 1 0  0.6247072676344306 0.2689501343248463 0  0.6239274716502419 0.2788583817523955 0  0.6226301867455355 0.2887122389026952 0  0.6208189686880621 0.2984846970382296 0  0.6184987819006211 0.3081489705305245 0  0.6156759858539226 0.317678570277693 0  0.6123583176357204 0.3270473763092224 0  0.6085548707439923 0.3362297093789981 0  0.6042760701622942 0.3452004013503318 0  0.5995336437856049 0.3539348641800754 0  0.5943405902749808 0.3624091573127375 0  0.5887111434291297 0.3706000532998825 0  0.582660733170558 0.3784851014649517 0  0.5762059432532257 0.3860426894390078 0  0.5693644658076293 0.3932521023987353 0  0.5621550528479018 0.4000935798443317 0  0.5545974648738458 0.4065483697616639 0  0.5467124167087765 0.4125987800202355 0  0.5385215207216315 0.4182282268660866 0  0.5300472275889694 0.4234212803767108 0  0.5213127647592257 0.4281637067534002 0  0.512342072787892 0.4324425073350981 0  0.5031597397181163 0.4362459542268262 0  0.493790933686587 0.4395636224450283 0  0.4842613339394185 0.4423864184917269 0  0.4745970604471235 0.4447066052791678 0  0.4648246023115891 0.4465178233366412 0  0.4549707451612894 0.4478151082413475 0  0.4450624977337403 0.4485949042255363 0  0.4351270178464268 0.4488550739226177 0  0.4251915379591132 0.4485949042255363 0  0.4152832905315641 0.4478151082413475 0  0.4054294333812644 0.4465178233366411 0  0.39565697524573 0.4447066052791677 0  0.385992701753435 0.4423864184917267 0  0.3764631020062665 0.4395636224450281 0  0.3670942959747371 0.4362459542268259 0  0.3579119629049616 0.4324425073350978 0  0.3489412709336278 0.4281637067533998 0  0.3402068081038843 0.4234212803767103 0  0.3317325149712221 0.4182282268660862 0  0.3235416189840771 0.412598780020235 0  0.3156565708190078 0.4065483697616634 0  0.3080989828449519 0.4000935798443311 0  0.3008895698852244 0.3932521023987346 0  0.2940480924396279 0.3860426894390071 0  0.2875933025222958 0.3784851014649511 0  0.2815428922637242 0.3706000532998818 0  0.2759134454178731 0.3624091573127368 0  0.2707203919072489 0.3539348641800746 0  0.2659779655305596 0.3452004013503309 0  0.2616991649488616 0.3362297093789972 0  0.2578957180571336 0.3270473763092215 0  0.2545780498389315 0.3176785702776921 0  0.251755253792233 0.3081489705305236 0  0.249435067004792 0.2984846970382286 0  0.2476238489473186 0.2887122389026941 0  0.2463265640426123 0.2788583817523945 0  0.2455467680584236 0.2689501343248454 0  0.2452865983613423 0.2590146544375318 0  0.2455467680584237 0.2490791745502182 0  0.2463265640426126 0.2391709271226692 0  0.247623848947319 0.2293170699723696 0  0.2494350670047924 0.2195446118368351 0  0.2517552537922335 0.2098803383445402 0  0.2545780498389321 0.2003507385973717 0  0.2578957180571343 0.1909819325658423 0  0.2616991649488624 0.1817995994960667 0  0.2659779655305604 0.172828907524733 0  0.2707203919072498 0.1640944446949895 0  0.2759134454178741 0.1556201515623273 0  0.2815428922637251 0.1474292555751825 0  0.2875933025222969 0.1395442074101132 0  0.2940480924396291 0.1319866194360571 0  0.3008895698852256 0.1247772064763297 0  0.3080989828449531 0.1179357290307334 0  0.3156565708190092 0.1114809391134012 0  0.3235416189840785 0.1054305288548295 0  0.3317325149712236 0.09980108200897844 0  0.3402068081038856 0.0946080284983544 0  0.3489412709336291 0.08986560212166514 0  0.357911962904963 0.08558680153996717 0  0.3670942959747386 0.08178335464823916 0  0.3764631020062678 0.07846568643003712 0  0.3859927017534364 0.0756428903833386 0  0.3956569752457313 0.0733227035958976 0  0.4054294333812659 0.07151148553842429 0  0.4152832905315654 0.07021420063371797 0  0.4251915379591144 0.0694344046495293 0  0.435127017846428 0.0691742349524479 0  0.4450624977337415 0.06943440464952938 0  0.4549707451612905 0.07021420063371814 0  0.4648246023115901 0.07151148553842454 0  0.4745970604471245 0.07332270359589793 0  0.4842613339394195 0.07564289038333902 0  0.4937909336865879 0.07846568643003757 0  0.5031597397181173 0.0817833546482398 0  0.5123420727878929 0.08558680153996781 0  0.5213127647592265 0.08986560212166581 0  0.53004722758897 0.0946080284983552 0  0.5385215207216321 0.09980108200897933 0  0.5467124167087771 0.1054305288548305 0  0.5545974648738462 0.1114809391134021 0  0.5621550528479023 0.1179357290307343 0  0.5693644658076298 0.1247772064763308 0  0.576205943253226 0.1319866194360582 0  0.5826607331705582 0.1395442074101142 0  0.5887111434291299 0.1474292555751835 0  0.594340590274981 0.1556201515623285 0  0.5995336437856051 0.1640944446949906 0  0.6042760701622945 0.172828907524734 0  0.6085548707439925 0.1817995994960678 0  0.6123583176357205 0.1909819325658435 0  0.6156759858539227 0.2003507385973728 0  0.6184987819006211 0.2098803383445412 0  0.6208189686880622 0.2195446118368362 0  0.6226301867455355 0.2293170699723706 0  0.6239274716502419 0.2391709271226702 0  0.6247072676344306 0.2490791745502192 0  0.203885768735257 0.3325402459548524 0  0.2015714905276826 0.3421799084407872 0  0.1977777294810124 0.3513388578120612 0  0.1925979005829864 0.3597915703383434 0  0.1861595484119405 0.3673299121842922 0  0.1786212065659918 0.373768264355338 0  0.1701684940397096 0.378948093253364 0  0.1610095446684356 0.3827418543000342 0  0.1513698821825007 0.3850561325076086 0  0.1414868670645144 0.3858339426659677 0  0.1316038519465281 0.3850561325076086 0  0.1219641894605933 0.3827418543000343 0  0.1128052400893193 0.378948093253364 0  0.1043525275630371 0.3737682643553381 0  0.09681418571708833 0.3673299121842922 0  0.09037583354604248 0.3597915703383434 0  0.08519600464801645 0.3513388578120612 0  0.08140224360134621 0.3421799084407872 0  0.07908796539377183 0.3325402459548523 0  0.07831015523541281 0.3226572308368659 0  0.07908796539377186 0.3127742157188796 0  0.08140224360134626 0.3031345532329447 0  0.08519600464801655 0.2939756038616707 0  0.0903758335460426 0.2855228913353884 0  0.0968141857
[...]
<PointData  Vectors="$u$"> 
<DataArray  type="Float64"  Name="$u$"  NumberOfComponents="3" format="ascii">3.7837246403160196e-04 7.0717818857308882e-04 0.0000000000000000e+00  0.0000000000000000e+00 0.0000000000000000e+00 0.0000000000000000e+00  -9.4281051310710193e-04 0.0000000000000000e+00 0.0000000000000000e+00  -1.5943352199329343e-04 8.0000000000000002e-03 0.0000000000000000e+00  -1.1269994406768241e-03 8.0000000000000002e-03 0.0000000000000000e+00  -1.4979400135798006e-03 1.9974560480332964e-03 0.0000000000000000e+00  1.6102041310407068e-03 1.1660267248635265e-03 0.0000000000000000e+00  1.3872995784002732e-03 2.0302953044703648e-03 0.0000000000000000e+00  -8.4529963667293387e-04 2.5832102905806335e-04 0.0000000000000000e+00  -1.2484080600217926e-03 1.4258451307364023e-05 0.0000000000000000e+00  -1.4200079860751105e-03 2.1884561426892190e-04 0.0000000000000000e+00  1.6724777689339814e-05 3.1713639625613600e-03 0.0000000000000000e+00  -3.6280477469589510e-03 2.1323481217749556e-03 0.0000000000000000e+00  -4.5801024601444825e-04 4.8798549974464296e-03 0.0000000000000000e+00  -3.1968143679186786e-04 4.3994497140926311e-03 0.0000000000000000e+00  1.2271117369925615e-03 7.6827617359173329e-03 0.0000000000000000e+00  4.8587338355077795e-04 6.3344009893146081e-03 0.0000000000000000e+00  -6.4823638913471594e-04 7.6664798658678214e-03 0.0000000000000000e+00  -3.8546474686970800e-03 3.8649480215455587e-03 0.0000000000000000e+00  -2.8023055353834196e-03 5.7862608241309368e-03 0.0000000000000000e+00  -2.0028720946973734e-03 7.2780472067463416e-03 0.0000000000000000e+00  -1.8394695504667796e-03 7.2291257170305984e-03 0.0000000000000000e+00  5.0854943620355945e-04 8.3647062826090626e-04 0.0000000000000000e+00  6.4517512195107858e-04 9.5212544159185635e-04 0.0000000000000000e+00  7.6671078223715307e-04 1.0521358322264952e-03 0.0000000000000000e+00  8.6089822175304683e-04 1.0949719112577035e-03 0.0000000000000000e+00  9.3312461897344207e-04 1.0759230808635365e-03 0.0000000000000000e+00  9.4422263436769475e-04 9.6175017865291357e-04 0.0000000000000000e+00  9.2257532672855504e-04 7.9415300292450311e-04 0.0000000000000000e+00  8.4413884191273465e-04 6.5024289659010141e-04 0.0000000000000000e+00  7.3354173487571062e-04 5.6782375645802140e-04 0.0000000000000000e+00  6.3505945421505076e-04 5.2836058485951516e-04 0.0000000000000000e+00  5.3271973724291620e-04 4.7725341563011124e-04 0.0000000000000000e+00  4.4194844231646390e-04 4.3736166664062914e-04 0.0000000000000000e+00  3.5994514588555729e-04 3.8836012842145107e-04 0.0000000000000000e+00  2.9037379756218586e-04 3.4520699762706269e-04 0.0000000000000000e+00  2.2790380495071823e-04 3.1818324176817746e-04 0.0000000000000000e+00  1.8663653048609161e-04 3.0803270600671015e-04 0.0000000000000000e+00  1.5765820196477200e-04 3.1899586743155788e-04 0.0000000000000000e+00  1.4901797570506474e-04 3.5229309058908652e-04 0.0000000000000000e+00  1.6731739670025115e-04 4.0859757554757354e-04 0.0000000000000000e+00  2.0428534187696260e-04 4.8437659710180383e-04 0.0000000000000000e+00  2.7938820500756902e-04 5.8676542541575118e-04 0.0000000000000000e+00  0.0000000000000000e+00 0.0000000000000000e+00 0.0000000000000000e+00  -7.6459748378909578e-05 0.0000000000000000e+00 0.0000000000000000e+00  -1.0217742875804265e-04 0.0000000000000000e+00 0.0000000000000000e+00  -1.3589132055044756e-04 0.0000000000000000e+00 0.0000000000000000e+00  -1.5784243544872888e-04 0.0000000000000000e+00 0.0000000000000000e+00  -1.8061036397382950e-04 0.0000000000000000e+00 0.0000000000000000e+00  -1.9968151742450724e-04 0.0000000000000000e+00 0.0000000000000000e+00  -2.1854465767978865e-04 0.0000000000000000e+00 0.0000000000000000e+00  -2.3349136828354979e-04 0.0000000000000000e+00 0.0000000000000000e+00  -2.4518192262917122e-04 0.0000000000000000e+00 0.0000000000000000e+00  -2.5648050303054729e-04 0.0000000000000000e+00 0.0000000000000000e+00  -2.7146774568303177e-04 0.0000000000000000e+00 0.0000000000000000e+00  -2.8935446031737327e-04 0.0000000000000000e+00 0.0000000000000000e+00  -3.1035214757729502e-04 0.0000000000000000e+00 0.0000000000000000e+00  -3.3614650927313305e-04 0.0000000000000000e+00 0.0000000000000000e+00  -3.7609321532131230e-04 0.0000000000000000e+00 0.0000000000000000e+00  -4.3847697640861968e-04 0.0000000000000000e+00 0.0000000000000000e+00  -5.2112625050686082e-04 0.0000000000000000e+00 0.0000000000000000e+00  -5.8167508700188240e-04 0.0000000000000000e+00 0.0000000000000000e+00  -6.3347295595234999e-04 0.0000000000000000e+00 0.0000000000000000e+00  -7.0321864764598223e-04 0.0000000000000000e+00 0.0000000000000000e+00  -7.5105063571257239e-04 0.0000000000000000e+00 0.0000000000000000e+00  -7.6657393125543550e-04 0.0000000000000000e+00 0.0000000000000000e+00  -7.7038122525468654e-04 0.0000000000000000e+00 0.0000000000000000e+00  -7.7147994759437107e-04 0.0000000000000000e+00 0.0000000000000000e+00  -7.8393413544748831e-04 0.0000000000000000e+00 0.0000000000000000e+00  -8.0129226134118231e-04 0.0000000000000000e+00 0.0000000000000000e+00  -8.3664833974884825e-04 0.0000000000000000e+00 0.0000000000000000e+00  -8.8395244232020761e-04 0.0000000000000000e+00 0.0000000000000000e+00  -1.4492457936283171e-04 7.7735183945618104e-03 0.0000000000000000e+00  -9.5651832376380099e-05 7.5458790925352912e-03 0.0000000000000000e+00  -1.3367486332369703e-05 7.3093884809746160e-03 0.0000000000000000e+00  1.1170745140531343e-04 7.0675675425429926e-03 0.0000000000000000e+00  2.7841758533910259e-04 6.8184412800669876e-03 0.0000000000000000e+00  4.9200246575646905e-04 6.5590417605787144e-03 0.0000000000000000e+00  7.5401385813682591e-04 6.2917621672682507e-03 0.0000000000000000e+00  1.0682430425472565e-03 5.9949793699681959e-03 0.0000000000000000e+00  1.4657009870385719e-03 5.6709677081099377e-03 0.0000000000000000e+00  1.9713727007205253e-03 5.3136764920011402e-03 0.0000000000000000e+00  2.6113762961609407e-03 4.9535428340657679e-03 0.0000000000000000e+00  3.3495672004715577e-03 4.6565918647196612e-03 0.0000000000000000e+00  4.0124862068796384e-03 4.5078670902205147e-03 0.0000000000000000e+00  3.9694187752886143e-03 4.5411776442110365e-03 0.0000000000000000e+00  3.3834695579188895e-03 4.3191118895105707e-03 0.0000000000000000e+00  2.8316529431558516e-03 3.9470119706940471e-03 0.0000000000000000e+00  2.5772936354128001e-03 3.3513203014787192e-03 0.0000000000000000e+00  2.3967868623499386e-03 2.9780467873829260e-03 0.0000000000000000e+00  1.9306107050302797e-03 2.6930888519150673e-03 0.0000000000000000e+00  1.5399366178563058e-03 2.2928305185155834e-03 0.0000000000000000e+00  1.2772327515096652e-03 2.0085683207308087e-03 0.0000000000000000e+00  1.0206896288316770e-03 1.7612822014352056e-03 0.0000000000000000e+00  7.8541476507143623e-04 1.5305703857513263e-03 0.0000000000000000e+00  5.7582454357308667e-04 1.3029345903133437e-03 0.0000000000000000e+00  3.9997479790432246e-04 1.0797320207992696e-03 0.0000000000000000e+00  2.6039737102320537e-04 8.5262037917601459e-04 0.0000000000000000e+00  1.5798581499710810e-04 6.3718723213309378e-04 0.0000000000000000e+00  8.7398716200924446e-05 4.1272355735265804e-04 0.0000000000000000e+00  5.7399661844073569e-05 2.1498117106437045e-04 0.0000000000000000e+00  -9.5657608029227977e-04 2.1762504988116698e-04 0.0000000000000000e+00  -1.0055782903004844e-03 4.3938079366654786e-04 0.0000000000000000e+00  -1.0879249112860253e-03 6.6624409804197252e-04 0.0000000000000000e+00  -1.2105132081050728e-03 9.0360138813557118e-04 0.0000000000000000e+00  -1.3801435910657427e-03 1.1536588431253893e-03 0.0000000000000000e+00  -1.6079787099652382e-03 1.4168721999378965e-03 0.0000000000000000e+00  -1.8991461493866200e-03 1.6867430951770400e-03 0.0000000000000000e+00  -2.2669693638591080e-03 1.9686530337233547e-03 0.0000000000000000e+00  -2.7100151667579712e-03 2.2303924509830745e-03 0.0000000000000000e+00  -3.1908219970330758e-03 2.4456243984829974e-03 0.0000000000000000e+00  -3.6204800054592343e-03 2.5858053583465942e-03 0.0000000000000000e+00  -3.8797989472958445e-03 2.6760210459536101e-03 0.0000000000000000e+00  -3.9393139034731494e-03 2.8003932575808290e-03 0.0000000000000000e+00  -3.9037609134558405e-03 3.0814961448184693e-03 0.0000000000000000e+00  -4.2632308514582709e-03 3.6079527192191480e-03 0.0000000000000000e+00  -4.1241970114840980e-03 3.6563104591929210e-03 0.0000000000000000e+00  -2.7803944506345525e-03 5.3600923878428484e-03 0.0000000000000000e+00  -2.9190317361494516e-03 5.6452408521123478e-03 0.0000000000000000e+00  -2.8955998686723923e-03 5.7641368731622357e-03 0.0000000000000000e+00  -2.6350503801229794e-03 5.9053932173763601e-03 0.0000000000000000e+00  -2.3143650796310531e-03 6.1063876602463589e-03 0.0000000000000000e+00  -2.0300296371027838e-03 6.3351409337591034e-03 0.0000000000000000e+00  -1.7889636793596254e-03 6.5574019492475044e-03 0.0000000000000000e+00  -1.5880757459635067e-03 6.7792874490380092e-03 0.0000000000000000e+00  -1.4323116949566637e-03 6.9989222753425928e-03 0.0000000000000000e+00  -1.3166794746497271e-03 7.2090167331921289e-03 0.0000000000000000e+00  -1.2316803440835212e-03 7.4120604001176212e-03 0.0000000000000000e+00  -1.1733427118391082e-03 7.6093782663249248e-03 0.0000000000000000e+00  -1.1374872653537166e-03 7.8051848496564274e-03 0.0000000000000000e+00  -1.0735775321671509e-03 8.0000000000000002e-03 0.0000000000000000e+00  -1.0252798561712971e-03 8.0000000000000002e-03 0.0000000000000000e+00  -9.8552037868362540e-04 8.0000000000000002e-03 0.0000000000000000e+00  -9.5128705126086891e-04 8.0000000000000002e-03 0.0000000000000000e+00  -9.2111796323863951e-04 8.0000000000000002e-03 0.0000000000000000e+00  -8.9320579264188301e-04 8.0000000000000002e-03 0.0000000000000000e+00  -8.6929011469437248e-04 8.0000000000000002e-03 0.0000000000000000e+00  -8.5118403751307148e-04 8.0000000000000002e-03 0.0000000000000000e+00  -8.3595144515097438e-04 8.0000000000000002e-03 0.0000000000000000e+00  -8.2552106989306070e-04 8.0000000000000002e-03 0.0000000000000000e+00  -8.1111310463500750e-04 8.0000000000000002e-03 0.0000000000000000e+00  -7.9409991210280142e-04 8.0000000000000002e-03 0.0000000000000000e+00  -7.7266825343777609e-04 8.0000000000000002e-03 0.0000000000000000e+00  -7.4926846117304613e-04 8.0000000000000002e-03 0.0000000000000000e+00  -7.2550591993769567e-04 8.0000000000000002e-03 0.0000000000000000e+00  -6.9626783830273949e-04 8.0000000000000002e-03 0.0000000000000000e+00  -6.5800678326556844e-04 8.0000000000000002e-03 0.0000000000000000e+00  -6.0348533878719986e-04 8.0000000000000002e-03 0.0000000000000000e+00  -5.3930229006873679e-04 8.0000000000000002e-03 0.0000000000000000e+00  -4.8409304763870115e-04 8.0000000000000002e-03 0.0000000000000000e+00  -4.5008708074446439e-04 8.0000000000000002e-03 0.0000000000000000e+00  -4.2001078693557406e-04 8.0000000000000002e-03 0.0000000000000000e+00  -3.8350277527411734e-04 8.0000000000000002e-03 0.0000000000000000e+00  -3.5589604237744196e-04 8.0000000000000002e-03 0.0000000000000000e+00  -3.4280633915984850e-04 8.0000000000000002e-03 0.0000000000000000e+00  -3.2612466475580494e-04 8.0000000000000002e-03 0.0000000000000000e+00  -3.0545928274170614e-04 8.0000000000000002e-03 0.0000000000000000e+00  -2.7026346094718176e-04 8.0000000000000002e-03 0.0000000000000000e+00  -2.1990292895937135e-04 8.0000000000000002e-03 0.0000000000000000e+00  -1.4148260896204498e-03 2.1193417157327398e-03 0.0000000000000000e+00  -1.3200296277342154e-03 2.2381292968931764e-03 0.0000000000000000e+00  -1.2136862648894264e-03 2.3579868842251738e-03 0.0000000000000000e+00  -1.1005322747255604e-03 2.4711821028926178e-03 0.0000000000000000e+00  -9.8183654799751633e-04 2.5857929955957417e-03 0.0000000000000000e+00  -8.5995143369588549e-04 2.6921842847592039e-03 0.0000000000000000e+00  -7.3974628267619745e-04 2.7891575822617978e-03 0.0000000000000000e+00  -6.2769930708700742e-04 2.8760690696803242e-03 0.0000000000000000e+00  -5.2482735939329297e-04 2.9494057762855432e-03 0.0000000000000000e+00  -4.3835501454737711e-04 3.0075666477541378e-03 0.0000000000000000e+00  -3.6969957228135091e-04 3.0532566094597429e-03 0.0000000000000000e+00  -3.2084122286356721e-04 3.0853872801509595e-03 0.0000000000000000e+00  -2.9419088542811570e-04 3.1074768375886430e-03 0.0000000000000000e+00  -2.8814410024279144e-04 3.1218179988271567e-03 0.0000000000000000e+00  -3.0407574566239512e-04 3.1298667955118086e-03 0.0000000000000000e+00  -3.4036680787517847e-04 3.1420008346971446e-03 0.0000000000000000e+00  -3.8822818352896130e-04 3.1642691714855596e-03 0.0000000000000000e+00  -4.3959516126531087e-04 3.2009986680605557e-03 0.0000000000000000e+00  -4.8849327702643142e-04 3.2543872801928824e-03 0.0000000000000000e+00  -5.2988664086481177e-04 3.3196033329362076e-03 0.0000000000000000e+00  -5.6504581623105564e-04 3.3984033557187656e-03 0.0000000000000000e+00  -5.9183373644372994e-04 3.4867189812867877e-03 0.0000000000000000e+00  -6.1026901127777828e-04 3.5832103914853323e-03 0.0000000000000000e+00  -6.2079703420750421e-04 3.6852742320961666e-03 0.0000000000000000e+00  -6.2325471613807045e-04 3.7895041142926755e-03 0.0000000000000000e+00  -6.1890927551071532e-04 3.8928276567127672e-03 0.0000000000000000e+00  -6.0714155285184173e-04 3.9919458008201960e-03 0.0000000000000000e+00  -5.9206512345393373e-04 4.0840310426630121e-03 0.0000000000000000e+00  -5.7308506757937393e-04 4.1685514479538619e-03 0.0000000000000000e+00  -5.5146048820319362e-04 4.2448031176574022e-03 0.0000000000000000e+00  -5.2779046963167783e-04 4.3131915721048809e-03 0.0000000000000000e+00  -4.9930683252193391e-04 4.3758546076861750e-03 0.0000000000000000e+00  -4.6291852284835721e-04 4.4305608641482868e-03 0.0000000000000000e+00  -4.1323357704027520e-04 4.4755625074391217e-03 0.0000000000000000e+00  -3.4214191264312927e-04 4.5016380365536669e-03 0.0000000000000000e+00  -2.4983121220349729e-04 4.4989630078934219e-03 0.0000000000000000e+00  -1.3685492186898526e-04 4.4631457367195282e-03 0.0000000000000000e+00  -4.3849657412450243e-06 4.3924073440133118e-03 0.0000000000000000e+00  1.4666873616824721e-04 4.2868257649229828e-03 0.0000000000000000e+00  3.1431526913688516e-04 4.1443115496696244e-03 0.0000000000000000e+00  4.9442017686465831e-04 3.9668814397976785e-03 0.0000000000000000e+00  6.8166042866692883e-04 3.7551162741827986e-03 0.0000000000000000e+00  8.6504045851816145e-04 3.5169207040060876e-03 0.0000000000000000e+00  1.0404373347756813e-03 3.2599598054835403e-03 0.0000000000000000e+00  1.2002288898459285e-03 2.9949635723678552e-03 0.0000000000000000e+00  1.3324933703688861e-03 2.7278965242326599e-03 0.0000000000000000e+00  1.4431288064220762e-03 2.4798449603273573e-03 0.0000000000000000e+00  1.5228641092177805e-03 2.2439734034845455e-03 0.0000000000000000e+00  1.5712071549427711e-03 2.0227608510469904e-03 0.0000000000000000e+00  1.6009956221721352e-03 1.8188490611187025e-03 0.0000000000000000e+00  1.6138730611661286e-03 1.6314342145335862e-03 0.0000000000000000e+00  1.6056410595831207e-03 1.4626527209605539e-03 0.0000000000000000e+00  1.5779088700804053e-03 1.3009479396125418e-03 0.0000000000000000e+00  1.5268454456644554e-03 1.1525311382940536e-03 0.0000000000000000e+00  1.4580973534125416e-03 1.0217037558137960e-03 0.0000000000000000e+00  1.3657557306315700e-03 9.1626663086528015e-04 0.0000000000000000e+00  1.2589933069671122e-03 8.2527465322787812e-04 0.0000000000000000e+00  1.1475134145110045e-03 7.4508210758030761e-04 0.0000000000000000e+00  1.0350498456422684e-03 6.6752039750426042e-04 0.0000000000000000e+00  9.2092561275457121e-04 5.9143621226526014e-04 0.0000000000000000e+00  8.0207711677760310e-04 5.1257901478737129e-04 0.0000000000000000e+00  6.7420365368306553e-04 4.3313385838706145e-04 0.0000000000000000e+00  5.4093128231673859e-04 3.6725055238523983e-04 0.0000000000000000e+00  4.1684316472626834e-04 3.1364368758922867e-04 0.0000000000000000e+00  3.1154587526390328e-04 2.7640326073910152e-04 0.0000000000000000e+00  2.3072080570971912e-04 2.4571176290826441e-04 0.0000000000000000e+00  1.7063316708013624e-04 2.1962537583553239e-04 0.0000000000000000e+00  1.2529621569017186e-04 1.9181358919491271e-04 0.0000000000000000e+00  8.8538749969017293e-05 1.6447478514310899e-04 0.0000000000000000e+00  5.5825471406880865e-05 1.3648516368459736e-04 0.0000000000000000e+00  2.5743837278579013e-05 1.1099837932999584e-04 0.0000000000000000e+00  -2.9172644112814976e-06 8.7041084938739197e-05 0.0000000000000000e+00  -3.0404326554516073e-05 6.6578363202483116e-05 0.0000000000000000e+00  -5.6385060944788756e-05 4.8497962373295123e-05 0.0000000000000000e+00  -8.1224722280772132e-05 3.4274394190786970e-05 0.0000000000000000e+00  -1.0427192916713038e-04 2.2214201281673506e-05 0.0000000000000000e+00  -1.2584033571902536e-04 1.3563785857508933e-05 0.0000000000000000e+00  -1.4564204739294937e-04 6.9255133088541967e-06 0.0000000000000000e+00  -1.6361951935236192e-04 2.4929839565032785e-06 0.0000000000000000e+00  -1.8052319365425003e-04 -1.0328327164205967e-07 0.0000000000000000e+00  -1.9550281005261078e-04 -1.2329887960395239e-06 0.0000000000000000e+00  -2.0955692927855483e-04 -1.3535790706560140e-06 0.0000000000000000e+00  -2.2219583616887281e-04 -6.5171761989194052e-07 0.0000000000000000e+00  -2.3414858900574638e-04 4.9369208912134332e-07 0.0000000000000000e+00  -2.4516617363882625e-04 1.9583272892048398e-06 0.0000000000000000e+00  -2.5592940805733728e-04 3.4398271271796823e-06 0.0000000000000000e+00  -2.6618536699902508e-04 5.0081628638421382e-06 0.0000000000000000e+00  -2.7630946663602905e-04 6.4220915004098148e-06 0.0000000000000000e+00  -2.8645574014880750e-04 7.8879600310229310e-06 0.0000000000000000e+00  -2.9668512933727471e-04 9.4284330585237150e-06 0.0000000000000000e+00  -3.0709885563534898e-04 1.1310754014360769e-05 0.0000000000000000e+00  -3.1744090935107214e-04 1.3640329710588540e-05 0.0000000000000000e+00  -3.2812709057098804e-04 1.6751135138053538e-05 0.0000000000000000e+00  -3.3881654739997152e-04 2.1372318557912506e-05 0.0000000000000000e+00  -3.4867678335002132e-04 2.7179338624279284e-05 0.0000000000000000e+00  -3.5842286753014278e-04 3.4864910226977690e-05 0.0000000000000000e+00  -3.6645009829468613e-04 4.4302260474978551e-05 0.0000000000000000e+00  -3.7343337839313497e-04 5.5416310685409981e-05 0.0000000000000000e+00  -3.7903377513204029e-04 6.7969014259172306e-05 0.0000000000000000e+00  -3.8293582286455838e-04 8.1973138660599044e-05 0.0000000000000000e+00  -3.8744337222115582e-04 9.6048760506278652e-05 0.0000000000000000e+00  -3.9269073274499024e-04 1.1159826925500949e-04 0.0000000000000000e+00  -4.0744994691618359e-04 1.2609531549345342e-04 0.0000000000000000e+00  -4.3168237979262624e-04 1.4850105266954019e-04 0.0000000000000000e+00  -4.7751931158930235e-04 1.7682056505498162e-04 0.0000000000000000e+00  -5.4085584983853334e-04 2.2505059651982531e-04 0.0000000000000000e+00  -6.2340138082392360e-04 2.9186086768747814e-04 0.0000000000000000e+00  -7.1371727887963911e-04 3.7687352966721716e-04 0.0000000000000000e+00  -8.0921716100845157e-04 4.7142662609236474e-04 0.0000000000000000e+00  -9.0809203347261606e-04 5.6835257509833695e-04 0.0000000000000000e+00  -1.0195268903535092e-03 6.6565421911725018e-04 0.0000000000000000e+00  -1.1410360964774044e-03 7.7284169267188005e-04 0.0000000000000000e+00  -1.2712210618971301e-03 8.9192259739080215e-04 0.0000000000000000e+00  -1.3959420991145205e-03 1.0270408022972550e-03 0.0000000000000000e+00  -1.5042137782047054e-03 1.1757949907875347e-03 0.0000000000000000e+00  -1.5688023236959485e-03 1.3349363453715665e-03 0.0000000000000000e+00  -1.5919890747788032e-03 1.5160998439825244e-03 0.0000000000000000e+00  -1.5832553410729626e-03 1.7003040150514229e-03 0.0000000000000000e+00  -1.5578030930737743e-03 1.8606192402036222e-03 0.0000000000000000e+00  1.6406994361113272e-03 1.1549045758698739e-03 0.0000000000000000e+00  1.6292300635488291e-03 1.1251703841205910e-03 0.0000000000000000e+00  1.5798561252661813e-03 1.0823373321081941e-03 0.0000000000000000e+00  1.5022071265139774e-03 1.03968