<?xml version="1.0"?>
<VTKFile type="UnstructuredGrid"  version="0.1"  >
<UnstructuredGrid>
<Piece  NumberOfPoints="3879" NumberOfCells="6881">
<Points>
<DataArray  type="Float64"  NumberOfComponents="3"  format="ascii">0.207524190028372 0.2122422770132111 0  0 0 0  1 0 0  0 1 0  1 1 0  0.6249674373315121 0.2590146544375328 0  0.204663578893616 0.322657230836866 0  0.09605577522599912 0.4018360776629776 0  0.671351124618251 0.08738059142081528 0  0.7842102907526436 0.1666439122351055 0  0.8512483166984784 0.1985391006160637 0  0.6418797837909295 0.4423157172830166 0  0.9292488447973215 0.3869277868069776 0  0.3197896119137055 0.5509935221980964 0  0.3979283685568406 0.5079871620336583 0  0.1572503457993085 0.7345153245035532 0  0.3032914287999163 0.7872981443735918 0  0.3549464687598876 0.8870324161721976 0  0.9691791685505482 0.5159450047798622 0  0.9447564590470373 0.6146164845729313 0  0.7687603548175107 0.7176858127488035 0  0.8926159261971183 0.7422924070424508 0  0.2061587782631535 0.2217389244366831 0  0.2021731605082994 0.2304662099646423 0  0.1958902278109265 0.2377171008267789 0  0.1878189860121365 0.2429041729681512 0  0.1786133191209442 0.2456072006525708 0  0.1690190155206647 0.2456072006525708 0  0.1598133486294724 0.2429041729681512 0  0.1517421068306824 0.2377171008267789 0  0.1454591741333096 0.2304662099646422 0  0.1414735563784554 0.221738924436683 0  0.1401081446132369 0.212242277013211 0  0.1414735563784555 0.202745629589739 0  0.1454591741333096 0.1940183440617798 0  0.1517421068306825 0.1867674531996431 0  0.1598133486294725 0.1815803810582709 0  0.1690190155206649 0.1788773533738513 0  0.1786133191209443 0.1788773533738514 0  0.1878189860121367 0.181580381058271 0  0.1958902278109266 0.1867674531996433 0  0.2021731605082994 0.19401834406178 0  0.2061587782631535 0.2027456295897391 0  0.03333333333333333 0 0  0.06666666666666667 0 0  0.1 0 0  0.1333333333333333 0 0  0.1666666666666667 0 0  0.2 0 0  0.2333333333333333 0 0  0.2666666666666667 0 0  0.3 0 0  0.3333333333333333 0 0  0.3666666666666666 0 0  0.4 0 0  0.4333333333333333 0 0  0.4666666666666667 0 0  0.5 0 0  0.5333333333333333 0 0  0.5666666666666667 0 0  0.6 0 0  0.6333333333333333 0 0  0.6666666666666666 0 0  0.7 0 0  0.7333333333333333 0 0  0.7666666666666667 0 0  0.8 0 0  0.8333333333333334 0 0  0.8666666666666667 0 0  0.9 0 0  0.9333333333333333 0 0  0.9666666666666667 0 0  0 0.9666666666666667 0  0 0.9333333333333333 0  0 0.9 0  0 0.8666666666666667 0  0 0.8333333333333334 0  0 0.8 0  0 0.7666666666666666 0  0 0.7333333333333334 0  0 0.7 0  0 0.6666666666666667 0  0 0.6333333333333333 0  0 0.6 0  0 0.5666666666666667 0  0 0.5333333333333333 0  0 0.5 0  0 0.4666666666666667 0  0 0.4333333333333333 0  0 0.4 0  0 0.3666666666666667 0  0 0.3333333333333334 0  0 0.3 0  0 0.2666666666666667 0  0 0.2333333333333333 0  0 0.2 0  0 0.1666666666666666 0  0 0.1333333333333333 0  0 0.09999999999999998 0  0 0.06666666666666665 0  0 0.03333333333333333 0  1 0.03333333333333333 0  1 0.06666666666666667 0  1 0.1 0  1 0.1333333333333333 0  1 0.1666666666666667 0  1 0.2 0  1 0.2333333333333333 0  1 0.2666666666666667 0  1 0.3 0  1 0.3333333333333333 0  1 0.3666666666666666 0  1 0.4 0  1 0.4333333333333333 0  1 0.4666666666666667 0  1 0.5 0  1 0.5333333333333333 0  1 0.5666666666666667 0  1 0.6 0  1 0.6333333333333333 0  1 0.6666666666666666 0  1 0.7 0  1 0.7333333333333333 0  1 0.7666666666666667 0  1 0.8 0  1 0.8333333333333334 0  1 0.8666666666666667 0  1 0.9 0  1 0.9333333333333333 0  1 0.9666666666666667 0  0.9666666666666667 1 0  0.9333333333333333 1 0  0.9 1 0  0.8666666666666667 1 0  0.8333333333333334 1 0  0.8 1 0  0.7666666666666666 1 0  0.7333333333333334 1 0  0.7 1 0  0.6666666666666667 1 0  0.6333333333333333 1 0  0.6 1 0  0.5666666666666667 1 0  0.5333333333333333 1 0  0.5 1 0  0.4666666666666667 1 0  0.4333333333333333 1 0  0.4 1 0  0.3666666666666667 1 0  0.3333333333333334 1 0  0.3 1 0  0.2666666666666667 1 0  0.2333333333333333 1 0  0.2 1 0  0.1666666666666666 1 0  0.1333333333333333 1 0  0.09999999999999998 1 0  0.06666666666666665 1 0  0.03333333333333333 1 0  0.6247072676344306 0.2689501343248463 0  0.6239274716502419 0.2788583817523955 0  0.6226301867455355 0.2887122389026952 0  0.6208189686880621 0.2984846970382296 0  0.6184987819006211 0.3081489705305245 0  0.6156759858539226 0.317678570277693 0  0.6123583176357204 0.3270473763092224 0  0.6085548707439923 0.3362297093789981 0  0.6042760701622942 0.3452004013503318 0  0.5995336437856049 0.3539348641800754 0  0.5943405902749808 0.3624091573127375 0  0.5887111434291297 0.3706000532998825 0  0.582660733170558 0.3784851014649517 0  0.5762059432532257 0.3860426894390078 0  0.5693644658076293 0.3932521023987353 0  0.5621550528479018 0.4000935798443317 0  0.5545974648738458 0.4065483697616639 0  0.5467124167087765 0.4125987800202355 0  0.5385215207216315 0.4182282268660866 0  0.5300472275889694 0.4234212803767108 0  0.5213127647592257 0.4281637067534002 0  0.512342072787892 0.4324425073350981 0  0.5031597397181163 0.4362459542268262 0  0.493790933686587 0.4395636224450283 0  0.4842613339394185 0.4423864184917269 0  0.4745970604471235 0.4447066052791678 0  0.4648246023115891 0.4465178233366412 0  0.4549707451612894 0.4478151082413475 0  0.4450624977337403 0.4485949042255363 0  0.4351270178464268 0.4488550739226177 0  0.4251915379591132 0.4485949042255363 0  0.4152832905315641 0.4478151082413475 0  0.4054294333812644 0.4465178233366411 0  0.39565697524573 0.4447066052791677 0  0.385992701753435 0.4423864184917267 0  0.3764631020062665 0.4395636224450281 0  0.3670942959747371 0.4362459542268259 0  0.3579119629049616 0.4324425073350978 0  0.3489412709336278 0.4281637067533998 0  0.3402068081038843 0.4234212803767103 0  0.3317325149712221 0.4182282268660862 0  0.3235416189840771 0.412598780020235 0  0.3156565708190078 0.4065483697616634 0  0.3080989828449519 0.4000935798443311 0  0.3008895698852244 0.3932521023987346 0  0.2940480924396279 0.3860426894390071 0  0.2875933025222958 0.3784851014649511 0  0.2815428922637242 0.3706000532998818 0  0.2759134454178731 0.3624091573127368 0  0.2707203919072489 0.3539348641800746 0  0.2659779655305596 0.3452004013503309 0  0.2616991649488616 0.3362297093789972 0  0.2578957180571336 0.3270473763092215 0  0.2545780498389315 0.3176785702776921 0  0.251755253792233 0.3081489705305236 0  0.249435067004792 0.2984846970382286 0  0.2476238489473186 0.2887122389026941 0  0.2463265640426123 0.2788583817523945 0  0.2455467680584236 0.2689501343248454 0  0.2452865983613423 0.2590146544375318 0  0.2455467680584237 0.2490791745502182 0  0.2463265640426126 0.2391709271226692 0  0.247623848947319 0.2293170699723696 0  0.2494350670047924 0.2195446118368351 0  0.2517552537922335 0.2098803383445402 0  0.2545780498389321 0.2003507385973717 0  0.2578957180571343 0.1909819325658423 0  0.2616991649488624 0.1817995994960667 0  0.2659779655305604 0.172828907524733 0  0.2707203919072498 0.1640944446949895 0  0.2759134454178741 0.1556201515623273 0  0.2815428922637251 0.1474292555751825 0  0.2875933025222969 0.1395442074101132 0  0.2940480924396291 0.1319866194360571 0  0.3008895698852256 0.1247772064763297 0  0.3080989828449531 0.1179357290307334 0  0.3156565708190092 0.1114809391134012 0  0.3235416189840785 0.1054305288548295 0  0.3317325149712236 0.09980108200897844 0  0.3402068081038856 0.0946080284983544 0  0.3489412709336291 0.08986560212166514 0  0.357911962904963 0.08558680153996717 0  0.3670942959747386 0.08178335464823916 0  0.3764631020062678 0.07846568643003712 0  0.3859927017534364 0.0756428903833386 0  0.3956569752457313 0.0733227035958976 0  0.4054294333812659 0.07151148553842429 0  0.4152832905315654 0.07021420063371797 0  0.4251915379591144 0.0694344046495293 0  0.435127017846428 0.0691742349524479 0  0.4450624977337415 0.06943440464952938 0  0.4549707451612905 0.07021420063371814 0  0.4648246023115901 0.07151148553842454 0  0.4745970604471245 0.07332270359589793 0  0.4842613339394195 0.07564289038333902 0  0.4937909336865879 0.07846568643003757 0  0.5031597397181173 0.0817833546482398 0  0.5123420727878929 0.08558680153996781 0  0.5213127647592265 0.08986560212166581 0  0.53004722758897 0.0946080284983552 0  0.5385215207216321 0.09980108200897933 0  0.5467124167087771 0.1054305288548305 0  0.5545974648738462 0.1114809391134021 0  0.5621550528479023 0.1179357290307343 0  0.5693644658076298 0.1247772064763308 0  0.576205943253226 0.1319866194360582 0  0.5826607331705582 0.1395442074101142 0  0.5887111434291299 0.1474292555751835 0  0.594340590274981 0.1556201515623285 0  0.5995336437856051 0.1640944446949906 0  0.6042760701622945 0.172828907524734 0  0.6085548707439925 0.1817995994960678 0  0.6123583176357205 0.1909819325658435 0  0.6156759858539227 0.2003507385973728 0  0.6184987819006211 0.2098803383445412 0  0.6208189686880622 0.2195446118368362 0  0.6226301867455355 0.2293170699723706 0  0.6239274716502419 0.2391709271226702 0  0.6247072676344306 0.2490791745502192 0  0.203885768735257 0.3325402459548524 0  0.2015714905276826 0.3421799084407872 0  0.1977777294810124 0.3513388578120612 0  0.1925979005829864 0.3597915703383434 0  0.1861595484119405 0.3673299121842922 0  0.1786212065659918 0.373768264355338 0  0.1701684940397096 0.378948093253364 0  0.1610095446684356 0.3827418543000342 0  0.1513698821825007 0.3850561325076086 0  0.1414868670645144 0.3858339426659677 0  0.1316038519465281 0.3850561325076086 0  0.1219641894605933 0.3827418543000343 0  0.1128052400893193 0.378948093253364 0  0.1043525275630371 0.3737682643553381 0  0.09681418571708833 0.3673299121842922 0  0.09037583354604248 0.3597915703383434 0  0.08519600464801645 0.3513388578120612 0  0.08140224360134621 0.3421799084407872 0  0.07908796539377183 0.3325402459548523 0  0.07831015523541281 0.3226572308368659 0  0.07908796539377186 0.3127742157188796 0  0.08140224360134626 0.3031345532329447 0  0.08519600464801655 0.2939756038616707 0  0.0903758335460426 0.2855228913353884 0  0.0968141857
[...]
<PointData  Vectors="$u$"> 
<DataArray  type="Float64"  Name="$u$"  NumberOfComponents="3" format="ascii">1.3525161600894611e-04 2.5337734112799358e-04 0.0000000000000000e+00  0.0000000000000000e+00 0.0000000000000000e+00 0.0000000000000000e+00  -3.0854850605023759e-04 0.0000000000000000e+00 0.0000000000000000e+00  -4.1549204849327196e-05 2.7499999999999998e-03 0.0000000000000000e+00  -3.6061152609222186e-04 2.7499999999999998e-03 0.0000000000000000e+00  -5.1056617863829605e-04 6.5685190657410405e-04 0.0000000000000000e+00  5.3103078456871353e-04 4.1341494533161705e-04 0.0000000000000000e+00  4.6016176735973370e-04 7.7923511917867385e-04 0.0000000000000000e+00  -2.7168174119063379e-04 9.5489955648045446e-05 0.0000000000000000e+00  -4.1547275670996976e-04 1.2456945696685535e-05 0.0000000000000000e+00  -4.7686430299615542e-04 1.0020314077911318e-04 0.0000000000000000e+00  -7.1166798007359468e-05 1.0738998599629725e-03 0.0000000000000000e+00  -1.2577665071462549e-03 8.5130821765243747e-04 0.0000000000000000e+00  -2.0077791120862371e-04 1.6864191962720734e-03 0.0000000000000000e+00  -1.5897722700038521e-04 1.5132186116277085e-03 0.0000000000000000e+00  3.8872114241895978e-04 2.6091995774396928e-03 0.0000000000000000e+00  1.4770476081075502e-04 2.2049678418070155e-03 0.0000000000000000e+00  -2.0562289226663550e-04 2.6353721916089188e-03 0.0000000000000000e+00  -1.3262431136901048e-03 1.4486295251350254e-03 0.0000000000000000e+00  -1.0292852876449641e-03 1.9035243280076310e-03 0.0000000000000000e+00  -6.9730413203495636e-04 2.5015318418249513e-03 0.0000000000000000e+00  -6.3243075562622653e-04 2.4399104633373745e-03 0.0000000000000000e+00  1.8015218706256427e-04 2.9789951815960622e-04 0.0000000000000000e+00  2.2744840940793924e-04 3.3781717666814129e-04 0.0000000000000000e+00  2.6900386732808731e-04 3.7040422591379902e-04 0.0000000000000000e+00  3.0073385014607438e-04 3.8516081729615995e-04 0.0000000000000000e+00  3.2199540040339051e-04 3.7733178305012833e-04 0.0000000000000000e+00  3.2606723555878996e-04 3.3980639398048691e-04 0.0000000000000000e+00  3.1749860579783712e-04 2.8492411111726804e-04 0.0000000000000000e+00  2.9179501274946085e-04 2.3890718623210993e-04 0.0000000000000000e+00  2.5445103884173137e-04 2.1326480521053015e-04 0.0000000000000000e+00  2.1976448988757159e-04 1.9900915910303759e-04 0.0000000000000000e+00  1.8484505723933409e-04 1.8211951131622318e-04 0.0000000000000000e+00  1.5368719832273557e-04 1.6600822136268706e-04 0.0000000000000000e+00  1.2539498253037699e-04 1.4776670450142909e-04 0.0000000000000000e+00  1.0109431555727736e-04 1.3131740812347196e-04 0.0000000000000000e+00  8.0205259166800578e-05 1.2014767984433660e-04 0.0000000000000000e+00  6.5973653560524723e-05 1.1527381329925151e-04 0.0000000000000000e+00  5.6143173917620994e-05 1.1835176064573331e-04 0.0000000000000000e+00  5.3880728939318865e-05 1.2953697927909315e-04 0.0000000000000000e+00  6.0023193970873961e-05 1.4919575418484936e-04 0.0000000000000000e+00  7.4378920365946309e-05 1.7603240746155165e-04 0.0000000000000000e+00  9.9168557682584841e-05 2.1150624206646429e-04 0.0000000000000000e+00  0.0000000000000000e+00 0.0000000000000000e+00 0.0000000000000000e+00  -2.6474346612211132e-05 0.0000000000000000e+00 0.0000000000000000e+00  -3.7707874195414032e-05 0.0000000000000000e+00 0.0000000000000000e+00  -4.8962988611707163e-05 0.0000000000000000e+00 0.0000000000000000e+00  -5.7477372595675551e-05 0.0000000000000000e+00 0.0000000000000000e+00  -6.4968295674001727e-05 0.0000000000000000e+00 0.0000000000000000e+00  -7.1359161164384497e-05 0.0000000000000000e+00 0.0000000000000000e+00  -7.7102258158321768e-05 0.0000000000000000e+00 0.0000000000000000e+00  -8.1493743128690745e-05 0.0000000000000000e+00 0.0000000000000000e+00  -8.4350519372804140e-05 0.0000000000000000e+00 0.0000000000000000e+00  -8.6972274913902197e-05 0.0000000000000000e+00 0.0000000000000000e+00  -9.0751828061535816e-05 0.0000000000000000e+00 0.0000000000000000e+00  -9.5494183993068778e-05 0.0000000000000000e+00 0.0000000000000000e+00  -1.0137598521652793e-04 0.0000000000000000e+00 0.0000000000000000e+00  -1.0869608314740222e-04 0.0000000000000000e+00 0.0000000000000000e+00  -1.2095514933531721e-04 0.0000000000000000e+00 0.0000000000000000e+00  -1.4024001872372878e-04 0.0000000000000000e+00 0.0000000000000000e+00  -1.6638754351428107e-04 0.0000000000000000e+00 0.0000000000000000e+00  -1.8519838025344814e-04 0.0000000000000000e+00 0.0000000000000000e+00  -2.0164575344968770e-04 0.0000000000000000e+00 0.0000000000000000e+00  -2.2403988589016416e-04 0.0000000000000000e+00 0.0000000000000000e+00  -2.3868174133993643e-04 0.0000000000000000e+00 0.0000000000000000e+00  -2.4257941645131385e-04 0.0000000000000000e+00 0.0000000000000000e+00  -2.4253375334279300e-04 0.0000000000000000e+00 0.0000000000000000e+00  -2.4250459252547749e-04 0.0000000000000000e+00 0.0000000000000000e+00  -2.4695423560519483e-04 0.0000000000000000e+00 0.0000000000000000e+00  -2.5380949012764948e-04 0.0000000000000000e+00 0.0000000000000000e+00  -2.6767081004945662e-04 0.0000000000000000e+00 0.0000000000000000e+00  -2.8604273485640421e-04 0.0000000000000000e+00 0.0000000000000000e+00  -3.6501738966682138e-05 2.6691160145458164e-03 0.0000000000000000e+00  -2.0073401371257203e-05 2.5877263740990402e-03 0.0000000000000000e+00  7.9505226385168168e-06 2.5030879291929251e-03 0.0000000000000000e+00  5.0179420572592433e-05 2.4168502465922773e-03 0.0000000000000000e+00  1.0681557409599795e-04 2.3275646059226877e-03 0.0000000000000000e+00  1.7901927326925018e-04 2.2357660114867661e-03 0.0000000000000000e+00  2.6661544788634422e-04 2.1411643847366203e-03 0.0000000000000000e+00  3.6988120844882067e-04 2.0382048534524346e-03 0.0000000000000000e+00  4.9806978273021080e-04 1.9257827810503655e-03 0.0000000000000000e+00  6.6117671987036576e-04 1.8041579396492527e-03 0.0000000000000000e+00  8.6203609729655368e-04 1.6906556520603815e-03 0.0000000000000000e+00  1.0714245726713124e-03 1.6055823293532746e-03 0.0000000000000000e+00  1.2157791958387863e-03 1.5623790975140201e-03 0.0000000000000000e+00  1.2231887330305727e-03 1.5353768749729675e-03 0.0000000000000000e+00  1.1084766298590462e-03 1.4746160066557963e-03 0.0000000000000000e+00  9.5562397750647231e-04 1.3580552387986956e-03 0.0000000000000000e+00  8.6250260906591415e-04 1.1985345081009316e-03 0.0000000000000000e+00  8.0933977224033479e-04 1.0826737151247280e-03 0.0000000000000000e+00  6.6599037487117033e-04 9.7744995302171604e-04 0.0000000000000000e+00  5.4026740612563137e-04 8.4077459356754502e-04 0.0000000000000000e+00  4.5161513335097798e-04 7.3812390885445343e-04 0.0000000000000000e+00  3.6319918413682637e-04 6.4852545318734036e-04 0.0000000000000000e+00  2.7947577269701320e-04 5.6358431766772611e-04 0.0000000000000000e+00  2.0508136347558453e-04 4.7932081767683866e-04 0.0000000000000000e+00  1.4253667634090360e-04 3.9670620218861246e-04 0.0000000000000000e+00  9.3114711780862809e-05 3.1333055017400576e-04 0.0000000000000000e+00  5.6988709558438187e-05 2.3318541789115756e-04 0.0000000000000000e+00  3.2095453020766459e-05 1.5227654834105701e-04 0.0000000000000000e+00  2.0907485279247005e-05 7.8238066611684747e-05 0.0000000000000000e+00  -3.1379311215037301e-04 8.3673767138872347e-05 0.0000000000000000e+00  -3.3161497335631318e-04 1.6835464369987702e-04 0.0000000000000000e+00  -3.6168679218095967e-04 2.5554604522836071e-04 0.0000000000000000e+00  -4.0651673494723973e-04 3.4671741340913984e-04 0.0000000000000000e+00  -4.6835418000004323e-04 4.4210225559134392e-04 0.0000000000000000e+00  -5.5111656358258223e-04 5.4305226382325234e-04 0.0000000000000000e+00  -6.5729228672569697e-04 6.4662110455875922e-04 0.0000000000000000e+00  -7.9075595949059860e-04 7.5378825373012114e-04 0.0000000000000000e+00  -9.4982986152643116e-04 8.5283210604183860e-04 0.0000000000000000e+00  -1.1180082049806815e-03 9.3435470997886030e-04 0.0000000000000000e+00  -1.2600155258135467e-03 9.9007230848212227e-04 0.0000000000000000e+00  -1.3411826444336026e-03 1.0371210649843489e-03 0.0000000000000000e+00  -1.3569421239272459e-03 1.0976694910523966e-03 0.0000000000000000e+00  -1.3525624623455159e-03 1.2068950957238589e-03 0.0000000000000000e+00  -1.3964632086559204e-03 1.3265726408777142e-03 0.0000000000000000e+00  -1.2689812635966219e-03 1.4138683963032263e-03 0.0000000000000000e+00  -1.1083081826817412e-03 1.6099267247808345e-03 0.0000000000000000e+00  -1.0892578884589043e-03 1.7554263875095666e-03 0.0000000000000000e+00  -1.0445197990063260e-03 1.8341587824442090e-03 0.0000000000000000e+00  -9.3857230385734156e-04 1.9086413908132789e-03 0.0000000000000000e+00  -8.1641650532602466e-04 1.9962427519809173e-03 0.0000000000000000e+00  -7.0811759957915442e-04 2.0889194180198937e-03 0.0000000000000000e+00  -6.1583347211854303e-04 2.1788710868303929e-03 0.0000000000000000e+00  -5.3888756232660221e-04 2.2675476574252847e-03 0.0000000000000000e+00  -4.7877307969304019e-04 2.3546646742816906e-03 0.0000000000000000e+00  -4.3386060906836399e-04 2.4378950053175873e-03 0.0000000000000000e+00  -4.0089982819390134e-04 2.5183298420444235e-03 0.0000000000000000e+00  -3.7847969895594681e-04 2.5965439785547444e-03 0.0000000000000000e+00  -3.6482681260091365e-04 2.6733020507445121e-03 0.0000000000000000e+00  -3.3967177403398013e-04 2.7499999999999998e-03 0.0000000000000000e+00  -3.2088598372911876e-04 2.7499999999999998e-03 0.0000000000000000e+00  -3.0558216091292533e-04 2.7499999999999998e-03 0.0000000000000000e+00  -2.9308912150704196e-04 2.7499999999999998e-03 0.0000000000000000e+00  -2.8248168569104247e-04 2.7499999999999998e-03 0.0000000000000000e+00  -2.7343100278181859e-04 2.7499999999999998e-03 0.0000000000000000e+00  -2.6624046803048763e-04 2.7499999999999998e-03 0.0000000000000000e+00  -2.6127326896894230e-04 2.7499999999999998e-03 0.0000000000000000e+00  -2.5780845741887447e-04 2.7499999999999998e-03 0.0000000000000000e+00  -2.5583699958835340e-04 2.7499999999999998e-03 0.0000000000000000e+00  -2.5265771770725451e-04 2.7499999999999998e-03 0.0000000000000000e+00  -2.4835172304407818e-04 2.7499999999999998e-03 0.0000000000000000e+00  -2.4257751086575538e-04 2.7499999999999998e-03 0.0000000000000000e+00  -2.3607717258986282e-04 2.7499999999999998e-03 0.0000000000000000e+00  -2.2945906030791150e-04 2.7499999999999998e-03 0.0000000000000000e+00  -2.2086056929367085e-04 2.7499999999999998e-03 0.0000000000000000e+00  -2.0915048577787614e-04 2.7499999999999998e-03 0.0000000000000000e+00  -1.9187388882213092e-04 2.7499999999999998e-03 0.0000000000000000e+00  -1.7136132749074131e-04 2.7499999999999998e-03 0.0000000000000000e+00  -1.5384400224341806e-04 2.7499999999999998e-03 0.0000000000000000e+00  -1.4323129529501051e-04 2.7499999999999998e-03 0.0000000000000000e+00  -1.3360032759099474e-04 2.7499999999999998e-03 0.0000000000000000e+00  -1.2142070457430564e-04 2.7499999999999998e-03 0.0000000000000000e+00  -1.1239913798202322e-04 2.7499999999999998e-03 0.0000000000000000e+00  -1.0786908562383355e-04 2.7499999999999998e-03 0.0000000000000000e+00  -1.0197903229369180e-04 2.7499999999999998e-03 0.0000000000000000e+00  -9.4229209955836783e-05 2.7499999999999998e-03 0.0000000000000000e+00  -8.1457212320404222e-05 2.7499999999999998e-03 0.0000000000000000e+00  -6.3206538222873853e-05 2.7499999999999998e-03 0.0000000000000000e+00  -4.8586114211448633e-04 7.0102118335064263e-04 0.0000000000000000e+00  -4.5718667023643574e-04 7.4280824852632937e-04 0.0000000000000000e+00  -4.2455495655563277e-04 7.8427808310905459e-04 0.0000000000000000e+00  -3.8958634616039872e-04 8.2339192686929218e-04 0.0000000000000000e+00  -3.5281839526560261e-04 8.6229775068507176e-04 0.0000000000000000e+00  -3.1498752373320364e-04 8.9845836644290150e-04 0.0000000000000000e+00  -2.7778371306313077e-04 9.3115447563188393e-04 0.0000000000000000e+00  -2.4321805003023133e-04 9.6005167944477731e-04 0.0000000000000000e+00  -2.1188084853036409e-04 9.8413703686171588e-04 0.0000000000000000e+00  -1.8617405785590396e-04 1.0030007603813273e-03 0.0000000000000000e+00  -1.6647427260488412e-04 1.0171223991620579e-03 0.0000000000000000e+00  -1.5370469118380358e-04 1.0269491662550836e-03 0.0000000000000000e+00  -1.4831572010286164e-04 1.0330567110751335e-03 0.0000000000000000e+00  -1.5001182918011470e-04 1.0368872848059976e-03 0.0000000000000000e+00  -1.5894157126357617e-04 1.0388558345735318e-03 0.0000000000000000e+00  -1.7431505187065027e-04 1.0423442750700095e-03 0.0000000000000000e+00  -1.9353085188880060e-04 1.0496876680960614e-03 0.0000000000000000e+00  -2.1348967913797278e-04 1.0621851906523960e-03 0.0000000000000000e+00  -2.3252892445506336e-04 1.0807846586935513e-03 0.0000000000000000e+00  -2.4834528096910440e-04 1.1039259386312762e-03 0.0000000000000000e+00  -2.6198033417026241e-04 1.1321345399041536e-03 0.0000000000000000e+00  -2.7224150725922453e-04 1.1643548107726251e-03 0.0000000000000000e+00  -2.7913819312524199e-04 1.1998110903412825e-03 0.0000000000000000e+00  -2.8282448246924862e-04 1.2376272246956072e-03 0.0000000000000000e+00  -2.8338628630400757e-04 1.2766151538423879e-03 0.0000000000000000e+00  -2.8099240831027034e-04 1.3154510975977311e-03 0.0000000000000000e+00  -2.7587154779264026e-04 1.3529863646361785e-03 0.0000000000000000e+00  -2.6915894061090652e-04 1.3879908304125616e-03 0.0000000000000000e+00  -2.6099390448242770e-04 1.4203159349108446e-03 0.0000000000000000e+00  -2.5171783767476537e-04 1.4495220356839748e-03 0.0000000000000000e+00  -2.4157206874336279e-04 1.4757879417719210e-03 0.0000000000000000e+00  -2.2995742564482289e-04 1.4996458341736206e-03 0.0000000000000000e+00  -2.1586562510716203e-04 1.5207530493621813e-03 0.0000000000000000e+00  -1.9727829467687256e-04 1.5383512317962290e-03 0.0000000000000000e+00  -1.7205842352954843e-04 1.5496723491603471e-03 0.0000000000000000e+00  -1.3965731206406622e-04 1.5516459710394285e-03 0.0000000000000000e+00  -1.0049074712413916e-04 1.5426405925829205e-03 0.0000000000000000e+00  -5.4442527694981405e-05 1.5220569808610937e-03 0.0000000000000000e+00  -1.8334285503383068e-06 1.4894079576481130e-03 0.0000000000000000e+00  5.6784790831469725e-05 1.4441265343169917e-03 0.0000000000000000e+00  1.2039642326680404e-04 1.3862648211135583e-03 0.0000000000000000e+00  1.8676094054994319e-04 1.3156835734898489e-03 0.0000000000000000e+00  2.5205665610260385e-04 1.2351785008477265e-03 0.0000000000000000e+00  3.1501362434961655e-04 1.1471871289126605e-03 0.0000000000000000e+00  3.7198835753141904e-04 1.0552530037120627e-03 0.0000000000000000e+00  4.1885350508023638e-04 9.6175203053276974e-04 0.0000000000000000e+00  4.5753939902212206e-04 8.7426099984155457e-04 0.0000000000000000e+00  4.8690637063707399e-04 7.9147065539670409e-04 0.0000000000000000e+00  5.0751496732396836e-04 7.1586001542278872e-04 0.0000000000000000e+00  5.2095882974073908e-04 6.4782972253830506e-04 0.0000000000000000e+00  5.2771548228486439e-04 5.8586046743393607e-04 0.0000000000000000e+00  5.2842757223303368e-04 5.2969934431482254e-04 0.0000000000000000e+00  5.2225771672506399e-04 4.7730287754617568e-04 0.0000000000000000e+00  5.0854673110944416e-04 4.2917273950823510e-04 0.0000000000000000e+00  4.8732466403764895e-04 3.8528307089146977e-04 0.0000000000000000e+00  4.5908530625693683e-04 3.4565284042039620e-04 0.0000000000000000e+00  4.2612035590764205e-04 3.1108161335023827e-04 0.0000000000000000e+00  3.9111024914949397e-04 2.8037053597072028e-04 0.0000000000000000e+00  3.5508601503004368e-04 2.5102734546247050e-04 0.0000000000000000e+00  3.1799677815876678e-04 2.2225084938794193e-04 0.0000000000000000e+00  2.7848254124444405e-04 1.9240333299539906e-04 0.0000000000000000e+00  2.3523190527162331e-04 1.6331431749302150e-04 0.0000000000000000e+00  1.8995402930407129e-04 1.3827828013340013e-04 0.0000000000000000e+00  1.4723835619059053e-04 1.1818495471939037e-04 0.0000000000000000e+00  1.1061989793555377e-04 1.0345046727939723e-04 0.0000000000000000e+00  8.2231232553451830e-05 9.1737694183618133e-05 0.0000000000000000e+00  6.0991600549888111e-05 8.1313380677722118e-05 0.0000000000000000e+00  4.4771985736321502e-05 7.0916281088266930e-05 0.0000000000000000e+00  3.1518529265521423e-05 6.0520277615403894e-05 0.0000000000000000e+00  1.9828587776363507e-05 5.0289225914234110e-05 0.0000000000000000e+00  9.0183727194071981e-06 4.0682534775053363e-05 0.0000000000000000e+00  -1.2210754750502393e-06 3.2036452285962198e-05 0.0000000000000000e+00  -1.0891240333332379e-05 2.4321884156916565e-05 0.0000000000000000e+00  -2.0129637168800536e-05 1.7779497679451070e-05 0.0000000000000000e+00  -2.8752315193591508e-05 1.2440983049047495e-05 0.0000000000000000e+00  -3.6761461000783394e-05 8.0189363575463821e-06 0.0000000000000000e+00  -4.4168659428681481e-05 4.7546523374462726e-06 0.0000000000000000e+00  -5.0864040710186286e-05 2.2585653865390571e-06 0.0000000000000000e+00  -5.6964706113469784e-05 5.7972932301548365e-07 0.0000000000000000e+00  -6.2518396731087449e-05 -4.3514859669692973e-07 0.0000000000000000e+00  -6.7416354755636007e-05 -9.3695396522380799e-07 0.0000000000000000e+00  -7.1902321440344316e-05 -1.0388778261132017e-06 0.0000000000000000e+00  -7.5898747629718507e-05 -8.3187645690991293e-07 0.0000000000000000e+00  -7.9547086137363805e-05 -4.6798403713861315e-07 0.0000000000000000e+00  -8.2897543947324414e-05 1.4482137837196441e-08 0.0000000000000000e+00  -8.6083344829223046e-05 5.1856990789839480e-07 0.0000000000000000e+00  -8.9087291974343692e-05 1.0542913760882789e-06 0.0000000000000000e+00  -9.2012194651288576e-05 1.5212728487414129e-06 0.0000000000000000e+00  -9.4954258022565457e-05 2.0219620220872456e-06 0.0000000000000000e+00  -9.7864436775534655e-05 2.5378774497203131e-06 0.0000000000000000e+00  -1.0087180126924834e-04 3.1568278943306560e-06 0.0000000000000000e+00  -1.0388649477527864e-04 3.9306816654160035e-06 0.0000000000000000e+00  -1.0693464962717142e-04 4.9600604438801891e-06 0.0000000000000000e+00  -1.1006549233695893e-04 6.4419519895142783e-06 0.0000000000000000e+00  -1.1298590576370056e-04 8.3532808602160702e-06 0.0000000000000000e+00  -1.1579382937990916e-04 1.0869472975841725e-05 0.0000000000000000e+00  -1.1820165133125045e-04 1.3976102464302152e-05 0.0000000000000000e+00  -1.2022901502157097e-04 1.7634132425299453e-05 0.0000000000000000e+00  -1.2190304321022748e-04 2.1787260703031286e-05 0.0000000000000000e+00  -1.2311988065548537e-04 2.6460915949367897e-05 0.0000000000000000e+00  -1.2441421048080430e-04 3.1241261499668668e-05 0.0000000000000000e+00  -1.2651942044286795e-04 3.6362422203533103e-05 0.0000000000000000e+00  -1.3107082270858328e-04 4.1815881138682606e-05 0.0000000000000000e+00  -1.3943883450391430e-04 4.9172936420225957e-05 0.0000000000000000e+00  -1.5430087615723212e-04 5.9460547345134457e-05 0.0000000000000000e+00  -1.7495445110978750e-04 7.5820251707822380e-05 0.0000000000000000e+00  -2.0161843411620455e-04 9.8329244137949725e-05 0.0000000000000000e+00  -2.3065732206241618e-04 1.2677763657172332e-04 0.0000000000000000e+00  -2.6099087699994002e-04 1.5794986811473957e-04 0.0000000000000000e+00  -2.9307632292467905e-04 1.8960133332740313e-04 0.0000000000000000e+00  -3.2901163046748994e-04 2.2165286650746165e-04 0.0000000000000000e+00  -3.6975300970661280e-04 2.5637793683609000e-04 0.0000000000000000e+00  -4.1380231709814137e-04 2.9625719340208126e-04 0.0000000000000000e+00  -4.5700476946908101e-04 3.4228555622762419e-04 0.0000000000000000e+00  -4.9436313102203529e-04 3.9429196583757323e-04 0.0000000000000000e+00  -5.2144671394593032e-04 4.4927563664207858e-04 0.0000000000000000e+00  -5.3617194636936016e-04 5.0482724138260087e-04 0.0000000000000000e+00  -5.3775200137035236e-04 5.5916332277354585e-04 0.0000000000000000e+00  -5.2854156149404320e-04 6.0914444535633931e-04 0.0000000000000000e+00  5.3649260978408549e-04 4.1176010901532493e-04 0.0000000000000000e+00  5.2889961386811497e-04 4.0377570823735162e-04 0.0000000000000000e+00  5.0921077640770404e-04 3.9165939644099655e-04 0.0000000000000000e+00  4.8086351438874996e-04 3.797