<?xml version="1.0"?>
<VTKFile type="UnstructuredGrid"  version="0.1"  >
<UnstructuredGrid>
<Piece  NumberOfPoints="3879" NumberOfCells="6881">
<Points>
<DataArray  type="Float64"  NumberOfComponents="3"  format="ascii">0.207524190028372 0.2122422770132111 0  0 0 0  1 0 0  0 1 0  1 1 0  0.6249674373315121 0.2590146544375328 0  0.204663578893616 0.322657230836866 0  0.09605577522599912 0.4018360776629776 0  0.671351124618251 0.08738059142081528 0  0.7842102907526436 0.1666439122351055 0  0.8512483166984784 0.1985391006160637 0  0.6418797837909295 0.4423157172830166 0  0.9292488447973215 0.3869277868069776 0  0.3197896119137055 0.5509935221980964 0  0.3979283685568406 0.5079871620336583 0  0.1572503457993085 0.7345153245035532 0  0.3032914287999163 0.7872981443735918 0  0.3549464687598876 0.8870324161721976 0  0.9691791685505482 0.5159450047798622 0  0.9447564590470373 0.6146164845729313 0  0.7687603548175107 0.7176858127488035 0  0.8926159261971183 0.7422924070424508 0  0.2061587782631535 0.2217389244366831 0  0.2021731605082994 0.2304662099646423 0  0.1958902278109265 0.2377171008267789 0  0.1878189860121365 0.2429041729681512 0  0.1786133191209442 0.2456072006525708 0  0.1690190155206647 0.2456072006525708 0  0.1598133486294724 0.2429041729681512 0  0.1517421068306824 0.2377171008267789 0  0.1454591741333096 0.2304662099646422 0  0.1414735563784554 0.221738924436683 0  0.1401081446132369 0.212242277013211 0  0.1414735563784555 0.202745629589739 0  0.1454591741333096 0.1940183440617798 0  0.1517421068306825 0.1867674531996431 0  0.1598133486294725 0.1815803810582709 0  0.1690190155206649 0.1788773533738513 0  0.1786133191209443 0.1788773533738514 0  0.1878189860121367 0.181580381058271 0  0.1958902278109266 0.1867674531996433 0  0.2021731605082994 0.19401834406178 0  0.2061587782631535 0.2027456295897391 0  0.03333333333333333 0 0  0.06666666666666667 0 0  0.1 0 0  0.1333333333333333 0 0  0.1666666666666667 0 0  0.2 0 0  0.2333333333333333 0 0  0.2666666666666667 0 0  0.3 0 0  0.3333333333333333 0 0  0.3666666666666666 0 0  0.4 0 0  0.4333333333333333 0 0  0.4666666666666667 0 0  0.5 0 0  0.5333333333333333 0 0  0.5666666666666667 0 0  0.6 0 0  0.6333333333333333 0 0  0.6666666666666666 0 0  0.7 0 0  0.7333333333333333 0 0  0.7666666666666667 0 0  0.8 0 0  0.8333333333333334 0 0  0.8666666666666667 0 0  0.9 0 0  0.9333333333333333 0 0  0.9666666666666667 0 0  0 0.9666666666666667 0  0 0.9333333333333333 0  0 0.9 0  0 0.8666666666666667 0  0 0.8333333333333334 0  0 0.8 0  0 0.7666666666666666 0  0 0.7333333333333334 0  0 0.7 0  0 0.6666666666666667 0  0 0.6333333333333333 0  0 0.6 0  0 0.5666666666666667 0  0 0.5333333333333333 0  0 0.5 0  0 0.4666666666666667 0  0 0.4333333333333333 0  0 0.4 0  0 0.3666666666666667 0  0 0.3333333333333334 0  0 0.3 0  0 0.2666666666666667 0  0 0.2333333333333333 0  0 0.2 0  0 0.1666666666666666 0  0 0.1333333333333333 0  0 0.09999999999999998 0  0 0.06666666666666665 0  0 0.03333333333333333 0  1 0.03333333333333333 0  1 0.06666666666666667 0  1 0.1 0  1 0.1333333333333333 0  1 0.1666666666666667 0  1 0.2 0  1 0.2333333333333333 0  1 0.2666666666666667 0  1 0.3 0  1 0.3333333333333333 0  1 0.3666666666666666 0  1 0.4 0  1 0.4333333333333333 0  1 0.4666666666666667 0  1 0.5 0  1 0.5333333333333333 0  1 0.5666666666666667 0  1 0.6 0  1 0.6333333333333333 0  1 0.6666666666666666 0  1 0.7 0  1 0.7333333333333333 0  1 0.7666666666666667 0  1 0.8 0  1 0.8333333333333334 0  1 0.8666666666666667 0  1 0.9 0  1 0.9333333333333333 0  1 0.9666666666666667 0  0.9666666666666667 1 0  0.9333333333333333 1 0  0.9 1 0  0.8666666666666667 1 0  0.8333333333333334 1 0  0.8 1 0  0.7666666666666666 1 0  0.7333333333333334 1 0  0.7 1 0  0.6666666666666667 1 0  0.6333333333333333 1 0  0.6 1 0  0.5666666666666667 1 0  0.5333333333333333 1 0  0.5 1 0  0.4666666666666667 1 0  0.4333333333333333 1 0  0.4 1 0  0.3666666666666667 1 0  0.3333333333333334 1 0  0.3 1 0  0.2666666666666667 1 0  0.2333333333333333 1 0  0.2 1 0  0.1666666666666666 1 0  0.1333333333333333 1 0  0.09999999999999998 1 0  0.06666666666666665 1 0  0.03333333333333333 1 0  0.6247072676344306 0.2689501343248463 0  0.6239274716502419 0.2788583817523955 0  0.6226301867455355 0.2887122389026952 0  0.6208189686880621 0.2984846970382296 0  0.6184987819006211 0.3081489705305245 0  0.6156759858539226 0.317678570277693 0  0.6123583176357204 0.3270473763092224 0  0.6085548707439923 0.3362297093789981 0  0.6042760701622942 0.3452004013503318 0  0.5995336437856049 0.3539348641800754 0  0.5943405902749808 0.3624091573127375 0  0.5887111434291297 0.3706000532998825 0  0.582660733170558 0.3784851014649517 0  0.5762059432532257 0.3860426894390078 0  0.5693644658076293 0.3932521023987353 0  0.5621550528479018 0.4000935798443317 0  0.5545974648738458 0.4065483697616639 0  0.5467124167087765 0.4125987800202355 0  0.5385215207216315 0.4182282268660866 0  0.5300472275889694 0.4234212803767108 0  0.5213127647592257 0.4281637067534002 0  0.512342072787892 0.4324425073350981 0  0.5031597397181163 0.4362459542268262 0  0.493790933686587 0.4395636224450283 0  0.4842613339394185 0.4423864184917269 0  0.4745970604471235 0.4447066052791678 0  0.4648246023115891 0.4465178233366412 0  0.4549707451612894 0.4478151082413475 0  0.4450624977337403 0.4485949042255363 0  0.4351270178464268 0.4488550739226177 0  0.4251915379591132 0.4485949042255363 0  0.4152832905315641 0.4478151082413475 0  0.4054294333812644 0.4465178233366411 0  0.39565697524573 0.4447066052791677 0  0.385992701753435 0.4423864184917267 0  0.3764631020062665 0.4395636224450281 0  0.3670942959747371 0.4362459542268259 0  0.3579119629049616 0.4324425073350978 0  0.3489412709336278 0.4281637067533998 0  0.3402068081038843 0.4234212803767103 0  0.3317325149712221 0.4182282268660862 0  0.3235416189840771 0.412598780020235 0  0.3156565708190078 0.4065483697616634 0  0.3080989828449519 0.4000935798443311 0  0.3008895698852244 0.3932521023987346 0  0.2940480924396279 0.3860426894390071 0  0.2875933025222958 0.3784851014649511 0  0.2815428922637242 0.3706000532998818 0  0.2759134454178731 0.3624091573127368 0  0.2707203919072489 0.3539348641800746 0  0.2659779655305596 0.3452004013503309 0  0.2616991649488616 0.3362297093789972 0  0.2578957180571336 0.3270473763092215 0  0.2545780498389315 0.3176785702776921 0  0.251755253792233 0.3081489705305236 0  0.249435067004792 0.2984846970382286 0  0.2476238489473186 0.2887122389026941 0  0.2463265640426123 0.2788583817523945 0  0.2455467680584236 0.2689501343248454 0  0.2452865983613423 0.2590146544375318 0  0.2455467680584237 0.2490791745502182 0  0.2463265640426126 0.2391709271226692 0  0.247623848947319 0.2293170699723696 0  0.2494350670047924 0.2195446118368351 0  0.2517552537922335 0.2098803383445402 0  0.2545780498389321 0.2003507385973717 0  0.2578957180571343 0.1909819325658423 0  0.2616991649488624 0.1817995994960667 0  0.2659779655305604 0.172828907524733 0  0.2707203919072498 0.1640944446949895 0  0.2759134454178741 0.1556201515623273 0  0.2815428922637251 0.1474292555751825 0  0.2875933025222969 0.1395442074101132 0  0.2940480924396291 0.1319866194360571 0  0.3008895698852256 0.1247772064763297 0  0.3080989828449531 0.1179357290307334 0  0.3156565708190092 0.1114809391134012 0  0.3235416189840785 0.1054305288548295 0  0.3317325149712236 0.09980108200897844 0  0.3402068081038856 0.0946080284983544 0  0.3489412709336291 0.08986560212166514 0  0.357911962904963 0.08558680153996717 0  0.3670942959747386 0.08178335464823916 0  0.3764631020062678 0.07846568643003712 0  0.3859927017534364 0.0756428903833386 0  0.3956569752457313 0.0733227035958976 0  0.4054294333812659 0.07151148553842429 0  0.4152832905315654 0.07021420063371797 0  0.4251915379591144 0.0694344046495293 0  0.435127017846428 0.0691742349524479 0  0.4450624977337415 0.06943440464952938 0  0.4549707451612905 0.07021420063371814 0  0.4648246023115901 0.07151148553842454 0  0.4745970604471245 0.07332270359589793 0  0.4842613339394195 0.07564289038333902 0  0.4937909336865879 0.07846568643003757 0  0.5031597397181173 0.0817833546482398 0  0.5123420727878929 0.08558680153996781 0  0.5213127647592265 0.08986560212166581 0  0.53004722758897 0.0946080284983552 0  0.5385215207216321 0.09980108200897933 0  0.5467124167087771 0.1054305288548305 0  0.5545974648738462 0.1114809391134021 0  0.5621550528479023 0.1179357290307343 0  0.5693644658076298 0.1247772064763308 0  0.576205943253226 0.1319866194360582 0  0.5826607331705582 0.1395442074101142 0  0.5887111434291299 0.1474292555751835 0  0.594340590274981 0.1556201515623285 0  0.5995336437856051 0.1640944446949906 0  0.6042760701622945 0.172828907524734 0  0.6085548707439925 0.1817995994960678 0  0.6123583176357205 0.1909819325658435 0  0.6156759858539227 0.2003507385973728 0  0.6184987819006211 0.2098803383445412 0  0.6208189686880622 0.2195446118368362 0  0.6226301867455355 0.2293170699723706 0  0.6239274716502419 0.2391709271226702 0  0.6247072676344306 0.2490791745502192 0  0.203885768735257 0.3325402459548524 0  0.2015714905276826 0.3421799084407872 0  0.1977777294810124 0.3513388578120612 0  0.1925979005829864 0.3597915703383434 0  0.1861595484119405 0.3673299121842922 0  0.1786212065659918 0.373768264355338 0  0.1701684940397096 0.378948093253364 0  0.1610095446684356 0.3827418543000342 0  0.1513698821825007 0.3850561325076086 0  0.1414868670645144 0.3858339426659677 0  0.1316038519465281 0.3850561325076086 0  0.1219641894605933 0.3827418543000343 0  0.1128052400893193 0.378948093253364 0  0.1043525275630371 0.3737682643553381 0  0.09681418571708833 0.3673299121842922 0  0.09037583354604248 0.3597915703383434 0  0.08519600464801645 0.3513388578120612 0  0.08140224360134621 0.3421799084407872 0  0.07908796539377183 0.3325402459548523 0  0.07831015523541281 0.3226572308368659 0  0.07908796539377186 0.3127742157188796 0  0.08140224360134626 0.3031345532329447 0  0.08519600464801655 0.2939756038616707 0  0.0903758335460426 0.2855228913353884 0  0.0968141857
[...]
<PointData  Vectors="$u$"> 
<DataArray  type="Float64"  Name="$u$"  NumberOfComponents="3" format="ascii">2.9132186651287630e-04 5.4989428747280976e-04 0.0000000000000000e+00  0.0000000000000000e+00 0.0000000000000000e+00 0.0000000000000000e+00  -6.8126790428310277e-04 0.0000000000000000e+00 0.0000000000000000e+00  -1.0557315236354279e-04 6.0000000000000001e-03 0.0000000000000000e+00  -8.0703933792634984e-04 6.0000000000000001e-03 0.0000000000000000e+00  -1.1170316357357103e-03 1.4411744156890335e-03 0.0000000000000000e+00  1.1720843858379949e-03 8.9649044841895161e-04 0.0000000000000000e+00  1.0116558732886642e-03 1.6582994271051455e-03 0.0000000000000000e+00  -6.0257071588736835e-04 2.0571058404271768e-04 0.0000000000000000e+00  -9.1294901657309427e-04 2.3802838512692196e-05 0.0000000000000000e+00  -1.0459736153966333e-03 2.0673689965982427e-04 0.0000000000000000e+00  -1.3124599784861200e-04 2.3501380140189825e-03 0.0000000000000000e+00  -2.7475897542494194e-03 1.7989904589826718e-03 0.0000000000000000e+00  -4.2814147780702479e-04 3.6740627961722966e-03 0.0000000000000000e+00  -3.3081269191659080e-04 3.3030599257315519e-03 0.0000000000000000e+00  8.5436047158178412e-04 5.7099657494429088e-03 0.0000000000000000e+00  3.1771017091146181e-04 4.8003974669195313e-03 0.0000000000000000e+00  -4.6602218416465343e-04 5.7505456631643248e-03 0.0000000000000000e+00  -2.9219615712901045e-03 3.1352210545298165e-03 0.0000000000000000e+00  -2.2289372921266838e-03 4.2042631573165502e-03 0.0000000000000000e+00  -1.5235491041823699e-03 5.4565822954599150e-03 0.0000000000000000e+00  -1.3862496735888516e-03 5.3447552115824188e-03 0.0000000000000000e+00  3.9028434881093621e-04 6.4794673978771052e-04 0.0000000000000000e+00  4.9361261497105893e-04 7.3498546918847004e-04 0.0000000000000000e+00  5.8465610210804513e-04 8.0821108038582222e-04 0.0000000000000000e+00  6.5424608039166732e-04 8.3902664063277305e-04 0.0000000000000000e+00  7.0504007661880037e-04 8.2338091166213529e-04 0.0000000000000000e+00  7.1209973972924531e-04 7.3946859571535656e-04 0.0000000000000000e+00  6.9379487187076825e-04 6.1773163613727887e-04 0.0000000000000000e+00  6.3707943927348871e-04 5.1477627430761568e-04 0.0000000000000000e+00  5.5331332730029076e-04 4.5693322762939507e-04 0.0000000000000000e+00  4.7841910342226630e-04 4.2716859376785320e-04 0.0000000000000000e+00  4.0168241850281405e-04 3.8874257153780539e-04 0.0000000000000000e+00  3.3367490721995650e-04 3.5570271980211483e-04 0.0000000000000000e+00  2.7212473828490489e-04 3.1614053719820586e-04 0.0000000000000000e+00  2.1969853383706556e-04 2.8058810799506045e-04 0.0000000000000000e+00  1.7317192420641828e-04 2.5724333799835244e-04 0.0000000000000000e+00  1.4218342751889956e-04 2.4734425197352775e-04 0.0000000000000000e+00  1.2052683612083060e-04 2.5423780200052565e-04 0.0000000000000000e+00  1.1475123723965534e-04 2.7886434621467762e-04 0.0000000000000000e+00  1.2883279217667097e-04 3.2157305953099186e-04 0.0000000000000000e+00  1.5826550788986113e-04 3.7987720156522386e-04 0.0000000000000000e+00  2.1492011026841900e-04 4.5810661080623551e-04 0.0000000000000000e+00  0.0000000000000000e+00 0.0000000000000000e+00 0.0000000000000000e+00  -5.9539943939217142e-05 0.0000000000000000e+00 0.0000000000000000e+00  -8.1123167647627296e-05 0.0000000000000000e+00 0.0000000000000000e+00  -1.0693172962123634e-04 0.0000000000000000e+00 0.0000000000000000e+00  -1.2440083942746554e-04 0.0000000000000000e+00 0.0000000000000000e+00  -1.4122180223312590e-04 0.0000000000000000e+00 0.0000000000000000e+00  -1.5513222155448962e-04 0.0000000000000000e+00 0.0000000000000000e+00  -1.6816046315176384e-04 0.0000000000000000e+00 0.0000000000000000e+00  -1.7794552179552984e-04 0.0000000000000000e+00 0.0000000000000000e+00  -1.8474432073022144e-04 0.0000000000000000e+00 0.0000000000000000e+00  -1.9098975996948626e-04 0.0000000000000000e+00 0.0000000000000000e+00  -1.9985897192069025e-04 0.0000000000000000e+00 0.0000000000000000e+00  -2.1084031547935060e-04 0.0000000000000000e+00 0.0000000000000000e+00  -2.2416761921102802e-04 0.0000000000000000e+00 0.0000000000000000e+00  -2.4090435499488536e-04 0.0000000000000000e+00 0.0000000000000000e+00  -2.6811112034370166e-04 0.0000000000000000e+00 0.0000000000000000e+00  -3.1147191478910559e-04 0.0000000000000000e+00 0.0000000000000000e+00  -3.6958524330592458e-04 0.0000000000000000e+00 0.0000000000000000e+00  -4.1164588696552943e-04 0.0000000000000000e+00 0.0000000000000000e+00  -4.4795108646380544e-04 0.0000000000000000e+00 0.0000000000000000e+00  -4.9786828393516254e-04 0.0000000000000000e+00 0.0000000000000000e+00  -5.3087317597344682e-04 0.0000000000000000e+00 0.0000000000000000e+00  -5.3982142028297455e-04 0.0000000000000000e+00 0.0000000000000000e+00  -5.4053660413346698e-04 0.0000000000000000e+00 0.0000000000000000e+00  -5.4042706344556858e-04 0.0000000000000000e+00 0.0000000000000000e+00  -5.5014388135829798e-04 0.0000000000000000e+00 0.0000000000000000e+00  -5.6461177978137783e-04 0.0000000000000000e+00 0.0000000000000000e+00  -5.9393100471342899e-04 0.0000000000000000e+00 0.0000000000000000e+00  -6.3301042613688146e-04 0.0000000000000000e+00 0.0000000000000000e+00  -9.4872304495238711e-05 5.8252945352632911e-03 0.0000000000000000e+00  -5.8780653999083468e-05 5.6495093418023282e-03 0.0000000000000000e+00  1.8540863624720782e-06 5.4668302465479494e-03 0.0000000000000000e+00  9.3980614674831289e-05 5.2800543931999268e-03 0.0000000000000000e+00  2.1712867414069799e-04 5.0872355472095692e-03 0.0000000000000000e+00  3.7476839399700477e-04 4.8874831122266982e-03 0.0000000000000000e+00  5.6663325053310195e-04 4.6823745891596408e-03 0.0000000000000000e+00  7.9382916824189244e-04 4.4564922342622409e-03 0.0000000000000000e+00  1.0782664009117598e-03 4.2106105458856440e-03 0.0000000000000000e+00  1.4404937573326299e-03 3.9409572219413101e-03 0.0000000000000000e+00  1.8937508209956591e-03 3.6828219498645188e-03 0.0000000000000000e+00  2.3824239437993462e-03 3.4873649347201816e-03 0.0000000000000000e+00  2.7470572839004338e-03 3.3920688462840912e-03 0.0000000000000000e+00  2.7510555092566031e-03 3.3587370723304664e-03 0.0000000000000000e+00  2.4502062546377531e-03 3.2187822052662375e-03 0.0000000000000000e+00  2.0900844701023523e-03 2.9549639222943656e-03 0.0000000000000000e+00  1.8777980762460351e-03 2.5904203003376388e-03 0.0000000000000000e+00  1.7714237405246568e-03 2.3386312705481007e-03 0.0000000000000000e+00  1.4494849046949485e-03 2.1130306757678480e-03 0.0000000000000000e+00  1.1696950779039594e-03 1.8107889099662231e-03 0.0000000000000000e+00  9.7690448209990493e-04 1.5883791858008736e-03 0.0000000000000000e+00  7.8466664628018762e-04 1.3947349709935877e-03 0.0000000000000000e+00  6.0420013494354174e-04 1.2122664417721642e-03 0.0000000000000000e+00  4.4311791987363693e-04 1.0312923907669187e-03 0.0000000000000000e+00  3.0792223377274983e-04 8.5381991280859804e-04 0.0000000000000000e+00  2.0086587303216516e-04 6.7402757853511565e-04 0.0000000000000000e+00  1.2242407400078306e-04 5.0295371111869918e-04 0.0000000000000000e+00  6.8312126111379321e-05 3.2653063499843053e-04 0.0000000000000000e+00  4.5129539248944713e-05 1.6940695924855847e-04 0.0000000000000000e+00  -6.9219193834125061e-04 1.7818097288867645e-04 0.0000000000000000e+00  -7.3068480263740348e-04 3.5941852797040440e-04 0.0000000000000000e+00  -7.9540269992899460e-04 5.4518629871377520e-04 0.0000000000000000e+00  -8.9176936604894066e-04 7.3949302410506476e-04 0.0000000000000000e+00  -1.0249425088239921e-03 9.4381286417454338e-04 0.0000000000000000e+00  -1.2036747643829726e-03 1.1593839563781511e-03 0.0000000000000000e+00  -1.4323091472030513e-03 1.3804007649903820e-03 0.0000000000000000e+00  -1.7206194888210618e-03 1.6103808198576933e-03 0.0000000000000000e+00  -2.0651569892524055e-03 1.8227872482608207e-03 0.0000000000000000e+00  -2.4313157424702037e-03 1.9977133259744982e-03 0.0000000000000000e+00  -2.7456541161066583e-03 2.1173649343310961e-03 0.0000000000000000e+00  -2.9290040389275615e-03 2.2116154520093138e-03 0.0000000000000000e+00  -2.9691747831106815e-03 2.3382835140380717e-03 0.0000000000000000e+00  -2.9580216755107627e-03 2.5791532239059132e-03 0.0000000000000000e+00  -3.1320094521274534e-03 2.8864662490629607e-03 0.0000000000000000e+00  -2.8522096858817746e-03 3.0050187120984565e-03 0.0000000000000000e+00  -2.3717226319801901e-03 3.6110711370642801e-03 0.0000000000000000e+00  -2.3518101495677542e-03 3.9076293980806172e-03 0.0000000000000000e+00  -2.2623234363998474e-03 4.0680897942617141e-03 0.0000000000000000e+00  -2.0384767134415528e-03 4.2200710892113472e-03 0.0000000000000000e+00  -1.7773562626412004e-03 4.4026801447736279e-03 0.0000000000000000e+00  -1.5461533073064598e-03 4.5998354983786049e-03 0.0000000000000000e+00  -1.3498432830623248e-03 4.7895531572280971e-03 0.0000000000000000e+00  -1.1857636294007852e-03 4.9769875444805713e-03 0.0000000000000000e+00  -1.0577726577087054e-03 5.1617567706275461e-03 0.0000000000000000e+00  -9.6250442667932912e-04 5.3383762018761917e-03 0.0000000000000000e+00  -8.9259423482523654e-04 5.5087887523115851e-03 0.0000000000000000e+00  -8.4488112639034807e-04 5.6741819997461846e-03 0.0000000000000000e+00  -8.1566113487594729e-04 5.8374888534062927e-03 0.0000000000000000e+00  -7.6247622574466948e-04 6.0000000000000001e-03 0.0000000000000000e+00  -7.2245047114369797e-04 6.0000000000000001e-03 0.0000000000000000e+00  -6.8993604405324883e-04 6.0000000000000001e-03 0.0000000000000000e+00  -6.6292231896595416e-04 6.0000000000000001e-03 0.0000000000000000e+00  -6.3995698610729273e-04 6.0000000000000001e-03 0.0000000000000000e+00  -6.1986317005176793e-04 6.0000000000000001e-03 0.0000000000000000e+00  -6.0363729381575706e-04 6.0000000000000001e-03 0.0000000000000000e+00  -5.9237206139370932e-04 6.0000000000000001e-03 0.0000000000000000e+00  -5.8386152603293647e-04 6.0000000000000001e-03 0.0000000000000000e+00  -5.7901113926226919e-04 6.0000000000000001e-03 0.0000000000000000e+00  -5.7124703762550003e-04 6.0000000000000001e-03 0.0000000000000000e+00  -5.6133398655070193e-04 6.0000000000000001e-03 0.0000000000000000e+00  -5.4811189127802068e-04 6.0000000000000001e-03 0.0000000000000000e+00  -5.3336225811445690e-04 6.0000000000000001e-03 0.0000000000000000e+00  -5.1831625971873187e-04 6.0000000000000001e-03 0.0000000000000000e+00  -4.9903466177198398e-04 6.0000000000000001e-03 0.0000000000000000e+00  -4.7286450065835508e-04 6.0000000000000001e-03 0.0000000000000000e+00  -4.3449995349050013e-04 6.0000000000000001e-03 0.0000000000000000e+00  -3.8895396946723418e-04 6.0000000000000001e-03 0.0000000000000000e+00  -3.5015552121637626e-04 6.0000000000000001e-03 0.0000000000000000e+00  -3.2657676638231826e-04 6.0000000000000001e-03 0.0000000000000000e+00  -3.0516597631216586e-04 6.0000000000000001e-03 0.0000000000000000e+00  -2.7825175739787210e-04 6.0000000000000001e-03 0.0000000000000000e+00  -2.5808098231441145e-04 6.0000000000000001e-03 0.0000000000000000e+00  -2.4838852685379794e-04 6.0000000000000001e-03 0.0000000000000000e+00  -2.3564792556452470e-04 6.0000000000000001e-03 0.0000000000000000e+00  -2.1926728957325140e-04 6.0000000000000001e-03 0.0000000000000000e+00  -1.9169140536374560e-04 6.0000000000000001e-03 0.0000000000000000e+00  -1.5244068902562204e-04 6.0000000000000001e-03 0.0000000000000000e+00  -1.0620678543688559e-03 1.5372450460763483e-03 0.0000000000000000e+00  -9.9836231869650889e-04 1.6288139456607671e-03 0.0000000000000000e+00  -9.2591426929892128e-04 1.7198713962533697e-03 0.0000000000000000e+00  -8.4839367699577153e-04 1.8052565849533625e-03 0.0000000000000000e+00  -7.6678406686405852e-04 1.8909532091999479e-03 0.0000000000000000e+00  -6.8274981809831117e-04 1.9701977115602217e-03 0.0000000000000000e+00  -5.9993987421544945e-04 2.0419659295175131e-03 0.0000000000000000e+00  -5.2305600214504731e-04 2.1056559578905708e-03 0.0000000000000000e+00  -4.5309029375885965e-04 2.1588296028784092e-03 0.0000000000000000e+00  -3.9538146511926205e-04 2.2004159268065996e-03 0.0000000000000000e+00  -3.5094482698203863e-04 2.2321046146900505e-03 0.0000000000000000e+00  -3.2145863217829159e-04 2.2539270302841512e-03 0.0000000000000000e+00  -3.0836952081575577e-04 2.2680961973021978e-03 0.0000000000000000e+00  -3.1047801113437743e-04 2.2769119893743918e-03 0.0000000000000000e+00  -3.2863593978085391e-04 2.2814078920557141e-03 0.0000000000000000e+00  -3.6139401187470241e-04 2.2893491519922282e-03 0.0000000000000000e+00  -4.0243404828691815e-04 2.3055436231004017e-03 0.0000000000000000e+00  -4.4533087489226125e-04 2.3329868071331528e-03 0.0000000000000000e+00  -4.8611153193021511e-04 2.3737678824513747e-03 0.0000000000000000e+00  -5.2029165595498075e-04 2.4241694168884850e-03 0.0000000000000000e+00  -5.4941356707730114e-04 2.4857014639609030e-03 0.0000000000000000e+00  -5.7137748341654397e-04 2.5554888843121403e-03 0.0000000000000000e+00  -5.8616297226190563e-04 2.6322509490668759e-03 0.0000000000000000e+00  -5.9412666726275725e-04 2.7140315242882816e-03 0.0000000000000000e+00  -5.9525076898882191e-04 2.7980873245715197e-03 0.0000000000000000e+00  -5.9030453450447393e-04 2.8817674738041798e-03 0.0000000000000000e+00  -5.7921000701996396e-04 2.9624218132054477e-03 0.0000000000000000e+00  -5.6500457938741698e-04 3.0375821652332160e-03 0.0000000000000000e+00  -5.4756059753066709e-04 3.1067992616904271e-03 0.0000000000000000e+00  -5.2781875947021284e-04 3.1692872309451912e-03 0.0000000000000000e+00  -5.0638396286655407e-04 3.2253355189591788e-03 0.0000000000000000e+00  -4.8160936745291784e-04 3.2764359047705578e-03 0.0000000000000000e+00  -4.5135228971195042e-04 3.3213747042271078e-03 0.0000000000000000e+00  -4.1155909346570597e-04 3.3589455138953528e-03 0.0000000000000000e+00  -3.5670851937748163e-04 3.3828411098143132e-03 0.0000000000000000e+00  -2.8626154447758428e-04 3.3860752122918621e-03 0.0000000000000000e+00  -2.0083404871178056e-04 3.3652410406738867e-03 0.0000000000000000e+00  -1.0056388271823845e-04 3.3189799820148038e-03 0.0000000000000000e+00  1.4031735779646759e-05 3.2467081598177875e-03 0.0000000000000000e+00  1.4171114434424111e-04 3.1466525762373506e-03 0.0000000000000000e+00  2.8010286471183112e-04 3.0194920405563182e-03 0.0000000000000000e+00  4.2468345440181942e-04 2.8648065739368049e-03 0.0000000000000000e+00  5.6689212169735558e-04 2.6883774261204137e-03 0.0000000000000000e+00  7.0363587282982966e-04 2.4958459178102792e-03 0.0000000000000000e+00  8.2791155498816433e-04 2.2951313251585587e-03 0.0000000000000000e+00  9.3001213335203647e-04 2.0908660529140961e-03 0.0000000000000000e+00  1.0142915797189823e-03 1.8995479425074312e-03 0.0000000000000000e+00  1.0782833870826090e-03 1.7184387917565473e-03 0.0000000000000000e+00  1.1231880738973429e-03 1.5530762715343103e-03 0.0000000000000000e+00  1.1528024685186833e-03 1.4044509100697416e-03 0.0000000000000000e+00  1.1672090349161834e-03 1.2682004664594266e-03 0.0000000000000000e+00  1.1683907816170747e-03 1.1454497929030104e-03 0.0000000000000000e+00  1.1540973809046587e-03 1.0303981722539636e-03 0.0000000000000000e+00  1.1227716616680301e-03 9.2478781540450460e-04 0.0000000000000000e+00  1.0745824923398969e-03 8.2889810591679303e-04 0.0000000000000000e+00  1.0107957892137578e-03 7.4270737479594623e-04 0.0000000000000000e+00  9.3664876890341706e-04 6.6776900992730564e-04 0.0000000000000000e+00  8.5808211022502033e-04 6.0182163147963551e-04 0.0000000000000000e+00  7.7764215048308752e-04 5.3844908071590085e-04 0.0000000000000000e+00  6.9497775615475095e-04 4.7668394791738867e-04 0.0000000000000000e+00  6.0762144659092963e-04 4.1287180946891430e-04 0.0000000000000000e+00  5.1244343474233958e-04 3.4959129952657331e-04 0.0000000000000000e+00  4.1260816810291594e-04 2.9626710020130614e-04 0.0000000000000000e+00  3.1889210916338084e-04 2.5307261258781784e-04 0.0000000000000000e+00  2.3888922500945610e-04 2.2213586906915577e-04 0.0000000000000000e+00  1.7707546839630751e-04 1.9703928895598602e-04 0.0000000000000000e+00  1.3092389894425510e-04 1.7526672833433470e-04 0.0000000000000000e+00  9.5855778672403151e-05 1.5283433167416691e-04 0.0000000000000000e+00  6.7322156834568909e-05 1.3069893879128139e-04 0.0000000000000000e+00  4.2006237158957129e-05 1.0847622184127733e-04 0.0000000000000000e+00  1.8706793209811527e-05 8.7985301416922528e-05 0.0000000000000000e+00  -3.4206476851795468e-06 6.9132745579836464e-05 0.0000000000000000e+00  -2.4437138559023884e-05 5.2677318841414904e-05 0.0000000000000000e+00  -4.4369609104492452e-05 3.8423444229285750e-05 0.0000000000000000e+00  -6.3169309617415613e-05 2.6994218501945821e-05 0.0000000000000000e+00  -8.0591326305243257e-05 1.7396411281435108e-05 0.0000000000000000e+00  -9.6745620523998826e-05 1.0415028954160409e-05 0.0000000000000000e+00  -1.1143232891948061e-04 5.0401127621541868e-06 0.0000000000000000e+00  -1.2470510570216392e-04 1.4199552428029326e-06 0.0000000000000000e+00  -1.3698414078774975e-04 -7.5489267926120176e-07 0.0000000000000000e+00  -1.4775719197192055e-04 -1.7855761748586211e-06 0.0000000000000000e+00  -1.5770888953316474e-04 -1.9959193903965030e-06 0.0000000000000000e+00  -1.6654560496645306e-04 -1.5445937230970283e-06 0.0000000000000000e+00  -1.7473973488800254e-04 -7.3999206113928092e-07 0.0000000000000000e+00  -1.8220506417653031e-04 3.2602275297146477e-07 0.0000000000000000e+00  -1.8938942054599637e-04 1.4173070479993085e-06 0.0000000000000000e+00  -1.9615817057052354e-04 2.5841185502404724e-06 0.0000000000000000e+00  -2.0277847633803835e-04 3.6234212886869920e-06 0.0000000000000000e+00  -2.0940973923961882e-04 4.7098136834107034e-06 0.0000000000000000e+00  -2.1605315139460940e-04 5.8397428469513137e-06 0.0000000000000000e+00  -2.2284881198246951e-04 7.2117565933251197e-06 0.0000000000000000e+00  -2.2961648152801904e-04 8.9056092135185097e-06 0.0000000000000000e+00  -2.3660318199959638e-04 1.1170081170031496e-05 0.0000000000000000e+00  -2.4365324635336461e-04 1.4495949077693242e-05 0.0000000000000000e+00  -2.5017431951629784e-04 1.8713887603777599e-05 0.0000000000000000e+00  -2.5659257791263928e-04 2.4288142815509732e-05 0.0000000000000000e+00  -2.6192688194764122e-04 3.1151965741876192e-05 0.0000000000000000e+00  -2.6651574765070642e-04 3.9263324588497099e-05 0.0000000000000000e+00  -2.7021319986521422e-04 4.8451614022538917e-05 0.0000000000000000e+00  -2.7283676433632431e-04 5.8766119173770047e-05 0.0000000000000000e+00  -2.7579303953316877e-04 6.9272153129462720e-05 0.0000000000000000e+00  -2.7980431837919262e-04 8.0759409494057333e-05 0.0000000000000000e+00  -2.9018308985895476e-04 9.2105248583948890e-05 0.0000000000000000e+00  -3.0795274588812905e-04 1.0875985111373169e-04 0.0000000000000000e+00  -3.4085823623317629e-04 1.3050705731623965e-04 0.0000000000000000e+00  -3.8630191003993628e-04 1.6642376113301850e-04 0.0000000000000000e+00  -4.4517189788995673e-04 2.1587489149000669e-04 0.0000000000000000e+00  -5.0911636191774100e-04 2.7835717615110945e-04 0.0000000000000000e+00  -5.7626374399749342e-04 3.4712325705771915e-04 0.0000000000000000e+00  -6.4638658217657310e-04 4.1699013168232791e-04 0.0000000000000000e+00  -7.2592251601915356e-04 4.8712844205673494e-04 0.0000000000000000e+00  -8.1476814033728325e-04 5.6418392022694651e-04 0.0000000000000000e+00  -9.1119472209026360e-04 6.5152161912851751e-04 0.0000000000000000e+00  -1.0053202852376077e-03 7.5247365448071889e-04 0.0000000000000000e+00  -1.0864723103827887e-03 8.6667321357020665e-04 0.0000000000000000e+00  -1.1448925226305833e-03 9.8690882525769236e-04 0.0000000000000000e+00  -1.1762031936057946e-03 1.1085598938445321e-03 0.0000000000000000e+00  -1.1784954344191271e-03 1.2276675964111572e-03 0.0000000000000000e+00  -1.1574855044895224e-03 1.3364075293069418e-03 0.0000000000000000e+00  1.1859267380365454e-03 8.9115798944897865e-04 0.0000000000000000e+00  1.1703355902884561e-03 8.7208725429117570e-04 0.0000000000000000e+00  1.1282012163422700e-03 8.4366434925613805e-04 0.0000000000000000e+00  1.0666511536317359e-03 8.1578