<?xml version="1.0"?>
<VTKFile type="UnstructuredGrid"  version="0.1"  >
<UnstructuredGrid>
<Piece  NumberOfPoints="3879" NumberOfCells="6881">
<Points>
<DataArray  type="Float64"  NumberOfComponents="3"  format="ascii">0.207524190028372 0.2122422770132111 0  0 0 0  1 0 0  0 1 0  1 1 0  0.6249674373315121 0.2590146544375328 0  0.204663578893616 0.322657230836866 0  0.09605577522599912 0.4018360776629776 0  0.671351124618251 0.08738059142081528 0  0.7842102907526436 0.1666439122351055 0  0.8512483166984784 0.1985391006160637 0  0.6418797837909295 0.4423157172830166 0  0.9292488447973215 0.3869277868069776 0  0.3197896119137055 0.5509935221980964 0  0.3979283685568406 0.5079871620336583 0  0.1572503457993085 0.7345153245035532 0  0.3032914287999163 0.7872981443735918 0  0.3549464687598876 0.8870324161721976 0  0.9691791685505482 0.5159450047798622 0  0.9447564590470373 0.6146164845729313 0  0.7687603548175107 0.7176858127488035 0  0.8926159261971183 0.7422924070424508 0  0.2061587782631535 0.2217389244366831 0  0.2021731605082994 0.2304662099646423 0  0.1958902278109265 0.2377171008267789 0  0.1878189860121365 0.2429041729681512 0  0.1786133191209442 0.2456072006525708 0  0.1690190155206647 0.2456072006525708 0  0.1598133486294724 0.2429041729681512 0  0.1517421068306824 0.2377171008267789 0  0.1454591741333096 0.2304662099646422 0  0.1414735563784554 0.221738924436683 0  0.1401081446132369 0.212242277013211 0  0.1414735563784555 0.202745629589739 0  0.1454591741333096 0.1940183440617798 0  0.1517421068306825 0.1867674531996431 0  0.1598133486294725 0.1815803810582709 0  0.1690190155206649 0.1788773533738513 0  0.1786133191209443 0.1788773533738514 0  0.1878189860121367 0.181580381058271 0  0.1958902278109266 0.1867674531996433 0  0.2021731605082994 0.19401834406178 0  0.2061587782631535 0.2027456295897391 0  0.03333333333333333 0 0  0.06666666666666667 0 0  0.1 0 0  0.1333333333333333 0 0  0.1666666666666667 0 0  0.2 0 0  0.2333333333333333 0 0  0.2666666666666667 0 0  0.3 0 0  0.3333333333333333 0 0  0.3666666666666666 0 0  0.4 0 0  0.4333333333333333 0 0  0.4666666666666667 0 0  0.5 0 0  0.5333333333333333 0 0  0.5666666666666667 0 0  0.6 0 0  0.6333333333333333 0 0  0.6666666666666666 0 0  0.7 0 0  0.7333333333333333 0 0  0.7666666666666667 0 0  0.8 0 0  0.8333333333333334 0 0  0.8666666666666667 0 0  0.9 0 0  0.9333333333333333 0 0  0.9666666666666667 0 0  0 0.9666666666666667 0  0 0.9333333333333333 0  0 0.9 0  0 0.8666666666666667 0  0 0.8333333333333334 0  0 0.8 0  0 0.7666666666666666 0  0 0.7333333333333334 0  0 0.7 0  0 0.6666666666666667 0  0 0.6333333333333333 0  0 0.6 0  0 0.5666666666666667 0  0 0.5333333333333333 0  0 0.5 0  0 0.4666666666666667 0  0 0.4333333333333333 0  0 0.4 0  0 0.3666666666666667 0  0 0.3333333333333334 0  0 0.3 0  0 0.2666666666666667 0  0 0.2333333333333333 0  0 0.2 0  0 0.1666666666666666 0  0 0.1333333333333333 0  0 0.09999999999999998 0  0 0.06666666666666665 0  0 0.03333333333333333 0  1 0.03333333333333333 0  1 0.06666666666666667 0  1 0.1 0  1 0.1333333333333333 0  1 0.1666666666666667 0  1 0.2 0  1 0.2333333333333333 0  1 0.2666666666666667 0  1 0.3 0  1 0.3333333333333333 0  1 0.3666666666666666 0  1 0.4 0  1 0.4333333333333333 0  1 0.4666666666666667 0  1 0.5 0  1 0.5333333333333333 0  1 0.5666666666666667 0  1 0.6 0  1 0.6333333333333333 0  1 0.6666666666666666 0  1 0.7 0  1 0.7333333333333333 0  1 0.7666666666666667 0  1 0.8 0  1 0.8333333333333334 0  1 0.8666666666666667 0  1 0.9 0  1 0.9333333333333333 0  1 0.9666666666666667 0  0.9666666666666667 1 0  0.9333333333333333 1 0  0.9 1 0  0.8666666666666667 1 0  0.8333333333333334 1 0  0.8 1 0  0.7666666666666666 1 0  0.7333333333333334 1 0  0.7 1 0  0.6666666666666667 1 0  0.6333333333333333 1 0  0.6 1 0  0.5666666666666667 1 0  0.5333333333333333 1 0  0.5 1 0  0.4666666666666667 1 0  0.4333333333333333 1 0  0.4 1 0  0.3666666666666667 1 0  0.3333333333333334 1 0  0.3 1 0  0.2666666666666667 1 0  0.2333333333333333 1 0  0.2 1 0  0.1666666666666666 1 0  0.1333333333333333 1 0  0.09999999999999998 1 0  0.06666666666666665 1 0  0.03333333333333333 1 0  0.6247072676344306 0.2689501343248463 0  0.6239274716502419 0.2788583817523955 0  0.6226301867455355 0.2887122389026952 0  0.6208189686880621 0.2984846970382296 0  0.6184987819006211 0.3081489705305245 0  0.6156759858539226 0.317678570277693 0  0.6123583176357204 0.3270473763092224 0  0.6085548707439923 0.3362297093789981 0  0.6042760701622942 0.3452004013503318 0  0.5995336437856049 0.3539348641800754 0  0.5943405902749808 0.3624091573127375 0  0.5887111434291297 0.3706000532998825 0  0.582660733170558 0.3784851014649517 0  0.5762059432532257 0.3860426894390078 0  0.5693644658076293 0.3932521023987353 0  0.5621550528479018 0.4000935798443317 0  0.5545974648738458 0.4065483697616639 0  0.5467124167087765 0.4125987800202355 0  0.5385215207216315 0.4182282268660866 0  0.5300472275889694 0.4234212803767108 0  0.5213127647592257 0.4281637067534002 0  0.512342072787892 0.4324425073350981 0  0.5031597397181163 0.4362459542268262 0  0.493790933686587 0.4395636224450283 0  0.4842613339394185 0.4423864184917269 0  0.4745970604471235 0.4447066052791678 0  0.4648246023115891 0.4465178233366412 0  0.4549707451612894 0.4478151082413475 0  0.4450624977337403 0.4485949042255363 0  0.4351270178464268 0.4488550739226177 0  0.4251915379591132 0.4485949042255363 0  0.4152832905315641 0.4478151082413475 0  0.4054294333812644 0.4465178233366411 0  0.39565697524573 0.4447066052791677 0  0.385992701753435 0.4423864184917267 0  0.3764631020062665 0.4395636224450281 0  0.3670942959747371 0.4362459542268259 0  0.3579119629049616 0.4324425073350978 0  0.3489412709336278 0.4281637067533998 0  0.3402068081038843 0.4234212803767103 0  0.3317325149712221 0.4182282268660862 0  0.3235416189840771 0.412598780020235 0  0.3156565708190078 0.4065483697616634 0  0.3080989828449519 0.4000935798443311 0  0.3008895698852244 0.3932521023987346 0  0.2940480924396279 0.3860426894390071 0  0.2875933025222958 0.3784851014649511 0  0.2815428922637242 0.3706000532998818 0  0.2759134454178731 0.3624091573127368 0  0.2707203919072489 0.3539348641800746 0  0.2659779655305596 0.3452004013503309 0  0.2616991649488616 0.3362297093789972 0  0.2578957180571336 0.3270473763092215 0  0.2545780498389315 0.3176785702776921 0  0.251755253792233 0.3081489705305236 0  0.249435067004792 0.2984846970382286 0  0.2476238489473186 0.2887122389026941 0  0.2463265640426123 0.2788583817523945 0  0.2455467680584236 0.2689501343248454 0  0.2452865983613423 0.2590146544375318 0  0.2455467680584237 0.2490791745502182 0  0.2463265640426126 0.2391709271226692 0  0.247623848947319 0.2293170699723696 0  0.2494350670047924 0.2195446118368351 0  0.2517552537922335 0.2098803383445402 0  0.2545780498389321 0.2003507385973717 0  0.2578957180571343 0.1909819325658423 0  0.2616991649488624 0.1817995994960667 0  0.2659779655305604 0.172828907524733 0  0.2707203919072498 0.1640944446949895 0  0.2759134454178741 0.1556201515623273 0  0.2815428922637251 0.1474292555751825 0  0.2875933025222969 0.1395442074101132 0  0.2940480924396291 0.1319866194360571 0  0.3008895698852256 0.1247772064763297 0  0.3080989828449531 0.1179357290307334 0  0.3156565708190092 0.1114809391134012 0  0.3235416189840785 0.1054305288548295 0  0.3317325149712236 0.09980108200897844 0  0.3402068081038856 0.0946080284983544 0  0.3489412709336291 0.08986560212166514 0  0.357911962904963 0.08558680153996717 0  0.3670942959747386 0.08178335464823916 0  0.3764631020062678 0.07846568643003712 0  0.3859927017534364 0.0756428903833386 0  0.3956569752457313 0.0733227035958976 0  0.4054294333812659 0.07151148553842429 0  0.4152832905315654 0.07021420063371797 0  0.4251915379591144 0.0694344046495293 0  0.435127017846428 0.0691742349524479 0  0.4450624977337415 0.06943440464952938 0  0.4549707451612905 0.07021420063371814 0  0.4648246023115901 0.07151148553842454 0  0.4745970604471245 0.07332270359589793 0  0.4842613339394195 0.07564289038333902 0  0.4937909336865879 0.07846568643003757 0  0.5031597397181173 0.0817833546482398 0  0.5123420727878929 0.08558680153996781 0  0.5213127647592265 0.08986560212166581 0  0.53004722758897 0.0946080284983552 0  0.5385215207216321 0.09980108200897933 0  0.5467124167087771 0.1054305288548305 0  0.5545974648738462 0.1114809391134021 0  0.5621550528479023 0.1179357290307343 0  0.5693644658076298 0.1247772064763308 0  0.576205943253226 0.1319866194360582 0  0.5826607331705582 0.1395442074101142 0  0.5887111434291299 0.1474292555751835 0  0.594340590274981 0.1556201515623285 0  0.5995336437856051 0.1640944446949906 0  0.6042760701622945 0.172828907524734 0  0.6085548707439925 0.1817995994960678 0  0.6123583176357205 0.1909819325658435 0  0.6156759858539227 0.2003507385973728 0  0.6184987819006211 0.2098803383445412 0  0.6208189686880622 0.2195446118368362 0  0.6226301867455355 0.2293170699723706 0  0.6239274716502419 0.2391709271226702 0  0.6247072676344306 0.2490791745502192 0  0.203885768735257 0.3325402459548524 0  0.2015714905276826 0.3421799084407872 0  0.1977777294810124 0.3513388578120612 0  0.1925979005829864 0.3597915703383434 0  0.1861595484119405 0.3673299121842922 0  0.1786212065659918 0.373768264355338 0  0.1701684940397096 0.378948093253364 0  0.1610095446684356 0.3827418543000342 0  0.1513698821825007 0.3850561325076086 0  0.1414868670645144 0.3858339426659677 0  0.1316038519465281 0.3850561325076086 0  0.1219641894605933 0.3827418543000343 0  0.1128052400893193 0.378948093253364 0  0.1043525275630371 0.3737682643553381 0  0.09681418571708833 0.3673299121842922 0  0.09037583354604248 0.3597915703383434 0  0.08519600464801645 0.3513388578120612 0  0.08140224360134621 0.3421799084407872 0  0.07908796539377183 0.3325402459548523 0  0.07831015523541281 0.3226572308368659 0  0.07908796539377186 0.3127742157188796 0  0.08140224360134626 0.3031345532329447 0  0.08519600464801655 0.2939756038616707 0  0.0903758335460426 0.2855228913353884 0  0.0968141857
[...]
<PointData  Vectors="$u$"> 
<DataArray  type="Float64"  Name="$u$"  NumberOfComponents="3" format="ascii">1.2309275517099585e-04 2.3031056758222816e-04 0.0000000000000000e+00  0.0000000000000000e+00 0.0000000000000000e+00 0.0000000000000000e+00  -2.8046074632717731e-04 0.0000000000000000e+00 0.0000000000000000e+00  -3.7561071182567316e-05 2.5000000000000001e-03 0.0000000000000000e+00  -3.2764322396962976e-04 2.5000000000000001e-03 0.0000000000000000e+00  -4.6400044099150227e-04 5.9697720678151937e-04 0.0000000000000000e+00  4.8261018568389297e-04 3.7587221453567251e-04 0.0000000000000000e+00  4.1830113361412702e-04 7.0819604016439126e-04 0.0000000000000000e+00  -2.4690183431938832e-04 8.6962915204110940e-05 0.0000000000000000e+00  -3.7768465945742171e-04 1.1390920173683306e-05 0.0000000000000000e+00  -4.3344792061949643e-04 9.1230165170090149e-05 0.0000000000000000e+00  -6.4620274477666061e-05 9.7610319411376020e-04 0.0000000000000000e+00  -1.1429124322218528e-03 7.7424812258989717e-04 0.0000000000000000e+00  -1.8239643334041187e-04 1.5330962905475351e-03 0.0000000000000000e+00  -1.4448168804602504e-04 1.3756513173262333e-03 0.0000000000000000e+00  3.5336702112298237e-04 2.3718649290998110e-03 0.0000000000000000e+00  1.3444393796851082e-04 2.0046914532768773e-03 0.0000000000000000e+00  -1.8661901973550756e-04 2.3957202999176420e-03 0.0000000000000000e+00  -1.2039845966458334e-03 1.3167969119485393e-03 0.0000000000000000e+00  -9.3520309508323763e-04 1.7302637880583171e-03 0.0000000000000000e+00  -6.3369450214917225e-04 2.2739647780137366e-03 0.0000000000000000e+00  -5.7472706003066699e-04 2.2179149584911875e-03 0.0000000000000000e+00  1.6385319155971283e-04 2.7072438796745310e-04 0.0000000000000000e+00  2.0684284100516538e-04 3.0701920774190415e-04 0.0000000000000000e+00  2.4459815299172373e-04 3.3656041672989030e-04 0.0000000000000000e+00  2.7341406049596494e-04 3.5007420510439031e-04 0.0000000000000000e+00  2.9251656969401721e-04 3.4289036879127941e-04 0.0000000000000000e+00  2.9625727674795568e-04 3.0889011707395094e-04 0.0000000000000000e+00  2.8844554413125066e-04 2.5907655611518603e-04 0.0000000000000000e+00  2.6509048085996518e-04 2.1736742374877836e-04 0.0000000000000000e+00  2.3129419912252221e-04 1.9411670259901169e-04 0.0000000000000000e+00  1.9973427663194963e-04 1.8106583563683889e-04 0.0000000000000000e+00  1.6802235399013098e-04 1.6576936061935661e-04 0.0000000000000000e+00  1.3971500205192447e-04 1.5104735073296382e-04 0.0000000000000000e+00  1.1399590188229525e-04 1.3446061130096008e-04 0.0000000000000000e+00  9.1890980305498252e-05 1.1951488517132328e-04 0.0000000000000000e+00  7.2953583377537851e-05 1.0933520198125514e-04 0.0000000000000000e+00  6.0026750347216677e-05 1.0488784850556204e-04 0.0000000000000000e+00  5.1123165146389692e-05 1.0768971358325461e-04 0.0000000000000000e+00  4.9101661366816167e-05 1.1784407409989640e-04 0.0000000000000000e+00  5.4651764864599142e-05 1.3573064541875981e-04 0.0000000000000000e+00  6.7782281365494023e-05 1.6011490488333704e-04 0.0000000000000000e+00  9.0183003913594845e-05 1.9231043264088967e-04 0.0000000000000000e+00  0.0000000000000000e+00 0.0000000000000000e+00 0.0000000000000000e+00  -2.3919216664733537e-05 0.0000000000000000e+00 0.0000000000000000e+00  -3.4271905077850947e-05 0.0000000000000000e+00 0.0000000000000000e+00  -4.4449959627299344e-05 0.0000000000000000e+00 0.0000000000000000e+00  -5.2237434916974011e-05 0.0000000000000000e+00 0.0000000000000000e+00  -5.9043323124276925e-05 0.0000000000000000e+00 0.0000000000000000e+00  -6.4861954356646052e-05 0.0000000000000000e+00 0.0000000000000000e+00  -7.0078947280920306e-05 0.0000000000000000e+00 0.0000000000000000e+00  -7.4084453099047855e-05 0.0000000000000000e+00 0.0000000000000000e+00  -7.6680096367835659e-05 0.0000000000000000e+00 0.0000000000000000e+00  -7.9067290430640631e-05 0.0000000000000000e+00 0.0000000000000000e+00  -8.2502278441880884e-05 0.0000000000000000e+00 0.0000000000000000e+00  -8.6815110095993792e-05 0.0000000000000000e+00 0.0000000000000000e+00  -9.2168035905088963e-05 0.0000000000000000e+00 0.0000000000000000e+00  -9.8821535123616420e-05 0.0000000000000000e+00 0.0000000000000000e+00  -1.0997520877815350e-04 0.0000000000000000e+00 0.0000000000000000e+00  -1.2748520684160091e-04 0.0000000000000000e+00 0.0000000000000000e+00  -1.5124299942109436e-04 0.0000000000000000e+00 0.0000000000000000e+00  -1.6833149567466540e-04 0.0000000000000000e+00 0.0000000000000000e+00  -1.8330177417952347e-04 0.0000000000000000e+00 0.0000000000000000e+00  -2.0363756050863238e-04 0.0000000000000000e+00 0.0000000000000000e+00  -2.1693358940109826e-04 0.0000000000000000e+00 0.0000000000000000e+00  -2.2048638642580264e-04 0.0000000000000000e+00 0.0000000000000000e+00  -2.2042477873461674e-04 0.0000000000000000e+00 0.0000000000000000e+00  -2.2041295489129214e-04 0.0000000000000000e+00 0.0000000000000000e+00  -2.2444951880086966e-04 0.0000000000000000e+00 0.0000000000000000e+00  -2.3069257398617126e-04 0.0000000000000000e+00 0.0000000000000000e+00  -2.4330666647733181e-04 0.0000000000000000e+00 0.0000000000000000e+00  -2.6001495363180621e-04 0.0000000000000000e+00 0.0000000000000000e+00  -3.2954065060876062e-05 2.4264625372133249e-03 0.0000000000000000e+00  -1.8039803718404338e-05 2.3524669558307280e-03 0.0000000000000000e+00  7.4521020585537222e-06 2.2755079050337359e-03 0.0000000000000000e+00  4.5828641817354230e-05 2.1971176235082426e-03 0.0000000000000000e+00  9.7322655736482082e-05 2.1159320403282473e-03 0.0000000000000000e+00  1.6293681829475756e-04 2.0325051307174846e-03 0.0000000000000000e+00  2.4255376766221432e-04 1.9464567957465692e-03 0.0000000000000000e+00  3.3643179403103281e-04 1.8529027353771108e-03 0.0000000000000000e+00  4.5291504805409577e-04 1.7506569450600209e-03 0.0000000000000000e+00  6.0120667404953056e-04 1.6401588391298063e-03 0.0000000000000000e+00  7.8364602066809965e-04 1.5371214293312071e-03 0.0000000000000000e+00  9.7386704121717486e-04 1.4595695110636725e-03 0.0000000000000000e+00  1.1049562700307955e-03 1.4204141174916280e-03 0.0000000000000000e+00  1.1116490813327727e-03 1.3956335237453028e-03 0.0000000000000000e+00  1.0073965117002174e-03 1.3403390086228837e-03 0.0000000000000000e+00  8.6861287001984962e-04 1.2343090379520968e-03 0.0000000000000000e+00  7.8368651296625705e-04 1.0898881879970177e-03 0.0000000000000000e+00  7.3497995799801476e-04 9.8416010822927730e-04 0.0000000000000000e+00  6.0499840593049141e-04 8.8828920158809366e-04 0.0000000000000000e+00  4.9092585469838045e-04 7.6431891572279983e-04 0.0000000000000000e+00  4.1034823275926504e-04 6.7097609268997667e-04 0.0000000000000000e+00  3.3007842578476387e-04 5.8952931213757098e-04 0.0000000000000000e+00  2.5401594911892789e-04 5.1230467676923450e-04 0.0000000000000000e+00  1.8644429083097160e-04 4.3571982203000737e-04 0.0000000000000000e+00  1.2960909130432203e-04 3.6062997856747662e-04 0.0000000000000000e+00  8.4696680143958952e-05 2.8487175627510392e-04 0.0000000000000000e+00  5.1862831395407034e-05 2.1195528902748440e-04 0.0000000000000000e+00  2.9249535062868318e-05 1.3851073899267201e-04 0.0000000000000000e+00  1.9001950600523119e-05 7.1079072600179098e-05 0.0000000000000000e+00  -2.8525123982153485e-04 7.6099507845394363e-05 0.0000000000000000e+00  -3.0144244587309725e-04 1.5306458666708759e-04 0.0000000000000000e+00  -3.2878259376053982e-04 2.3235368754592780e-04 0.0000000000000000e+00  -3.6954150567346830e-04 3.1526595385277900e-04 0.0000000000000000e+00  -4.2575570608856207e-04 4.0194930731264980e-04 0.0000000000000000e+00  -5.0095716995983560e-04 4.9372042905932432e-04 0.0000000000000000e+00  -5.9748792748532287e-04 5.8790102430436987e-04 0.0000000000000000e+00  -7.1877098166778458e-04 6.8526827910085338e-04 0.0000000000000000e+00  -8.6332467102241651e-04 7.7528536591291229e-04 0.0000000000000000e+00  -1.0161208116274167e-03 8.4935234659980576e-04 0.0000000000000000e+00  -1.1450094814762061e-03 8.9997774523863691e-04 0.0000000000000000e+00  -1.2186626558735895e-03 9.4296212548261322e-04 0.0000000000000000e+00  -1.2329349804533170e-03 9.9804960165997400e-04 0.0000000000000000e+00  -1.2288752860259153e-03 1.0970318386701356e-03 0.0000000000000000e+00  -1.2679705019850919e-03 1.2057545951172169e-03 0.0000000000000000e+00  -1.1525320171610061e-03 1.2858776017633836e-03 0.0000000000000000e+00  -1.0071016423392285e-03 1.4634963378526251e-03 0.0000000000000000e+00  -9.8968800482391065e-04 1.5956561347543119e-03 0.0000000000000000e+00  -9.4912175294369202e-04 1.6673446568579882e-03 0.0000000000000000e+00  -8.5288716454437810e-04 1.7351041049805667e-03 0.0000000000000000e+00  -7.4195290768331223e-04 1.8147839562187250e-03 0.0000000000000000e+00  -6.4356142939915215e-04 1.8989334062894945e-03 0.0000000000000000e+00  -5.5966863735552159e-04 1.9807111535711051e-03 0.0000000000000000e+00  -4.8973909959810526e-04 2.0613504339603915e-03 0.0000000000000000e+00  -4.3510528736568802e-04 2.1405371652806386e-03 0.0000000000000000e+00  -3.9426178890987652e-04 2.2161898501863874e-03 0.0000000000000000e+00  -3.6428703610635855e-04 2.2893311424852236e-03 0.0000000000000000e+00  -3.4390144061106611e-04 2.3604721782411122e-03 0.0000000000000000e+00  -3.3149804124090181e-04 2.4302441987203429e-03 0.0000000000000000e+00  -3.0860949609968634e-04 2.5000000000000001e-03 0.0000000000000000e+00  -2.9153258391847732e-04 2.5000000000000001e-03 0.0000000000000000e+00  -2.7760646105986402e-04 2.5000000000000001e-03 0.0000000000000000e+00  -2.6624754489630950e-04 2.5000000000000001e-03 0.0000000000000000e+00  -2.5659536670040884e-04 2.5000000000000001e-03 0.0000000000000000e+00  -2.4836704985338064e-04 2.5000000000000001e-03 0.0000000000000000e+00  -2.4182765355802054e-04 2.5000000000000001e-03 0.0000000000000000e+00  -2.3729838821329885e-04 2.5000000000000001e-03 0.0000000000000000e+00  -2.3415583120166522e-04 2.5000000000000001e-03 0.0000000000000000e+00  -2.3235170194903652e-04 2.5000000000000001e-03 0.0000000000000000e+00  -2.2946764407256198e-04 2.5000000000000001e-03 0.0000000000000000e+00  -2.2554586535522016e-04 2.5000000000000001e-03 0.0000000000000000e+00  -2.2029566222057275e-04 2.5000000000000001e-03 0.0000000000000000e+00  -2.1438472494855946e-04 2.5000000000000001e-03 0.0000000000000000e+00  -2.0836637963651011e-04 2.5000000000000001e-03 0.0000000000000000e+00  -2.0054739365408270e-04 2.5000000000000001e-03 0.0000000000000000e+00  -1.8990431078390210e-04 2.5000000000000001e-03 0.0000000000000000e+00  -1.7420335174302758e-04 2.5000000000000001e-03 0.0000000000000000e+00  -1.5556773324019624e-04 2.5000000000000001e-03 0.0000000000000000e+00  -1.3964324422624646e-04 2.5000000000000001e-03 0.0000000000000000e+00  -1.2999173550464494e-04 2.5000000000000001e-03 0.0000000000000000e+00  -1.2123261801849369e-04 2.5000000000000001e-03 0.0000000000000000e+00  -1.1016365441907267e-04 2.5000000000000001e-03 0.0000000000000000e+00  -1.0197965718469252e-04 2.5000000000000001e-03 0.0000000000000000e+00  -9.7849909890471146e-05 2.5000000000000001e-03 0.0000000000000000e+00  -9.2499249619445526e-05 2.5000000000000001e-03 0.0000000000000000e+00  -8.5442674477562207e-05 2.5000000000000001e-03 0.0000000000000000e+00  -7.3837642898088489e-05 2.5000000000000001e-03 0.0000000000000000e+00  -5.7241967435066074e-05 2.5000000000000001e-03 0.0000000000000000e+00  -4.4154506284936921e-04 6.3715433571341574e-04 0.0000000000000000e+00  -4.1548451391492259e-04 6.7513922283943869e-04 0.0000000000000000e+00  -3.8582625580339325e-04 7.1282611828980835e-04 0.0000000000000000e+00  -3.5403712443481279e-04 7.4840392812428362e-04 0.0000000000000000e+00  -3.2062030392294755e-04 7.8375747137282223e-04 0.0000000000000000e+00  -2.8623708079613275e-04 8.1664257808608661e-04 0.0000000000000000e+00  -2.5242994143638374e-04 8.4637588395199679e-04 0.0000000000000000e+00  -2.2100929063366913e-04 8.7264977605638579e-04 0.0000000000000000e+00  -1.9252694168868931e-04 8.9454935001277572e-04 0.0000000000000000e+00  -1.6916790478357902e-04 9.1170849689901760e-04 0.0000000000000000e+00  -1.5126451033611630e-04 9.2455078051085354e-04 0.0000000000000000e+00  -1.3966339878322370e-04 9.3349560706388322e-04 0.0000000000000000e+00  -1.3476418134263820e-04 9.3904923052826159e-04 0.0000000000000000e+00  -1.3632208365692720e-04 9.4254542120782343e-04 0.0000000000000000e+00  -1.4444259911648415e-04 9.4436267237027233e-04 0.0000000000000000e+00  -1.5839859820764967e-04 9.4755133847344115e-04 0.0000000000000000e+00  -1.7584905967829771e-04 9.5423788538482387e-04 0.0000000000000000e+00  -1.9398126085063197e-04 9.6560788559279349e-04 0.0000000000000000e+00  -2.1127862218327822e-04 9.8250882657776499e-04 0.0000000000000000e+00  -2.2564133064337840e-04 1.0035482948470189e-03 0.0000000000000000e+00  -2.3803683554766457e-04 1.0291807058111786e-03 0.0000000000000000e+00  -2.4736516352984850e-04 1.0584713737222481e-03 0.0000000000000000e+00  -2.5363722342246193e-04 1.0907033899511670e-03 0.0000000000000000e+00  -2.5698754571669316e-04 1.1250739629205218e-03 0.0000000000000000e+00  -2.5750413866053366e-04 1.1605155127994515e-03 0.0000000000000000e+00  -2.5532862946512676e-04 1.1958161653705896e-03 0.0000000000000000e+00  -2.5068592008963258e-04 1.2299410101006129e-03 0.0000000000000000e+00  -2.4458451799054136e-04 1.2617623285004779e-03 0.0000000000000000e+00  -2.3716654312865197e-04 1.2911507523018515e-03 0.0000000000000000e+00  -2.2873595794874391e-04 1.3177026618003164e-03 0.0000000000000000e+00  -2.1950624055189883e-04 1.3415837701912993e-03 0.0000000000000000e+00  -2.0894213354778881e-04 1.3632642321976416e-03 0.0000000000000000e+00  -1.9612824135310200e-04 1.3824479091830274e-03 0.0000000000000000e+00  -1.7921624706134805e-04 1.3984288098264470e-03 0.0000000000000000e+00  -1.5629809796560614e-04 1.4086975420982820e-03 0.0000000000000000e+00  -1.2685882796714218e-04 1.4104842475992231e-03 0.0000000000000000e+00  -9.1268558861694533e-05 1.4022989158658120e-03 0.0000000000000000e+00  -4.9425192817498508e-05 1.3835933307028642e-03 0.0000000000000000e+00  -1.6168887000981764e-06 1.3539132839639559e-03 0.0000000000000000e+00  5.1662086888119232e-05 1.3127606397031360e-03 0.0000000000000000e+00  1.0946202642784706e-04 1.2601579403404225e-03 0.0000000000000000e+00  1.6977113486910209e-04 1.1960042975917909e-03 0.0000000000000000e+00  2.2911003254447854e-04 1.1228362649879770e-03 0.0000000000000000e+00  2.8633003299498663e-04 1.0428567575287611e-03 0.0000000000000000e+00  3.3809275757471229e-04 9.5928779532203931e-04 0.0000000000000000e+00  3.8068437514671974e-04 8.7430302228815265e-04 0.0000000000000000e+00  4.1584203116104752e-04 7.9478442957303251e-04 0.0000000000000000e+00  4.4253524292714886e-04 7.1954733129352133e-04 0.0000000000000000e+00  4.6126720396008267e-04 6.5081951258587443e-04 0.0000000000000000e+00  4.7346836767706073e-04 5.8897117406116976e-04 0.0000000000000000e+00  4.7961073225920249e-04 5.3266052874819986e-04 0.0000000000000000e+00  4.8024162791923398e-04 4.8159222911776082e-04 0.0000000000000000e+00  4.7462503902801514e-04 4.3397574344703377e-04 0.0000000000000000e+00  4.6216104364601654e-04 3.9024211958857283e-04 0.0000000000000000e+00  4.4287734532986886e-04 3.5034510195324848e-04 0.0000000000000000e+00  4.1722014138705998e-04 3.1431886669778110e-04 0.0000000000000000e+00  3.8726634701164006e-04 2.8288553807165600e-04 0.0000000000000000e+00  3.5546142510982734e-04 2.5495821981020867e-04 0.0000000000000000e+00  3.2273657361171814e-04 2.2829295536218948e-04 0.0000000000000000e+00  2.8904817777143031e-04 2.0212387558453222e-04 0.0000000000000000e+00  2.5314339530350233e-04 1.7498431026766349e-04 0.0000000000000000e+00  2.1385194706870667e-04 1.4856799122539839e-04 0.0000000000000000e+00  1.7273281029341501e-04 1.2578956474486132e-04 0.0000000000000000e+00  1.3393245254374449e-04 1.0751590001144847e-04 0.0000000000000000e+00  1.0065411770271006e-04 9.4093477248814261e-05 0.0000000000000000e+00  7.4847598061809166e-05 8.3432011891230564e-05 0.0000000000000000e+00  5.5531593073270623e-05 7.3932643440957778e-05 0.0000000000000000e+00  4.0775127595285068e-05 6.4480530425906234e-05 0.0000000000000000e+00  2.8713825161322756e-05 5.5021751573849387e-05 0.0000000000000000e+00  1.8078943782054168e-05 4.5724930269224051e-05 0.0000000000000000e+00  8.2424634443596352e-06 3.6988741745359631e-05 0.0000000000000000e+00  -1.0713179926546024e-06 2.9130424376364596e-05 0.0000000000000000e+00  -9.8667657389884834e-06 2.2114414959610065e-05 0.0000000000000000e+00  -1.8272701369021279e-05 1.6169462002294356e-05 0.0000000000000000e+00  -2.6113591496833828e-05 1.1314042064288998e-05 0.0000000000000000e+00  -3.3396701868170974e-05 7.2966091369471385e-06 0.0000000000000000e+00  -4.0132946542900051e-05 4.3247968109222026e-06 0.0000000000000000e+00  -4.6220475141564116e-05 2.0561277283295842e-06 0.0000000000000000e+00  -5.1772751302398581e-05 5.3010390243135363e-07 0.0000000000000000e+00  -5.6820309162105626e-05 -3.9327470782711619e-07 0.0000000000000000e+00  -6.1276026801502126e-05 -8.5222439623493608e-07 0.0000000000000000e+00  -6.5355658832910198e-05 -9.4422535990689158e-07 0.0000000000000000e+00  -6.8992221389119256e-05 -7.5556025378462805e-07 0.0000000000000000e+00  -7.2308615527945033e-05 -4.2435012539404056e-07 0.0000000000000000e+00  -7.5357928633186112e-05 1.3129248256161181e-08 0.0000000000000000e+00  -7.8255262844755945e-05 4.7252309191732613e-07 0.0000000000000000e+00  -8.0988319131916658e-05 9.5972001694901960e-07 0.0000000000000000e+00  -8.3649279880774547e-05 1.3831711459342930e-06 0.0000000000000000e+00  -8.6325939524065464e-05 1.8385307237093774e-06 0.0000000000000000e+00  -8.8971405154492583e-05 2.3082389333577815e-06 0.0000000000000000e+00  -9.1707162660634211e-05 2.8700729569171986e-06 0.0000000000000000e+00  -9.4452030457150565e-05 3.5742022901309382e-06 0.0000000000000000e+00  -9.7220422650159616e-05 4.5087584289965752e-06 0.0000000000000000e+00  -1.0006851343128435e-04 5.8527089348460854e-06 0.0000000000000000e+00  -1.0272908955790009e-04 7.5892157562131974e-06 0.0000000000000000e+00  -1.0528130478413922e-04 9.8740850859191324e-06 0.0000000000000000e+00  -1.0747625297905186e-04 1.2696765285724485e-05 0.0000000000000000e+00  -1.0932260504063453e-04 1.6016998363257029e-05 0.0000000000000000e+00  -1.1085234346253146e-04 1.9790360672120390e-05 0.0000000000000000e+00  -1.1196809343215039e-04 2.4033847020244788e-05 0.0000000000000000e+00  -1.1315488917264812e-04 2.8377747366095923e-05 0.0000000000000000e+00  -1.1509445084235658e-04 3.3028143381278790e-05 0.0000000000000000e+00  -1.1923185358047862e-04 3.8006674413678883e-05 0.0000000000000000e+00  -1.2686685152030566e-04 4.4682306365933602e-05 0.0000000000000000e+00  -1.4036991049528087e-04 5.4072694983461642e-05 0.0000000000000000e+00  -1.5913640847722808e-04 6.8950182695441751e-05 0.0000000000000000e+00  -1.8334987065561276e-04 8.9413167227206874e-05 0.0000000000000000e+00  -2.0972973137940896e-04 1.1526531250294191e-04 0.0000000000000000e+00  -2.3726952146949047e-04 1.4358444742740357e-04 0.0000000000000000e+00  -2.6642777516090553e-04 1.7234084131960420e-04 0.0000000000000000e+00  -2.9904801735588447e-04 2.0148075699505377e-04 0.0000000000000000e+00  -3.3606428267888639e-04 2.3301993404049173e-04 0.0000000000000000e+00  -3.7607426391707326e-04 2.6926695808478099e-04 0.0000000000000000e+00  -4.1531862221809874e-04 3.1110225447895522e-04 0.0000000000000000e+00  -4.4925818627827011e-04 3.5835147912813731e-04 0.0000000000000000e+00  -4.7386555102229747e-04 4.0832965669658906e-04 0.0000000000000000e+00  -4.8725037143145449e-04 4.5880369021811322e-04 0.0000000000000000e+00  -4.8869761219266707e-04 5.0817099149579894e-04 0.0000000000000000e+00  -4.8032836009662128e-04 5.5362846778216372e-04 0.0000000000000000e+00  4.8755409343577812e-04 3.7440145059715915e-04 0.0000000000000000e+00  4.8066485731174981e-04 3.6717860714168693e-04 0.0000000000000000e+00  4.6277559034642540e-04 3.5620134768940212e-04 0.0000000000000000e+00  4.3703347694146302e-04 3.453