<?xml version="1.0"?>
<VTKFile type="UnstructuredGrid"  version="0.1"  >
<UnstructuredGrid>
<Piece  NumberOfPoints="3879" NumberOfCells="6881">
<Points>
<DataArray  type="Float64"  NumberOfComponents="3"  format="ascii">0.207524190028372 0.2122422770132111 0  0 0 0  1 0 0  0 1 0  1 1 0  0.6249674373315121 0.2590146544375328 0  0.204663578893616 0.322657230836866 0  0.09605577522599912 0.4018360776629776 0  0.671351124618251 0.08738059142081528 0  0.7842102907526436 0.1666439122351055 0  0.8512483166984784 0.1985391006160637 0  0.6418797837909295 0.4423157172830166 0  0.9292488447973215 0.3869277868069776 0  0.3197896119137055 0.5509935221980964 0  0.3979283685568406 0.5079871620336583 0  0.1572503457993085 0.7345153245035532 0  0.3032914287999163 0.7872981443735918 0  0.3549464687598876 0.8870324161721976 0  0.9691791685505482 0.5159450047798622 0  0.9447564590470373 0.6146164845729313 0  0.7687603548175107 0.7176858127488035 0  0.8926159261971183 0.7422924070424508 0  0.2061587782631535 0.2217389244366831 0  0.2021731605082994 0.2304662099646423 0  0.1958902278109265 0.2377171008267789 0  0.1878189860121365 0.2429041729681512 0  0.1786133191209442 0.2456072006525708 0  0.1690190155206647 0.2456072006525708 0  0.1598133486294724 0.2429041729681512 0  0.1517421068306824 0.2377171008267789 0  0.1454591741333096 0.2304662099646422 0  0.1414735563784554 0.221738924436683 0  0.1401081446132369 0.212242277013211 0  0.1414735563784555 0.202745629589739 0  0.1454591741333096 0.1940183440617798 0  0.1517421068306825 0.1867674531996431 0  0.1598133486294725 0.1815803810582709 0  0.1690190155206649 0.1788773533738513 0  0.1786133191209443 0.1788773533738514 0  0.1878189860121367 0.181580381058271 0  0.1958902278109266 0.1867674531996433 0  0.2021731605082994 0.19401834406178 0  0.2061587782631535 0.2027456295897391 0  0.03333333333333333 0 0  0.06666666666666667 0 0  0.1 0 0  0.1333333333333333 0 0  0.1666666666666667 0 0  0.2 0 0  0.2333333333333333 0 0  0.2666666666666667 0 0  0.3 0 0  0.3333333333333333 0 0  0.3666666666666666 0 0  0.4 0 0  0.4333333333333333 0 0  0.4666666666666667 0 0  0.5 0 0  0.5333333333333333 0 0  0.5666666666666667 0 0  0.6 0 0  0.6333333333333333 0 0  0.6666666666666666 0 0  0.7 0 0  0.7333333333333333 0 0  0.7666666666666667 0 0  0.8 0 0  0.8333333333333334 0 0  0.8666666666666667 0 0  0.9 0 0  0.9333333333333333 0 0  0.9666666666666667 0 0  0 0.9666666666666667 0  0 0.9333333333333333 0  0 0.9 0  0 0.8666666666666667 0  0 0.8333333333333334 0  0 0.8 0  0 0.7666666666666666 0  0 0.7333333333333334 0  0 0.7 0  0 0.6666666666666667 0  0 0.6333333333333333 0  0 0.6 0  0 0.5666666666666667 0  0 0.5333333333333333 0  0 0.5 0  0 0.4666666666666667 0  0 0.4333333333333333 0  0 0.4 0  0 0.3666666666666667 0  0 0.3333333333333334 0  0 0.3 0  0 0.2666666666666667 0  0 0.2333333333333333 0  0 0.2 0  0 0.1666666666666666 0  0 0.1333333333333333 0  0 0.09999999999999998 0  0 0.06666666666666665 0  0 0.03333333333333333 0  1 0.03333333333333333 0  1 0.06666666666666667 0  1 0.1 0  1 0.1333333333333333 0  1 0.1666666666666667 0  1 0.2 0  1 0.2333333333333333 0  1 0.2666666666666667 0  1 0.3 0  1 0.3333333333333333 0  1 0.3666666666666666 0  1 0.4 0  1 0.4333333333333333 0  1 0.4666666666666667 0  1 0.5 0  1 0.5333333333333333 0  1 0.5666666666666667 0  1 0.6 0  1 0.6333333333333333 0  1 0.6666666666666666 0  1 0.7 0  1 0.7333333333333333 0  1 0.7666666666666667 0  1 0.8 0  1 0.8333333333333334 0  1 0.8666666666666667 0  1 0.9 0  1 0.9333333333333333 0  1 0.9666666666666667 0  0.9666666666666667 1 0  0.9333333333333333 1 0  0.9 1 0  0.8666666666666667 1 0  0.8333333333333334 1 0  0.8 1 0  0.7666666666666666 1 0  0.7333333333333334 1 0  0.7 1 0  0.6666666666666667 1 0  0.6333333333333333 1 0  0.6 1 0  0.5666666666666667 1 0  0.5333333333333333 1 0  0.5 1 0  0.4666666666666667 1 0  0.4333333333333333 1 0  0.4 1 0  0.3666666666666667 1 0  0.3333333333333334 1 0  0.3 1 0  0.2666666666666667 1 0  0.2333333333333333 1 0  0.2 1 0  0.1666666666666666 1 0  0.1333333333333333 1 0  0.09999999999999998 1 0  0.06666666666666665 1 0  0.03333333333333333 1 0  0.6247072676344306 0.2689501343248463 0  0.6239274716502419 0.2788583817523955 0  0.6226301867455355 0.2887122389026952 0  0.6208189686880621 0.2984846970382296 0  0.6184987819006211 0.3081489705305245 0  0.6156759858539226 0.317678570277693 0  0.6123583176357204 0.3270473763092224 0  0.6085548707439923 0.3362297093789981 0  0.6042760701622942 0.3452004013503318 0  0.5995336437856049 0.3539348641800754 0  0.5943405902749808 0.3624091573127375 0  0.5887111434291297 0.3706000532998825 0  0.582660733170558 0.3784851014649517 0  0.5762059432532257 0.3860426894390078 0  0.5693644658076293 0.3932521023987353 0  0.5621550528479018 0.4000935798443317 0  0.5545974648738458 0.4065483697616639 0  0.5467124167087765 0.4125987800202355 0  0.5385215207216315 0.4182282268660866 0  0.5300472275889694 0.4234212803767108 0  0.5213127647592257 0.4281637067534002 0  0.512342072787892 0.4324425073350981 0  0.5031597397181163 0.4362459542268262 0  0.493790933686587 0.4395636224450283 0  0.4842613339394185 0.4423864184917269 0  0.4745970604471235 0.4447066052791678 0  0.4648246023115891 0.4465178233366412 0  0.4549707451612894 0.4478151082413475 0  0.4450624977337403 0.4485949042255363 0  0.4351270178464268 0.4488550739226177 0  0.4251915379591132 0.4485949042255363 0  0.4152832905315641 0.4478151082413475 0  0.4054294333812644 0.4465178233366411 0  0.39565697524573 0.4447066052791677 0  0.385992701753435 0.4423864184917267 0  0.3764631020062665 0.4395636224450281 0  0.3670942959747371 0.4362459542268259 0  0.3579119629049616 0.4324425073350978 0  0.3489412709336278 0.4281637067533998 0  0.3402068081038843 0.4234212803767103 0  0.3317325149712221 0.4182282268660862 0  0.3235416189840771 0.412598780020235 0  0.3156565708190078 0.4065483697616634 0  0.3080989828449519 0.4000935798443311 0  0.3008895698852244 0.3932521023987346 0  0.2940480924396279 0.3860426894390071 0  0.2875933025222958 0.3784851014649511 0  0.2815428922637242 0.3706000532998818 0  0.2759134454178731 0.3624091573127368 0  0.2707203919072489 0.3539348641800746 0  0.2659779655305596 0.3452004013503309 0  0.2616991649488616 0.3362297093789972 0  0.2578957180571336 0.3270473763092215 0  0.2545780498389315 0.3176785702776921 0  0.251755253792233 0.3081489705305236 0  0.249435067004792 0.2984846970382286 0  0.2476238489473186 0.2887122389026941 0  0.2463265640426123 0.2788583817523945 0  0.2455467680584236 0.2689501343248454 0  0.2452865983613423 0.2590146544375318 0  0.2455467680584237 0.2490791745502182 0  0.2463265640426126 0.2391709271226692 0  0.247623848947319 0.2293170699723696 0  0.2494350670047924 0.2195446118368351 0  0.2517552537922335 0.2098803383445402 0  0.2545780498389321 0.2003507385973717 0  0.2578957180571343 0.1909819325658423 0  0.2616991649488624 0.1817995994960667 0  0.2659779655305604 0.172828907524733 0  0.2707203919072498 0.1640944446949895 0  0.2759134454178741 0.1556201515623273 0  0.2815428922637251 0.1474292555751825 0  0.2875933025222969 0.1395442074101132 0  0.2940480924396291 0.1319866194360571 0  0.3008895698852256 0.1247772064763297 0  0.3080989828449531 0.1179357290307334 0  0.3156565708190092 0.1114809391134012 0  0.3235416189840785 0.1054305288548295 0  0.3317325149712236 0.09980108200897844 0  0.3402068081038856 0.0946080284983544 0  0.3489412709336291 0.08986560212166514 0  0.357911962904963 0.08558680153996717 0  0.3670942959747386 0.08178335464823916 0  0.3764631020062678 0.07846568643003712 0  0.3859927017534364 0.0756428903833386 0  0.3956569752457313 0.0733227035958976 0  0.4054294333812659 0.07151148553842429 0  0.4152832905315654 0.07021420063371797 0  0.4251915379591144 0.0694344046495293 0  0.435127017846428 0.0691742349524479 0  0.4450624977337415 0.06943440464952938 0  0.4549707451612905 0.07021420063371814 0  0.4648246023115901 0.07151148553842454 0  0.4745970604471245 0.07332270359589793 0  0.4842613339394195 0.07564289038333902 0  0.4937909336865879 0.07846568643003757 0  0.5031597397181173 0.0817833546482398 0  0.5123420727878929 0.08558680153996781 0  0.5213127647592265 0.08986560212166581 0  0.53004722758897 0.0946080284983552 0  0.5385215207216321 0.09980108200897933 0  0.5467124167087771 0.1054305288548305 0  0.5545974648738462 0.1114809391134021 0  0.5621550528479023 0.1179357290307343 0  0.5693644658076298 0.1247772064763308 0  0.576205943253226 0.1319866194360582 0  0.5826607331705582 0.1395442074101142 0  0.5887111434291299 0.1474292555751835 0  0.594340590274981 0.1556201515623285 0  0.5995336437856051 0.1640944446949906 0  0.6042760701622945 0.172828907524734 0  0.6085548707439925 0.1817995994960678 0  0.6123583176357205 0.1909819325658435 0  0.6156759858539227 0.2003507385973728 0  0.6184987819006211 0.2098803383445412 0  0.6208189686880622 0.2195446118368362 0  0.6226301867455355 0.2293170699723706 0  0.6239274716502419 0.2391709271226702 0  0.6247072676344306 0.2490791745502192 0  0.203885768735257 0.3325402459548524 0  0.2015714905276826 0.3421799084407872 0  0.1977777294810124 0.3513388578120612 0  0.1925979005829864 0.3597915703383434 0  0.1861595484119405 0.3673299121842922 0  0.1786212065659918 0.373768264355338 0  0.1701684940397096 0.378948093253364 0  0.1610095446684356 0.3827418543000342 0  0.1513698821825007 0.3850561325076086 0  0.1414868670645144 0.3858339426659677 0  0.1316038519465281 0.3850561325076086 0  0.1219641894605933 0.3827418543000343 0  0.1128052400893193 0.378948093253364 0  0.1043525275630371 0.3737682643553381 0  0.09681418571708833 0.3673299121842922 0  0.09037583354604248 0.3597915703383434 0  0.08519600464801645 0.3513388578120612 0  0.08140224360134621 0.3421799084407872 0  0.07908796539377183 0.3325402459548523 0  0.07831015523541281 0.3226572308368659 0  0.07908796539377186 0.3127742157188796 0  0.08140224360134626 0.3031345532329447 0  0.08519600464801655 0.2939756038616707 0  0.0903758335460426 0.2855228913353884 0  0.0968141857
[...]
<PointData  Vectors="$u$"> 
<DataArray  type="Float64"  Name="$u$"  NumberOfComponents="3" format="ascii">1.8383694442964665e-04 3.4564890638642533e-04 0.0000000000000000e+00  0.0000000000000000e+00 0.0000000000000000e+00 0.0000000000000000e+00  -4.2097892427615981e-04 0.0000000000000000e+00 0.0000000000000000e+00  -5.7618675206892083e-05 3.7499999999999999e-03 0.0000000000000000e+00  -4.9263436709487472e-04 3.7499999999999999e-03 0.0000000000000000e+00  -6.9683607879979248e-04 8.9644774678801855e-04 0.0000000000000000e+00  7.2480252502477938e-04 5.6361159956762547e-04 0.0000000000000000e+00  6.2770024905906127e-04 1.0634642328860629e-03 0.0000000000000000e+00  -3.7086504614083622e-04 1.2948830172278535e-04 0.0000000000000000e+00  -5.6666042383473822e-04 1.6691598356209974e-05 0.0000000000000000e+00  -6.5055290438068990e-04 1.3597875407340927e-04 0.0000000000000000e+00  -9.7208064514529266e-05 1.4652275656671107e-03 0.0000000000000000e+00  -1.7171721697300248e-03 1.1588640238254884e-03 0.0000000000000000e+00  -2.7423648573237589e-04 2.2996819730738980e-03 0.0000000000000000e+00  -2.1681566032530041e-04 2.0635183528211905e-03 0.0000000000000000e+00  5.3008207910290009e-04 3.5585423617586552e-03 0.0000000000000000e+00  2.0063478263532920e-04 3.0060333961483541e-03 0.0000000000000000e+00  -2.8180157529337677e-04 3.5940195293632706e-03 0.0000000000000000e+00  -1.8155139951457884e-03 1.9771365901335809e-03 0.0000000000000000e+00  -1.4053777425169923e-03 2.5972927794491786e-03 0.0000000000000000e+00  -9.5164824142591000e-04 3.4117809738333721e-03 0.0000000000000000e+00  -8.6320088671822137e-04 3.3281350874997174e-03 0.0000000000000000e+00  2.4535350489022671e-04 4.0663983520201620e-04 0.0000000000000000e+00  3.0987679344464468e-04 4.6102692673593741e-04 0.0000000000000000e+00  3.6662567066648500e-04 5.0588403581206670e-04 0.0000000000000000e+00  4.0999340680900683e-04 5.2551898368301091e-04 0.0000000000000000e+00  4.4008651152530271e-04 5.1515158213525476e-04 0.0000000000000000e+00  4.4534029308733068e-04 4.6346751126870778e-04 0.0000000000000000e+00  4.3380199450545107e-04 3.8829314092622208e-04 0.0000000000000000e+00  3.9868515446789266e-04 3.2502921952338689e-04 0.0000000000000000e+00  3.4707695799483866e-04 2.8976429132747226e-04 0.0000000000000000e+00  2.9993293573238935e-04 2.7078667944643972e-04 0.0000000000000000e+00  2.5214110179342509e-04 2.4742966422871589e-04 0.0000000000000000e+00  2.0958356440624315e-04 2.2586947252504491e-04 0.0000000000000000e+00  1.7099666201898005e-04 2.0097745849331460e-04 0.0000000000000000e+00  1.3794385127948572e-04 1.7849251525414822e-04 0.0000000000000000e+00  1.0919341151193175e-04 1.6338208429095147e-04 0.0000000000000000e+00  8.9756399433103888e-05 1.5681438915887016e-04 0.0000000000000000e+00  7.6235354626281050e-05 1.6098699159659681e-04 0.0000000000000000e+00  7.2964173553164544e-05 1.7629448252243991e-04 0.0000000000000000e+00  8.1521382068135980e-05 2.0304438805781360e-04 0.0000000000000000e+00  1.0068258595093463e-04 2.3967285826156958e-04 0.0000000000000000e+00  1.3516566117993716e-04 2.8830625652671063e-04 0.0000000000000000e+00  0.0000000000000000e+00 0.0000000000000000e+00 0.0000000000000000e+00  -3.6772836567479135e-05 0.0000000000000000e+00 0.0000000000000000e+00  -5.1414499111049114e-05 0.0000000000000000e+00 0.0000000000000000e+00  -6.7072258839279855e-05 0.0000000000000000e+00 0.0000000000000000e+00  -7.8431887127864558e-05 0.0000000000000000e+00 0.0000000000000000e+00  -8.8695840613406930e-05 0.0000000000000000e+00 0.0000000000000000e+00  -9.7357831289601103e-05 0.0000000000000000e+00 0.0000000000000000e+00  -1.0521829315619636e-04 0.0000000000000000e+00 0.0000000000000000e+00  -1.1114689240192017e-04 0.0000000000000000e+00 0.0000000000000000e+00  -1.1505387344708770e-04 0.0000000000000000e+00 0.0000000000000000e+00  -1.1861491071820633e-04 0.0000000000000000e+00 0.0000000000000000e+00  -1.2377663573707803e-04 0.0000000000000000e+00 0.0000000000000000e+00  -1.3024462907922595e-04 0.0000000000000000e+00 0.0000000000000000e+00  -1.3823718924449376e-04 0.0000000000000000e+00 0.0000000000000000e+00  -1.4824090961510072e-04 0.0000000000000000e+00 0.0000000000000000e+00  -1.6490625998219412e-04 0.0000000000000000e+00 0.0000000000000000e+00  -1.9132254443679828e-04 0.0000000000000000e+00 0.0000000000000000e+00  -2.2702828417278613e-04 0.0000000000000000e+00 0.0000000000000000e+00  -2.5274308507236754e-04 0.0000000000000000e+00 0.0000000000000000e+00  -2.7509465262271865e-04 0.0000000000000000e+00 0.0000000000000000e+00  -3.0573011804040589e-04 0.0000000000000000e+00 0.0000000000000000e+00  -3.2577671568834426e-04 0.0000000000000000e+00 0.0000000000000000e+00  -3.3104956257273333e-04 0.0000000000000000e+00 0.0000000000000000e+00  -3.3108926201915812e-04 0.0000000000000000e+00 0.0000000000000000e+00  -3.3098128685226616e-04 0.0000000000000000e+00 0.0000000000000000e+00  -3.3708648032966662e-04 0.0000000000000000e+00 0.0000000000000000e+00  -3.4638846865977092e-04 0.0000000000000000e+00 0.0000000000000000e+00  -3.6522370389098648e-04 0.0000000000000000e+00 0.0000000000000000e+00  -3.9023965313918706e-04 0.0000000000000000e+00 0.0000000000000000e+00  -5.0814268051710126e-05 3.6397237388126340e-03 0.0000000000000000e+00  -2.8314101826904066e-05 3.5287571975856987e-03 0.0000000000000000e+00  9.8267973574654312e-06 3.4134119161775226e-03 0.0000000000000000e+00  6.7478428577021887e-05 3.2957625529764756e-03 0.0000000000000000e+00  1.4468093426790249e-04 3.1741079533491889e-03 0.0000000000000000e+00  2.4324666717964386e-04 3.0487827854460245e-03 0.0000000000000000e+00  3.6277506828043428e-04 2.9200054067921649e-03 0.0000000000000000e+00  5.0359455764039686e-04 2.7793871337112195e-03 0.0000000000000000e+00  6.7861901000564539e-04 2.6263008432811804e-03 0.0000000000000000e+00  9.0097081317926932e-04 2.4601627285458570e-03 0.0000000000000000e+00  1.1755559696747812e-03 2.3046973822937666e-03 0.0000000000000000e+00  1.4616507976701739e-03 2.1896971745836865e-03 0.0000000000000000e+00  1.6590715313078870e-03 2.1301507637927499e-03 0.0000000000000000e+00  1.6694117664162508e-03 2.0943772731779864e-03 0.0000000000000000e+00  1.5129030649497011e-03 2.0116648327727117e-03 0.0000000000000000e+00  1.3037627362639096e-03 1.8531762665776794e-03 0.0000000000000000e+00  1.1779166765452974e-03 1.6329626904691011e-03 0.0000000000000000e+00  1.1070234154866535e-03 1.4768016065095228e-03 0.0000000000000000e+00  9.1009583560722326e-04 1.3341744319492097e-03 0.0000000000000000e+00  7.3774370783591674e-04 1.1466215818871359e-03 0.0000000000000000e+00  6.1678159510818956e-04 1.0067506661573231e-03 0.0000000000000000e+00  4.9573714858016293e-04 8.8454602264373980e-04 0.0000000000000000e+00  3.8136419351935129e-04 7.6874653744436468e-04 0.0000000000000000e+00  2.7963726761475214e-04 6.5376105648124827e-04 0.0000000000000000e+00  1.9425133908529589e-04 5.4103372468262642e-04 0.0000000000000000e+00  1.2678852323455713e-04 4.2715903828267725e-04 0.0000000000000000e+00  7.7472358899203779e-05 3.1817159524225106e-04 0.0000000000000000e+00  4.3464732746406949e-05 2.0728272035846839e-04 0.0000000000000000e+00  2.8526866524752151e-05 1.0691599126950452e-04 0.0000000000000000e+00  -4.2802927932984763e-04 1.1391315416378978e-04 0.0000000000000000e+00  -4.5236753550694083e-04 2.2943466617209000e-04 0.0000000000000000e+00  -4.9336047782514076e-04 3.4816849465488405e-04 0.0000000000000000e+00  -5.5444708123644803e-04 4.7231914536461880e-04 0.0000000000000000e+00  -6.3875541680180332e-04 6.0248232151818783e-04 0.0000000000000000e+00  -7.5173092651814317e-04 7.4007648104181152e-04 0.0000000000000000e+00  -8.9644661605504613e-04 8.8115286070812484e-04 0.0000000000000000e+00  -1.0785813219754711e-03 1.0274754441268088e-03 0.0000000000000000e+00  -1.2957022773175679e-03 1.1625910440512478e-03 0.0000000000000000e+00  -1.5253727920047212e-03 1.2738893338003028e-03 0.0000000000000000e+00  -1.7199169770038046e-03 1.3500710709750134e-03 0.0000000000000000e+00  -1.8312393415866862e-03 1.4132135077490604e-03 0.0000000000000000e+00  -1.8530321574274935e-03 1.4956263622179602e-03 0.0000000000000000e+00  -1.8474236937522195e-03 1.6460678050057244e-03 0.0000000000000000e+00  -1.9123008182955594e-03 1.8103690459543595e-03 0.0000000000000000e+00  -1.7353250324405741e-03 1.9255560657790427e-03 0.0000000000000000e+00  -1.5128415148437683e-03 2.1963682794034099e-03 0.0000000000000000e+00  -1.4872866750115397e-03 2.3950916782237270e-03 0.0000000000000000e+00  -1.4257822109384139e-03 2.5020980103754127e-03 0.0000000000000000e+00  -1.2810634903268167e-03 2.6033827417968570e-03 0.0000000000000000e+00  -1.1140743042726004e-03 2.7225724407300323e-03 0.0000000000000000e+00  -9.6621914264397198e-04 2.8493757307004050e-03 0.0000000000000000e+00  -8.4045291263319590e-04 2.9719185001886870e-03 0.0000000000000000e+00  -7.3548877443144396e-04 3.0926837318393441e-03 0.0000000000000000e+00  -6.5349899163739792e-04 3.2114578039678350e-03 0.0000000000000000e+00  -5.9234438931766021e-04 3.3249433912685197e-03 0.0000000000000000e+00  -5.4747078750607553e-04 3.4344934784802817e-03 0.0000000000000000e+00  -5.1692309674086214e-04 3.5409264646682503e-03 0.0000000000000000e+00  -4.9828082957975790e-04 3.6455964800412347e-03 0.0000000000000000e+00  -4.6408146957135877e-04 3.7499999999999999e-03 0.0000000000000000e+00  -4.3846983243766587e-04 3.7499999999999999e-03 0.0000000000000000e+00  -4.1766910534172012e-04 3.7499999999999999e-03 0.0000000000000000e+00  -4.0063497230054414e-04 3.7499999999999999e-03 0.0000000000000000e+00  -3.8621756902911615e-04 3.7499999999999999e-03 0.0000000000000000e+00  -3.7386883097046162e-04 3.7499999999999999e-03 0.0000000000000000e+00  -3.6406436126084843e-04 3.7499999999999999e-03 0.0000000000000000e+00  -3.5735153275005940e-04 3.7499999999999999e-03 0.0000000000000000e+00  -3.5257921642617635e-04 3.7499999999999999e-03 0.0000000000000000e+00  -3.4994110409501119e-04 3.7499999999999999e-03 0.0000000000000000e+00  -3.4557043164517627e-04 3.7499999999999999e-03 0.0000000000000000e+00  -3.3972850262544037e-04 3.7499999999999999e-03 0.0000000000000000e+00  -3.3185294574244610e-04 3.7499999999999999e-03 0.0000000000000000e+00  -3.2299496188778931e-04 3.7499999999999999e-03 0.0000000000000000e+00  -3.1397110681848171e-04 3.7499999999999999e-03 0.0000000000000000e+00  -3.0225756106293055e-04 3.7499999999999999e-03 0.0000000000000000e+00  -2.8627500334733435e-04 3.7499999999999999e-03 0.0000000000000000e+00  -2.6269243754788987e-04 3.7499999999999999e-03 0.0000000000000000e+00  -2.3466410140782955e-04 3.7499999999999999e-03 0.0000000000000000e+00  -2.1077535039149125e-04 3.7499999999999999e-03 0.0000000000000000e+00  -1.9631691413339510e-04 3.7499999999999999e-03 0.0000000000000000e+00  -1.8319699118307710e-04 3.7499999999999999e-03 0.0000000000000000e+00  -1.6657580586209361e-04 3.7499999999999999e-03 0.0000000000000000e+00  -1.5419157239974021e-04 3.7499999999999999e-03 0.0000000000000000e+00  -1.4806787085053580e-04 3.7499999999999999e-03 0.0000000000000000e+00  -1.4001500982060354e-04 3.7499999999999999e-03 0.0000000000000000e+00  -1.2949997549127057e-04 3.7499999999999999e-03 0.0000000000000000e+00  -1.1205042098128474e-04 3.7499999999999999e-03 0.0000000000000000e+00  -8.7184137831060947e-05 3.7499999999999999e-03 0.0000000000000000e+00  -6.6312541921735731e-04 9.5656123938709183e-04 0.0000000000000000e+00  -6.2398936236404722e-04 1.0135680807129665e-03 0.0000000000000000e+00  -5.7945182769865368e-04 1.0701798247411054e-03 0.0000000000000000e+00  -5.3175682167665541e-04 1.1234237931605044e-03 0.0000000000000000e+00  -4.8157676534890068e-04 1.1765596902648659e-03 0.0000000000000000e+00  -4.2994343089644500e-04 1.2258187155674320e-03 0.0000000000000000e+00  -3.7913956376471846e-04 1.2703670796092561e-03 0.0000000000000000e+00  -3.3198657075320196e-04 1.3097685079215848e-03 0.0000000000000000e+00  -2.8921577765633457e-04 1.3426016985274285e-03 0.0000000000000000e+00  -2.5410646095740482e-04 1.3682763786391748e-03 0.0000000000000000e+00  -2.2721759245205862e-04 1.3875443499250806e-03 0.0000000000000000e+00  -2.0975207975834257e-04 1.4008818354221109e-03 0.0000000000000000e+00  -2.0240198548853174e-04 1.4092267724213248e-03 0.0000000000000000e+00  -2.0463271871737736e-04 1.4143950939928555e-03 0.0000000000000000e+00  -2.1678644296131531e-04 1.4169648055050233e-03 0.0000000000000000e+00  -2.3783757789239509e-04 1.4216603570019024e-03 0.0000000000000000e+00  -2.6410034157957509e-04 1.4316272467215546e-03 0.0000000000000000e+00  -2.9136843110851360e-04 1.4486365884668912e-03 0.0000000000000000e+00  -3.1736103930488232e-04 1.4740309046003448e-03 0.0000000000000000e+00  -3.3900320079921622e-04 1.5055758598985797e-03 0.0000000000000000e+00  -3.5758519239006042e-04 1.5440982717241898e-03 0.0000000000000000e+00  -3.7157275261063232e-04 1.5880254949377456e-03 0.0000000000000000e+00  -3.8096803519664662e-04 1.6363798523447597e-03 0.0000000000000000e+00  -3.8599867487901148e-04 1.6879755377052857e-03 0.0000000000000000e+00  -3.8673040412712798e-04 1.7411385539781309e-03 0.0000000000000000e+00  -3.8347396003630117e-04 1.7941097476245715e-03 0.0000000000000000e+00  -3.7643225867959419e-04 1.8452781606995358e-03 0.0000000000000000e+00  -3.6728069320502707e-04 1.8930092040448834e-03 0.0000000000000000e+00  -3.5612360268407010e-04 1.9370684120609380e-03 0.0000000000000000e+00  -3.4346765821329281e-04 1.9768832551995473e-03 0.0000000000000000e+00  -3.2966768414856458e-04 2.0126752269145911e-03 0.0000000000000000e+00  -3.1384785800127627e-04 2.0452420685715326e-03 0.0000000000000000e+00  -2.9463989362398364e-04 2.0740257754320872e-03 0.0000000000000000e+00  -2.6936906552079288e-04 2.0980895914687629e-03 0.0000000000000000e+00  -2.3493478646650082e-04 2.1136158793788481e-03 0.0000000000000000e+00  -1.9069492168635461e-04 2.1163299372360545e-03 0.0000000000000000e+00  -1.3721405004213044e-04 2.1040369789983586e-03 0.0000000000000000e+00  -7.4354483962433971e-05 2.0759241765027788e-03 0.0000000000000000e+00  -2.5442095604436285e-06 2.0314027106430742e-03 0.0000000000000000e+00  7.7438549459391071e-05 1.9695883483624508e-03 0.0000000000000000e+00  1.6427395222152796e-04 1.8906824822978055e-03 0.0000000000000000e+00  2.5486801631712240e-04 1.7944008734788407e-03 0.0000000000000000e+00  3.4400030070405152e-04 1.6845362366632722e-03 0.0000000000000000e+00  4.2987901132563540e-04 1.5644853255340689e-03 0.0000000000000000e+00  5.0770509569235053e-04 1.4391039897641384e-03 0.0000000000000000e+00  5.7166849229689867e-04 1.3115417476495064e-03 0.0000000000000000e+00  6.2445820422500598e-04 1.1921454553747524e-03 0.0000000000000000e+00  6.6450925068748268e-04 1.0791429628471715e-03 0.0000000000000000e+00  6.9261539020111040e-04 9.7600351755878177e-04 0.0000000000000000e+00  7.1104094905079750e-04 8.8326445582542280e-04 0.0000000000000000e+00  7.2023992834133047e-04 7.9863167778204442e-04 0.0000000000000000e+00  7.2127171559311851e-04 7.2212072158707365e-04 0.0000000000000000e+00  7.1288876346908251e-04 6.5060053715142630e-04 0.0000000000000000e+00  6.9418084450850888e-04 5.8488138272167476e-04 0.0000000000000000e+00  6.6519723405881895e-04 5.2502068446776790e-04 0.0000000000000000e+00  6.2662147912368143e-04 4.7097904526724173e-04 0.0000000000000000e+00  5.8160299651864838e-04 4.2384717235176424e-04 0.0000000000000000e+00  5.3376205993733539e-04 3.8202005314089018e-04 0.0000000000000000e+00  4.8453814040825204e-04 3.4194525889758319e-04 0.0000000000000000e+00  4.3382177691760439e-04 3.0273842186275218e-04 0.0000000000000000e+00  3.7986229158902210e-04 2.6208930398771626e-04 0.0000000000000000e+00  3.2078212654241357e-04 2.2226612057966527e-04 0.0000000000000000e+00  2.5883938887572813e-04 1.8822613253091999e-04 0.0000000000000000e+00  2.0045414201832505e-04 1.6083859202958717e-04 0.0000000000000000e+00  1.5047352074041038e-04 1.4088298606213111e-04 0.0000000000000000e+00  1.1175704107524758e-04 1.2494170704005191e-04 0.0000000000000000e+00  8.2816835759585088e-05 1.1084285218283662e-04 0.0000000000000000e+00  6.0744478742691547e-05 9.6651804161813657e-05 0.0000000000000000e+00  4.2729980115326712e-05 8.2519740165629674e-05 0.0000000000000000e+00  2.6812543814732520e-05 6.8536048840546173e-05 0.0000000000000000e+00  1.2110869384027994e-05 5.5465254584273400e-05 0.0000000000000000e+00  -1.8291620694940148e-06 4.3651010629891111e-05 0.0000000000000000e+00  -1.5004384145474149e-05 3.3155780316783374e-05 0.0000000000000000e+00  -2.7567890667522461e-05 2.4214796306864590e-05 0.0000000000000000e+00  -3.9322080822143222e-05 1.6949531317102338e-05 0.0000000000000000e+00  -5.0234604239774210e-05 1.0906882125951812e-05 0.0000000000000000e+00  -6.0325772508717059e-05 6.4731250760834605e-06 0.0000000000000000e+00  -6.9457285542865078e-05 3.0686717053427952e-06 0.0000000000000000e+00  -7.7746934443584533e-05 7.7839872975838616e-07 0.0000000000000000e+00  -8.5330189075535594e-05 -6.0301245306826202e-07 0.0000000000000000e+00  -9.1996306700848981e-05 -1.2754375456136134e-06 0.0000000000000000e+00  -9.8110759241653306e-05 -1.4166102202921969e-06 0.0000000000000000e+00  -1.0354496942911756e-04 -1.1368719979717645e-06 0.0000000000000000e+00  -1.0852553522248265e-04 -6.4100976974242105e-07 0.0000000000000000e+00  -1.1307909668937492e-04 2.1134261081246510e-08 0.0000000000000000e+00  -1.1742150409944651e-04 7.0412794040556487e-07 0.0000000000000000e+00  -1.2151001303481964e-04 1.4339740306378810e-06 0.0000000000000000e+00  -1.2549279239522506e-04 2.0758625894486950e-06 0.0000000000000000e+00  -1.2949522866511530e-04 2.7570920263277868e-06 0.0000000000000000e+00  -1.3346925716377939e-04 3.4587056498528797e-06 0.0000000000000000e+00  -1.3756299316170222e-04 4.3066059364690664e-06 0.0000000000000000e+00  -1.4165533707789465e-04 5.3594681543522111e-06 0.0000000000000000e+00  -1.4582940148781146e-04 6.7668882344025446e-06 0.0000000000000000e+00  -1.5009040379894295e-04 8.8040617055237734e-06 0.0000000000000000e+00  -1.5404802472786299e-04 1.1414860599569787e-05 0.0000000000000000e+00  -1.5788610407286343e-04 1.4857462393596814e-05 0.0000000000000000e+00  -1.6114030098516945e-04 1.9101419819585429e-05 0.0000000000000000e+00  -1.6389439751972478e-04 2.4111977436784766e-05 0.0000000000000000e+00  -1.6614246213951685e-04 2.9788161229987599e-05 0.0000000000000000e+00  -1.6776101535039852e-04 3.6179860321664902e-05 0.0000000000000000e+00  -1.6949859772207300e-04 4.2708010796726636e-05 0.0000000000000000e+00  -1.7222620510441521e-04 4.9731660807777525e-05 0.0000000000000000e+00  -1.7846866719764990e-04 5.7046638532052783e-05 0.0000000000000000e+00  -1.8973570615940473e-04 6.7171976215248637e-05 0.0000000000000000e+00  -2.1005111970041044e-04 8.1009721698246327e-05 0.0000000000000000e+00  -2.3825143487924959e-04 1.0331026779934609e-04 0.0000000000000000e+00  -2.7472208867302891e-04 1.3401490120838719e-04 0.0000000000000000e+00  -3.1439712725239201e-04 1.7284206276627106e-04 0.0000000000000000e+00  -3.5593016131576111e-04 2.1544062740095948e-04 0.0000000000000000e+00  -3.9969469469961638e-04 2.5868901379996534e-04 0.0000000000000000e+00  -4.4893924899242627e-04 3.0235939575052001e-04 0.0000000000000000e+00  -5.0455218319927879e-04 3.4988181088212058e-04 0.0000000000000000e+00  -5.6477221517179667e-04 4.0427336617357673e-04 0.0000000000000000e+00  -6.2380143844186690e-04 4.6707706809163431e-04 0.0000000000000000e+00  -6.7483168277249683e-04 5.3812944239370406e-04 0.0000000000000000e+00  -7.1180965972066264e-04 6.1313302481145766e-04 0.0000000000000000e+00  -7.3189479292038850e-04 6.8899593553668889e-04 0.0000000000000000e+00  -7.3398944451995426e-04 7.6321545495064056e-04 0.0000000000000000e+00  -7.2141936152475094e-04 8.3127289761277976e-04 0.0000000000000000e+00  7.3235521603107559e-04 5.6120662586384238e-04 0.0000000000000000e+00  7.2194244563345738e-04 5.5018035869877982e-04 0.0000000000000000e+00  6.9506461376361915e-04 5.3350059240662702e-04 0.0000000000000000e+00  6.5630123481581824e-04 5.172