<?xml version="1.0"?>
<VTKFile type="UnstructuredGrid"  version="0.1"  >
<UnstructuredGrid>
<Piece  NumberOfPoints="3879" NumberOfCells="6881">
<Points>
<DataArray  type="Float64"  NumberOfComponents="3"  format="ascii">0.207524190028372 0.2122422770132111 0  0 0 0  1 0 0  0 1 0  1 1 0  0.6249674373315121 0.2590146544375328 0  0.204663578893616 0.322657230836866 0  0.09605577522599912 0.4018360776629776 0  0.671351124618251 0.08738059142081528 0  0.7842102907526436 0.1666439122351055 0  0.8512483166984784 0.1985391006160637 0  0.6418797837909295 0.4423157172830166 0  0.9292488447973215 0.3869277868069776 0  0.3197896119137055 0.5509935221980964 0  0.3979283685568406 0.5079871620336583 0  0.1572503457993085 0.7345153245035532 0  0.3032914287999163 0.7872981443735918 0  0.3549464687598876 0.8870324161721976 0  0.9691791685505482 0.5159450047798622 0  0.9447564590470373 0.6146164845729313 0  0.7687603548175107 0.7176858127488035 0  0.8926159261971183 0.7422924070424508 0  0.2061587782631535 0.2217389244366831 0  0.2021731605082994 0.2304662099646423 0  0.1958902278109265 0.2377171008267789 0  0.1878189860121365 0.2429041729681512 0  0.1786133191209442 0.2456072006525708 0  0.1690190155206647 0.2456072006525708 0  0.1598133486294724 0.2429041729681512 0  0.1517421068306824 0.2377171008267789 0  0.1454591741333096 0.2304662099646422 0  0.1414735563784554 0.221738924436683 0  0.1401081446132369 0.212242277013211 0  0.1414735563784555 0.202745629589739 0  0.1454591741333096 0.1940183440617798 0  0.1517421068306825 0.1867674531996431 0  0.1598133486294725 0.1815803810582709 0  0.1690190155206649 0.1788773533738513 0  0.1786133191209443 0.1788773533738514 0  0.1878189860121367 0.181580381058271 0  0.1958902278109266 0.1867674531996433 0  0.2021731605082994 0.19401834406178 0  0.2061587782631535 0.2027456295897391 0  0.03333333333333333 0 0  0.06666666666666667 0 0  0.1 0 0  0.1333333333333333 0 0  0.1666666666666667 0 0  0.2 0 0  0.2333333333333333 0 0  0.2666666666666667 0 0  0.3 0 0  0.3333333333333333 0 0  0.3666666666666666 0 0  0.4 0 0  0.4333333333333333 0 0  0.4666666666666667 0 0  0.5 0 0  0.5333333333333333 0 0  0.5666666666666667 0 0  0.6 0 0  0.6333333333333333 0 0  0.6666666666666666 0 0  0.7 0 0  0.7333333333333333 0 0  0.7666666666666667 0 0  0.8 0 0  0.8333333333333334 0 0  0.8666666666666667 0 0  0.9 0 0  0.9333333333333333 0 0  0.9666666666666667 0 0  0 0.9666666666666667 0  0 0.9333333333333333 0  0 0.9 0  0 0.8666666666666667 0  0 0.8333333333333334 0  0 0.8 0  0 0.7666666666666666 0  0 0.7333333333333334 0  0 0.7 0  0 0.6666666666666667 0  0 0.6333333333333333 0  0 0.6 0  0 0.5666666666666667 0  0 0.5333333333333333 0  0 0.5 0  0 0.4666666666666667 0  0 0.4333333333333333 0  0 0.4 0  0 0.3666666666666667 0  0 0.3333333333333334 0  0 0.3 0  0 0.2666666666666667 0  0 0.2333333333333333 0  0 0.2 0  0 0.1666666666666666 0  0 0.1333333333333333 0  0 0.09999999999999998 0  0 0.06666666666666665 0  0 0.03333333333333333 0  1 0.03333333333333333 0  1 0.06666666666666667 0  1 0.1 0  1 0.1333333333333333 0  1 0.1666666666666667 0  1 0.2 0  1 0.2333333333333333 0  1 0.2666666666666667 0  1 0.3 0  1 0.3333333333333333 0  1 0.3666666666666666 0  1 0.4 0  1 0.4333333333333333 0  1 0.4666666666666667 0  1 0.5 0  1 0.5333333333333333 0  1 0.5666666666666667 0  1 0.6 0  1 0.6333333333333333 0  1 0.6666666666666666 0  1 0.7 0  1 0.7333333333333333 0  1 0.7666666666666667 0  1 0.8 0  1 0.8333333333333334 0  1 0.8666666666666667 0  1 0.9 0  1 0.9333333333333333 0  1 0.9666666666666667 0  0.9666666666666667 1 0  0.9333333333333333 1 0  0.9 1 0  0.8666666666666667 1 0  0.8333333333333334 1 0  0.8 1 0  0.7666666666666666 1 0  0.7333333333333334 1 0  0.7 1 0  0.6666666666666667 1 0  0.6333333333333333 1 0  0.6 1 0  0.5666666666666667 1 0  0.5333333333333333 1 0  0.5 1 0  0.4666666666666667 1 0  0.4333333333333333 1 0  0.4 1 0  0.3666666666666667 1 0  0.3333333333333334 1 0  0.3 1 0  0.2666666666666667 1 0  0.2333333333333333 1 0  0.2 1 0  0.1666666666666666 1 0  0.1333333333333333 1 0  0.09999999999999998 1 0  0.06666666666666665 1 0  0.03333333333333333 1 0  0.6247072676344306 0.2689501343248463 0  0.6239274716502419 0.2788583817523955 0  0.6226301867455355 0.2887122389026952 0  0.6208189686880621 0.2984846970382296 0  0.6184987819006211 0.3081489705305245 0  0.6156759858539226 0.317678570277693 0  0.6123583176357204 0.3270473763092224 0  0.6085548707439923 0.3362297093789981 0  0.6042760701622942 0.3452004013503318 0  0.5995336437856049 0.3539348641800754 0  0.5943405902749808 0.3624091573127375 0  0.5887111434291297 0.3706000532998825 0  0.582660733170558 0.3784851014649517 0  0.5762059432532257 0.3860426894390078 0  0.5693644658076293 0.3932521023987353 0  0.5621550528479018 0.4000935798443317 0  0.5545974648738458 0.4065483697616639 0  0.5467124167087765 0.4125987800202355 0  0.5385215207216315 0.4182282268660866 0  0.5300472275889694 0.4234212803767108 0  0.5213127647592257 0.4281637067534002 0  0.512342072787892 0.4324425073350981 0  0.5031597397181163 0.4362459542268262 0  0.493790933686587 0.4395636224450283 0  0.4842613339394185 0.4423864184917269 0  0.4745970604471235 0.4447066052791678 0  0.4648246023115891 0.4465178233366412 0  0.4549707451612894 0.4478151082413475 0  0.4450624977337403 0.4485949042255363 0  0.4351270178464268 0.4488550739226177 0  0.4251915379591132 0.4485949042255363 0  0.4152832905315641 0.4478151082413475 0  0.4054294333812644 0.4465178233366411 0  0.39565697524573 0.4447066052791677 0  0.385992701753435 0.4423864184917267 0  0.3764631020062665 0.4395636224450281 0  0.3670942959747371 0.4362459542268259 0  0.3579119629049616 0.4324425073350978 0  0.3489412709336278 0.4281637067533998 0  0.3402068081038843 0.4234212803767103 0  0.3317325149712221 0.4182282268660862 0  0.3235416189840771 0.412598780020235 0  0.3156565708190078 0.4065483697616634 0  0.3080989828449519 0.4000935798443311 0  0.3008895698852244 0.3932521023987346 0  0.2940480924396279 0.3860426894390071 0  0.2875933025222958 0.3784851014649511 0  0.2815428922637242 0.3706000532998818 0  0.2759134454178731 0.3624091573127368 0  0.2707203919072489 0.3539348641800746 0  0.2659779655305596 0.3452004013503309 0  0.2616991649488616 0.3362297093789972 0  0.2578957180571336 0.3270473763092215 0  0.2545780498389315 0.3176785702776921 0  0.251755253792233 0.3081489705305236 0  0.249435067004792 0.2984846970382286 0  0.2476238489473186 0.2887122389026941 0  0.2463265640426123 0.2788583817523945 0  0.2455467680584236 0.2689501343248454 0  0.2452865983613423 0.2590146544375318 0  0.2455467680584237 0.2490791745502182 0  0.2463265640426126 0.2391709271226692 0  0.247623848947319 0.2293170699723696 0  0.2494350670047924 0.2195446118368351 0  0.2517552537922335 0.2098803383445402 0  0.2545780498389321 0.2003507385973717 0  0.2578957180571343 0.1909819325658423 0  0.2616991649488624 0.1817995994960667 0  0.2659779655305604 0.172828907524733 0  0.2707203919072498 0.1640944446949895 0  0.2759134454178741 0.1556201515623273 0  0.2815428922637251 0.1474292555751825 0  0.2875933025222969 0.1395442074101132 0  0.2940480924396291 0.1319866194360571 0  0.3008895698852256 0.1247772064763297 0  0.3080989828449531 0.1179357290307334 0  0.3156565708190092 0.1114809391134012 0  0.3235416189840785 0.1054305288548295 0  0.3317325149712236 0.09980108200897844 0  0.3402068081038856 0.0946080284983544 0  0.3489412709336291 0.08986560212166514 0  0.357911962904963 0.08558680153996717 0  0.3670942959747386 0.08178335464823916 0  0.3764631020062678 0.07846568643003712 0  0.3859927017534364 0.0756428903833386 0  0.3956569752457313 0.0733227035958976 0  0.4054294333812659 0.07151148553842429 0  0.4152832905315654 0.07021420063371797 0  0.4251915379591144 0.0694344046495293 0  0.435127017846428 0.0691742349524479 0  0.4450624977337415 0.06943440464952938 0  0.4549707451612905 0.07021420063371814 0  0.4648246023115901 0.07151148553842454 0  0.4745970604471245 0.07332270359589793 0  0.4842613339394195 0.07564289038333902 0  0.4937909336865879 0.07846568643003757 0  0.5031597397181173 0.0817833546482398 0  0.5123420727878929 0.08558680153996781 0  0.5213127647592265 0.08986560212166581 0  0.53004722758897 0.0946080284983552 0  0.5385215207216321 0.09980108200897933 0  0.5467124167087771 0.1054305288548305 0  0.5545974648738462 0.1114809391134021 0  0.5621550528479023 0.1179357290307343 0  0.5693644658076298 0.1247772064763308 0  0.576205943253226 0.1319866194360582 0  0.5826607331705582 0.1395442074101142 0  0.5887111434291299 0.1474292555751835 0  0.594340590274981 0.1556201515623285 0  0.5995336437856051 0.1640944446949906 0  0.6042760701622945 0.172828907524734 0  0.6085548707439925 0.1817995994960678 0  0.6123583176357205 0.1909819325658435 0  0.6156759858539227 0.2003507385973728 0  0.6184987819006211 0.2098803383445412 0  0.6208189686880622 0.2195446118368362 0  0.6226301867455355 0.2293170699723706 0  0.6239274716502419 0.2391709271226702 0  0.6247072676344306 0.2490791745502192 0  0.203885768735257 0.3325402459548524 0  0.2015714905276826 0.3421799084407872 0  0.1977777294810124 0.3513388578120612 0  0.1925979005829864 0.3597915703383434 0  0.1861595484119405 0.3673299121842922 0  0.1786212065659918 0.373768264355338 0  0.1701684940397096 0.378948093253364 0  0.1610095446684356 0.3827418543000342 0  0.1513698821825007 0.3850561325076086 0  0.1414868670645144 0.3858339426659677 0  0.1316038519465281 0.3850561325076086 0  0.1219641894605933 0.3827418543000343 0  0.1128052400893193 0.378948093253364 0  0.1043525275630371 0.3737682643553381 0  0.09681418571708833 0.3673299121842922 0  0.09037583354604248 0.3597915703383434 0  0.08519600464801645 0.3513388578120612 0  0.08140224360134621 0.3421799084407872 0  0.07908796539377183 0.3325402459548523 0  0.07831015523541281 0.3226572308368659 0  0.07908796539377186 0.3127742157188796 0  0.08140224360134626 0.3031345532329447 0  0.08519600464801655 0.2939756038616707 0  0.0903758335460426 0.2855228913353884 0  0.0968141857
[...]
<PointData  Vectors="$u$"> 
<DataArray  type="Float64"  Name="$u$"  NumberOfComponents="3" format="ascii">3.5160717366158049e-04 6.5284240958122771e-04 0.0000000000000000e+00  0.0000000000000000e+00 0.0000000000000000e+00 0.0000000000000000e+00  -8.4464615316732984e-04 0.0000000000000000e+00 0.0000000000000000e+00  -1.5596080698775295e-04 7.2500000000000004e-03 0.0000000000000000e+00  -1.0225515583701000e-03 7.2500000000000004e-03 0.0000000000000000e+00  -1.3538354152676012e-03 1.7724401409141821e-03 0.0000000000000000e+00  1.4609035170677553e-03 1.0682195083671622e-03 0.0000000000000000e+00  1.2697266299170622e-03 1.9144442654255446e-03 0.0000000000000000e+00  -7.5383266863632173e-04 2.4290119523767340e-04 0.0000000000000000e+00  -1.1222641656923982e-03 1.9370180853673989e-05 0.0000000000000000e+00  -1.2794860143564176e-03 2.1824061111976723e-04 0.0000000000000000e+00  -5.1156365993303456e-05 2.8560575707930816e-03 0.0000000000000000e+00  -3.3036709549431908e-03 2.0262076968953261e-03 0.0000000000000000e+00  -4.5179763249304875e-04 4.4294696327587995e-03 0.0000000000000000e+00  -3.2415862874384899e-04 4.0001466330053283e-03 0.0000000000000000e+00  1.0622630460099668e-03 6.9317979000996484e-03 0.0000000000000000e+00  3.9096799358507482e-04 5.7694802844821050e-03 0.0000000000000000e+00  -5.9744747205767927e-04 6.9486735188863530e-03 0.0000000000000000e+00  -3.5155432141843013e-03 3.5941141510849911e-03 0.0000000000000000e+00  -2.5963810640580983e-03 5.1822848494014915e-03 0.0000000000000000e+00  -1.8359963796287637e-03 6.5882599981737086e-03 0.0000000000000000e+00  -1.6829891414731175e-03 6.5142660359819669e-03 0.0000000000000000e+00  4.7161684400609218e-04 7.7098684972370620e-04 0.0000000000000000e+00  5.9709417979548530e-04 8.7651963064828422e-04 0.0000000000000000e+00  7.0820534758939395e-04 9.6692370941951755e-04 0.0000000000000000e+00  7.9361517245618162e-04 1.0055618090787641e-03 0.0000000000000000e+00  8.5754587129605129e-04 9.8813225623064441e-04 0.0000000000000000e+00  8.6621892171130188e-04 8.8579487038967393e-04 0.0000000000000000e+00  8.4463435182825352e-04 7.3593701016105633e-04 0.0000000000000000e+00  7.7532915826771540e-04 6.0840345649884402e-04 0.0000000000000000e+00  6.7339971046975918e-04 5.3615011688400876e-04 0.0000000000000000e+00  5.8265314489178881e-04 4.9980595495579313e-04 0.0000000000000000e+00  4.8902671738371574e-04 4.5290569417233786e-04 0.0000000000000000e+00  4.0608357584277744e-04 4.1466527805543663e-04 0.0000000000000000e+00  3.3110074043821559e-04 3.6818375015489643e-04 0.0000000000000000e+00  2.6739842006145618e-04 3.2682941126582987e-04 0.0000000000000000e+00  2.1046755015169868e-04 3.0026974987393083e-04 0.0000000000000000e+00  1.7276688207897803e-04 2.8951218770357346e-04 0.0000000000000000e+00  1.4639855302009774e-04 2.9850087577504232e-04 0.0000000000000000e+00  1.3895102026396236e-04 3.2836142664798153e-04 0.0000000000000000e+00  1.5602026882627663e-04 3.7961602395787365e-04 0.0000000000000000e+00  1.9086772292289405e-04 4.4911135118642535e-04 0.0000000000000000e+00  2.5998075638922126e-04 5.4292726404454156e-04 0.0000000000000000e+00  0.0000000000000000e+00 0.0000000000000000e+00 0.0000000000000000e+00  -7.1127715698377921e-05 0.0000000000000000e+00 0.0000000000000000e+00  -9.5822833761169946e-05 0.0000000000000000e+00 0.0000000000000000e+00  -1.2696958244748155e-04 0.0000000000000000e+00 0.0000000000000000e+00  -1.4750686974304963e-04 0.0000000000000000e+00 0.0000000000000000e+00  -1.6810164370538417e-04 0.0000000000000000e+00 0.0000000000000000e+00  -1.8516182002957602e-04 0.0000000000000000e+00 0.0000000000000000e+00  -2.0165060084760281e-04 0.0000000000000000e+00 0.0000000000000000e+00  -2.1441864234987166e-04 0.0000000000000000e+00 0.0000000000000000e+00  -2.2400968566037665e-04 0.0000000000000000e+00 0.0000000000000000e+00  -2.3318915699904210e-04 0.0000000000000000e+00 0.0000000000000000e+00  -2.4571583525300074e-04 0.0000000000000000e+00 0.0000000000000000e+00  -2.6088030033238782e-04 0.0000000000000000e+00 0.0000000000000000e+00  -2.7887801205438633e-04 0.0000000000000000e+00 0.0000000000000000e+00  -3.0113023920216777e-04 0.0000000000000000e+00 0.0000000000000000e+00  -3.3613922586661486e-04 0.0000000000000000e+00 0.0000000000000000e+00  -3.9119540555965248e-04 0.0000000000000000e+00 0.0000000000000000e+00  -4.6440005910067088e-04 0.0000000000000000e+00 0.0000000000000000e+00  -5.1778705691931596e-04 0.0000000000000000e+00 0.0000000000000000e+00  -5.6368113843770109e-04 0.0000000000000000e+00 0.0000000000000000e+00  -6.2606362969677546e-04 0.0000000000000000e+00 0.0000000000000000e+00  -6.6819930536052047e-04 0.0000000000000000e+00 0.0000000000000000e+00  -6.8097133844175416e-04 0.0000000000000000e+00 0.0000000000000000e+00  -6.8335365215513170e-04 0.0000000000000000e+00 0.0000000000000000e+00  -6.8383549593447235e-04 0.0000000000000000e+00 0.0000000000000000e+00  -6.9523824090906813e-04 0.0000000000000000e+00 0.0000000000000000e+00  -7.1160216173679820e-04 0.0000000000000000e+00 0.0000000000000000e+00  -7.4489916470297786e-04 0.0000000000000000e+00 0.0000000000000000e+00  -7.8941251702643975e-04 0.0000000000000000e+00 0.0000000000000000e+00  -1.4288613210386496e-04 7.0411721162821610e-03 0.0000000000000000e+00  -9.8582463020552698e-05 6.8311650666527304e-03 0.0000000000000000e+00  -2.4424266849703381e-05 6.6129550183958111e-03 0.0000000000000000e+00  8.8319225685214487e-05 6.3897795920895605e-03 0.0000000000000000e+00  2.3878026468176214e-04 6.1596386757827842e-03 0.0000000000000000e+00  4.3149174720493312e-04 5.9204289246361785e-03 0.0000000000000000e+00  6.6712848623581812e-04 5.6742408451685633e-03 0.0000000000000000e+00  9.4827642632700512e-04 5.4015671651034434e-03 0.0000000000000000e+00  1.3026652805555826e-03 5.1040733221090484e-03 0.0000000000000000e+00  1.7542327994465373e-03 4.7759338340454902e-03 0.0000000000000000e+00  2.3246054478583953e-03 4.4517373402624899e-03 0.0000000000000000e+00  2.9665726751733875e-03 4.1941828530864100e-03 0.0000000000000000e+00  3.4999817498139901e-03 4.0693372963615526e-03 0.0000000000000000e+00  3.4856165664550122e-03 4.0623713001343275e-03 0.0000000000000000e+00  3.0371601654956629e-03 3.8750585812107547e-03 0.0000000000000000e+00  2.5642363002375741e-03 3.5419790099860174e-03 0.0000000000000000e+00  2.2907397768223065e-03 3.0878206402510005e-03 0.0000000000000000e+00  2.1677125741853989e-03 2.7754847447372310e-03 0.0000000000000000e+00  1.7613336888670154e-03 2.5082325259727363e-03 0.0000000000000000e+00  1.4136606638153811e-03 2.1434355301273057e-03 0.0000000000000000e+00  1.1766986489076146e-03 1.8786498708496309e-03 0.0000000000000000e+00  9.4323439549751802e-04 1.6485148637893417e-03 0.0000000000000000e+00  7.2659200690116451e-04 1.4329664769277448e-03 0.0000000000000000e+00  5.3311744190531068e-04 1.2197577513150828e-03 0.0000000000000000e+00  3.7057416224099335e-04 1.0105825935453972e-03 0.0000000000000000e+00  2.4154902249266667e-04 7.9805179812996374e-04 0.0000000000000000e+00  1.4685145473184911e-04 5.9611038922254759e-04 0.0000000000000000e+00  8.1528764852548913e-05 3.8651300616325947e-04 0.0000000000000000e+00  5.3631945669222443e-05 2.0100461501764894e-04 0.0000000000000000e+00  -8.5736199945266284e-04 2.0403855143736642e-04 0.0000000000000000e+00  -9.0251186184230774e-04 4.1184609669097115e-04 0.0000000000000000e+00  -9.7839725646632907e-04 6.2459162695695637e-04 0.0000000000000000e+00  -1.0913969927945067e-03 8.4719467938305394e-04 0.0000000000000000e+00  -1.2477295520025749e-03 1.0815990983245745e-03 0.0000000000000000e+00  -1.4577357683926333e-03 1.3286015329009235e-03 0.0000000000000000e+00  -1.7263166226634148e-03 1.5818603661204105e-03 0.0000000000000000e+00  -2.0655322496670732e-03 1.8459915301845149e-03 0.0000000000000000e+00  -2.4729439019175914e-03 2.0904273986620445e-03 0.0000000000000000e+00  -2.9111819506439283e-03 2.2909954033352858e-03 0.0000000000000000e+00  -3.2959439539542289e-03 2.4237335963640419e-03 0.0000000000000000e+00  -3.5242520963963378e-03 2.5167047580439595e-03 0.0000000000000000e+00  -3.5742749833538490e-03 2.6441122262818527e-03 0.0000000000000000e+00  -3.5419731749009786e-03 2.9149867368484408e-03 0.0000000000000000e+00  -3.8272756660460766e-03 3.3440785286091156e-03 0.0000000000000000e+00  -3.6295082829590681e-03 3.4122993786147712e-03 0.0000000000000000e+00  -2.6284547956603008e-03 4.6941031255601810e-03 0.0000000000000000e+00  -2.7087460857471613e-03 4.9835767483273159e-03 0.0000000000000000e+00  -2.6634496992832294e-03 5.1215460167404296e-03 0.0000000000000000e+00  -2.4221761016964931e-03 5.2668831065353491e-03 0.0000000000000000e+00  -2.1263722961064732e-03 5.4606069700962410e-03 0.0000000000000000e+00  -1.8630898796234009e-03 5.6779584525119570e-03 0.0000000000000000e+00  -1.6395361040054148e-03 5.8886295178877225e-03 0.0000000000000000e+00  -1.4527886624935199e-03 6.0982586953595820e-03 0.0000000000000000e+00  -1.3075118521686190e-03 6.3055894443744412e-03 0.0000000000000000e+00  -1.1995009331956172e-03 6.5040011333024079e-03 0.0000000000000000e+00  -1.1201195868236148e-03 6.6956830077299547e-03 0.0000000000000000e+00  -1.0657310704320618e-03 6.8819032778914078e-03 0.0000000000000000e+00  -1.0323294092114462e-03 7.0664240382846523e-03 0.0000000000000000e+00  -9.7218092557558894e-04 7.2500000000000004e-03 0.0000000000000000e+00  -9.2672897750420077e-04 7.2500000000000004e-03 0.0000000000000000e+00  -8.8946058202341548e-04 7.2500000000000004e-03 0.0000000000000000e+00  -8.5774096405029799e-04 7.2500000000000004e-03 0.0000000000000000e+00  -8.3011968060376447e-04 7.2500000000000004e-03 0.0000000000000000e+00  -8.0504872560719493e-04 7.2500000000000004e-03 0.0000000000000000e+00  -7.8399106730973856e-04 7.2500000000000004e-03 0.0000000000000000e+00  -7.6850805110242383e-04 7.2500000000000004e-03 0.0000000000000000e+00  -7.5594813032492782e-04 7.2500000000000004e-03 0.0000000000000000e+00  -7.4786015255799145e-04 7.2500000000000004e-03 0.0000000000000000e+00  -7.3626271011911174e-04 7.2500000000000004e-03 0.0000000000000000e+00  -7.2228212808182475e-04 7.2500000000000004e-03 0.0000000000000000e+00  -7.0431626652704628e-04 7.2500000000000004e-03 0.0000000000000000e+00  -6.8454565926448507e-04 7.2500000000000004e-03 0.0000000000000000e+00  -6.6442104692676868e-04 7.2500000000000004e-03 0.0000000000000000e+00  -6.3925425432146625e-04 7.2500000000000004e-03 0.0000000000000000e+00  -6.0582716791396352e-04 7.2500000000000004e-03 0.0000000000000000e+00  -5.5767975715270972e-04 7.2500000000000004e-03 0.0000000000000000e+00  -5.0084712533950051e-04 7.2500000000000004e-03 0.0000000000000000e+00  -4.5220815760734493e-04 7.2500000000000004e-03 0.0000000000000000e+00  -4.2237368180068457e-04 7.2500000000000004e-03 0.0000000000000000e+00  -3.9557275806291649e-04 7.2500000000000004e-03 0.0000000000000000e+00  -3.6250775336556918e-04 7.2500000000000004e-03 0.0000000000000000e+00  -3.3763001188346492e-04 7.2500000000000004e-03 0.0000000000000000e+00  -3.2579270225880757e-04 7.2500000000000004e-03 0.0000000000000000e+00  -3.1049806504937136e-04 7.2500000000000004e-03 0.0000000000000000e+00  -2.9121047202995020e-04 7.2500000000000004e-03 0.0000000000000000e+00  -2.5851440095326142e-04 7.2500000000000004e-03 0.0000000000000000e+00  -2.1185292687821638e-04 7.2500000000000004e-03 0.0000000000000000e+00  -1.2828168474236991e-03 1.8867890077216873e-03 0.0000000000000000e+00  -1.2010521222580780e-03 1.9971725559506845e-03 0.0000000000000000e+00  -1.1085464589336688e-03 2.1075328375480501e-03 0.0000000000000000e+00  -1.0097212884834757e-03 2.2113071176334573e-03 0.0000000000000000e+00  -9.0574568519742040e-04 2.3159841404367838e-03 0.0000000000000000e+00  -7.9867422509003892e-04 2.4130020536084862e-03 0.0000000000000000e+00  -6.9294673819981297e-04 2.5012295918642093e-03 0.0000000000000000e+00  -5.9440725172295284e-04 2.5800077164258293e-03 0.0000000000000000e+00  -5.0413420293415445e-04 2.6462677819667443e-03 0.0000000000000000e+00  -4.2870282607175006e-04 2.6985987698185244e-03 0.0000000000000000e+00  -3.6941007992602915e-04 2.7393649775665982e-03 0.0000000000000000e+00  -3.2814478608360207e-04 2.7680032213107230e-03 0.0000000000000000e+00  -3.0690724501624442e-04 2.7875681983639219e-03 0.0000000000000000e+00  -3.0419332467635098e-04 2.8003955274805217e-03 0.0000000000000000e+00  -3.2116858470463723e-04 2.8077641950049427e-03 0.0000000000000000e+00  -3.5627252915818399e-04 2.8190544014522600e-03 0.0000000000000000e+00  -4.0167100247141905e-04 2.8398720681833481e-03 0.0000000000000000e+00  -4.4987771563528671e-04 2.8740099804038057e-03 0.0000000000000000e+00  -4.9571674721360414e-04 2.9237019610177618e-03 0.0000000000000000e+00  -5.3427532248997685e-04 2.9844796641369429e-03 0.0000000000000000e+00  -5.6696168030656851e-04 3.0580459977640338e-03 0.0000000000000000e+00  -5.9160601937968378e-04 3.1407344934539865e-03 0.0000000000000000e+00  -6.0821506495581097e-04 3.2311893625514062e-03 0.0000000000000000e+00  -6.1719922918218020e-04 3.3270213492478215e-03 0.0000000000000000e+00  -6.1845955190710348e-04 3.4250090350824297e-03 0.0000000000000000e+00  -6.1307648827520060e-04 3.5221824825122780e-03 0.0000000000000000e+00  -6.0065518148773105e-04 3.6154381086734725e-03 0.0000000000000000e+00  -5.8495023844256343e-04 3.7020451289406110e-03 0.0000000000000000e+00  -5.6553546763555705e-04 3.7814870908862916e-03 0.0000000000000000e+00  -5.4356766189246923e-04 3.8530096442116412e-03 0.0000000000000000e+00  -5.1965800087361508e-04 3.9169710092946605e-03 0.0000000000000000e+00  -4.9149951382553069e-04 3.9752715900481274e-03 0.0000000000000000e+00  -4.5637551781797613e-04 4.0261061406269630e-03 0.0000000000000000e+00  -4.0939782196611798e-04 4.0679522612642009e-03 0.0000000000000000e+00  -3.4350864130823489e-04 4.0927648818325285e-03 0.0000000000000000e+00  -2.5855952974532915e-04 4.0918801722205260e-03 0.0000000000000000e+00  -1.5514091064722604e-04 4.0613057609495242e-03 0.0000000000000000e+00  -3.3939789504157703e-05 3.9994356954391411e-03 0.0000000000000000e+00  1.0432429908430348e-04 3.9060314545135396e-03 0.0000000000000000e+00  2.5794606803442179e-04 3.7790517779686321e-03 0.0000000000000000e+00  4.2350711396375667e-04 3.6199149526124005e-03 0.0000000000000000e+00  5.9589793636855807e-04 3.4287142198745437e-03 0.0000000000000000e+00  7.6491308399990251e-04 3.2125302960452347e-03 0.0000000000000000e+00  9.2673150489995472e-04 2.9782672170580926e-03 0.0000000000000000e+00  1.0737828090825847e-03 2.7356064119278454e-03 0.0000000000000000e+00  1.1945288013612151e-03 2.4898466602579616e-03 0.0000000000000000e+00  1.2945950444970271e-03 2.2605364000185223e-03 0.0000000000000000e+00  1.3697175973665769e-03 2.0439314654442176e-03 0.0000000000000000e+00  1.4195880589744645e-03 1.8434834719481723e-03 0.0000000000000000e+00  1.4509612624131123e-03 1.6615021169395275e-03 0.0000000000000000e+00  1.4649517064241951e-03 1.4947555679772615e-03 0.0000000000000000e+00  1.4617185404048043e-03 1.3448289037833615e-03 0.0000000000000000e+00  1.4393392821090776e-03 1.2030593951588007e-03 0.0000000000000000e+00  1.3958035826788415e-03 1.0734246464176567e-03 0.0000000000000000e+00  1.3324022804730934e-03 9.5849798902460299e-04 0.0000000000000000e+00  1.2493583918508271e-03 8.5820689816222290e-04 0.0000000000000000e+00  1.1538661946923429e-03 7.7108859406301760e-04 0.0000000000000000e+00  1.0534936608170239e-03 6.9503328997902870e-04 0.0000000000000000e+00  9.5178330968661825e-04 6.2191302344577677e-04 0.0000000000000000e+00  8.4819465624364095e-04 5.5055564676577038e-04 0.0000000000000000e+00  7.3987870641480850e-04 4.7676893653331219e-04 0.0000000000000000e+00  6.2295182352424538e-04 4.0290602233602937e-04 0.0000000000000000e+00  5.0088756628078072e-04 3.4129077388824299e-04 0.0000000000000000e+00  3.8687695968175141e-04 2.9127091067502155e-04 0.0000000000000000e+00  2.8983534069119483e-04 2.5613693218887282e-04 0.0000000000000000e+00  2.1505349617864604e-04 2.2741658085327250e-04 0.0000000000000000e+00  1.5927666081392975e-04 2.0282615078168328e-04 0.0000000000000000e+00  1.1701257961802404e-04 1.7695688228241835e-04 0.0000000000000000e+00  8.2679559630298116e-05 1.5147756582962790e-04 0.0000000000000000e+00  5.2168277409687526e-05 1.2558027049829564e-04 0.0000000000000000e+00  2.4127931232148039e-05 1.0188384627254304e-04 0.0000000000000000e+00  -2.5294331652237469e-06 7.9799424033012654e-05 0.0000000000000000e+00  -2.7965892956610361e-05 6.0784535114655392e-05 0.0000000000000000e+00  -5.2021802495303603e-05 4.4130053683095146e-05 0.0000000000000000e+00  -7.4874578848412496e-05 3.0945502693190964e-05 0.0000000000000000e+00  -9.6051484950484899e-05 1.9825391643445794e-05 0.0000000000000000e+00  -1.1577937058174611e-04 1.1828758688972382e-05 0.0000000000000000e+00  -1.3381110247984642e-04 5.7021366084920404e-06 0.0000000000000000e+00  -1.5013927760415530e-04 1.6252459672060582e-06 0.0000000000000000e+00  -1.6538464782559574e-04 -7.6003433773793729e-07 0.0000000000000000e+00  -1.7883660614476514e-04 -1.8013782719078722e-06 0.0000000000000000e+00  -1.9137611234465573e-04 -1.9005210619588766e-06 0.0000000000000000e+00  -2.0259184110580942e-04 -1.2407394133719667e-06 0.0000000000000000e+00  -2.1311725171160813e-04 -1.7812834582531036e-07 0.0000000000000000e+00  -2.2277469504276091e-04 1.1744977453778539e-06 0.0000000000000000e+00  -2.3215811108704762e-04 2.5404724593199055e-06 0.0000000000000000e+00  -2.4106092221636298e-04 3.9827779477225360e-06 0.0000000000000000e+00  -2.4982166426975601e-04 5.2715347260576095e-06 0.0000000000000000e+00  -2.5860103368460666e-04 6.6063330548579643e-06 0.0000000000000000e+00  -2.6743316132568417e-04 7.9989352243858054e-06 0.0000000000000000e+00  -2.7644088633756462e-04 9.6909262789311481e-06 0.0000000000000000e+00  -2.8539686207385841e-04 1.1780959248956162e-05 0.0000000000000000e+00  -2.9464841722710058e-04 1.4568509821879568e-05 0.0000000000000000e+00  -3.0393555573360282e-04 1.8694632517679452e-05 0.0000000000000000e+00  -3.1251658597831593e-04 2.3897978555697561e-05 0.0000000000000000e+00  -3.2098839206121636e-04 3.0782937649678812e-05 0.0000000000000000e+00  -3.2799994593662475e-04 3.9249144003967479e-05 0.0000000000000000e+00  -3.3408754035559144e-04 4.9236690441949572e-05 0.0000000000000000e+00  -3.3899107816323957e-04 6.0538519222295979e-05 0.0000000000000000e+00  -3.4245381143437813e-04 7.3182914885692519e-05 0.0000000000000000e+00  -3.4640898132825865e-04 8.5977657023475509e-05 0.0000000000000000e+00  -3.5125864152493367e-04 1.0007281109124733e-04 0.0000000000000000e+00  -3.6437071737093537e-04 1.1353981979987601e-04 0.0000000000000000e+00  -3.8616072146603316e-04 1.3393593746775017e-04 0.0000000000000000e+00  -4.2696362665349422e-04 1.6003188764180534e-04 0.0000000000000000e+00  -4.8322021782477067e-04 2.0383381482591854e-04 0.0000000000000000e+00  -5.5624972633775056e-04 2.6427895527529355e-04 0.0000000000000000e+00  -6.3575167014508346e-04 3.4085341564405608e-04 0.0000000000000000e+00  -7.1946681354744034e-04 4.2555943031517140e-04 0.0000000000000000e+00  -8.0635306369842847e-04 5.1199698489352071e-04 0.0000000000000000e+00  -9.0462725787808138e-04 5.9874789636257071e-04 0.0000000000000000e+00  -1.0128958503714794e-03 6.9434361558314093e-04 0.0000000000000000e+00  -1.1295412096554588e-03 8.0153956771585391e-04 0.0000000000000000e+00  -1.2421793765877442e-03 9.2459961605589707e-04 0.0000000000000000e+00  -1.3387943489340127e-03 1.0621100749308571e-03 0.0000000000000000e+00  -1.4059125259909676e-03 1.2055957424258344e-03 0.0000000000000000e+00  -1.4372233017636035e-03 1.3584997163293970e-03 0.0000000000000000e+00  -1.4342482142294520e-03 1.5123902580833478e-03 0.0000000000000000e+00  -1.4070760114623139e-03 1.6477329429158583e-03 0.0000000000000000e+00  1.4844321689402196e-03 1.0590017737715097e-03 0.0000000000000000e+00  1.4710270761991596e-03 1.0331606352253127e-03 0.0000000000000000e+00  1.4242993775708034e-03 9.9575932542691624e-04 0.0000000000000000e+00  1.3528841282424164e-03 9.588