<?xml version="1.0"?>
<VTKFile type="UnstructuredGrid"  version="0.1"  >
<UnstructuredGrid>
<Piece  NumberOfPoints="3879" NumberOfCells="6881">
<Points>
<DataArray  type="Float64"  NumberOfComponents="3"  format="ascii">0.207524190028372 0.2122422770132111 0  0 0 0  1 0 0  0 1 0  1 1 0  0.6249674373315121 0.2590146544375328 0  0.204663578893616 0.322657230836866 0  0.09605577522599912 0.4018360776629776 0  0.671351124618251 0.08738059142081528 0  0.7842102907526436 0.1666439122351055 0  0.8512483166984784 0.1985391006160637 0  0.6418797837909295 0.4423157172830166 0  0.9292488447973215 0.3869277868069776 0  0.3197896119137055 0.5509935221980964 0  0.3979283685568406 0.5079871620336583 0  0.1572503457993085 0.7345153245035532 0  0.3032914287999163 0.7872981443735918 0  0.3549464687598876 0.8870324161721976 0  0.9691791685505482 0.5159450047798622 0  0.9447564590470373 0.6146164845729313 0  0.7687603548175107 0.7176858127488035 0  0.8926159261971183 0.7422924070424508 0  0.2061587782631535 0.2217389244366831 0  0.2021731605082994 0.2304662099646423 0  0.1958902278109265 0.2377171008267789 0  0.1878189860121365 0.2429041729681512 0  0.1786133191209442 0.2456072006525708 0  0.1690190155206647 0.2456072006525708 0  0.1598133486294724 0.2429041729681512 0  0.1517421068306824 0.2377171008267789 0  0.1454591741333096 0.2304662099646422 0  0.1414735563784554 0.221738924436683 0  0.1401081446132369 0.212242277013211 0  0.1414735563784555 0.202745629589739 0  0.1454591741333096 0.1940183440617798 0  0.1517421068306825 0.1867674531996431 0  0.1598133486294725 0.1815803810582709 0  0.1690190155206649 0.1788773533738513 0  0.1786133191209443 0.1788773533738514 0  0.1878189860121367 0.181580381058271 0  0.1958902278109266 0.1867674531996433 0  0.2021731605082994 0.19401834406178 0  0.2061587782631535 0.2027456295897391 0  0.03333333333333333 0 0  0.06666666666666667 0 0  0.1 0 0  0.1333333333333333 0 0  0.1666666666666667 0 0  0.2 0 0  0.2333333333333333 0 0  0.2666666666666667 0 0  0.3 0 0  0.3333333333333333 0 0  0.3666666666666666 0 0  0.4 0 0  0.4333333333333333 0 0  0.4666666666666667 0 0  0.5 0 0  0.5333333333333333 0 0  0.5666666666666667 0 0  0.6 0 0  0.6333333333333333 0 0  0.6666666666666666 0 0  0.7 0 0  0.7333333333333333 0 0  0.7666666666666667 0 0  0.8 0 0  0.8333333333333334 0 0  0.8666666666666667 0 0  0.9 0 0  0.9333333333333333 0 0  0.9666666666666667 0 0  0 0.9666666666666667 0  0 0.9333333333333333 0  0 0.9 0  0 0.8666666666666667 0  0 0.8333333333333334 0  0 0.8 0  0 0.7666666666666666 0  0 0.7333333333333334 0  0 0.7 0  0 0.6666666666666667 0  0 0.6333333333333333 0  0 0.6 0  0 0.5666666666666667 0  0 0.5333333333333333 0  0 0.5 0  0 0.4666666666666667 0  0 0.4333333333333333 0  0 0.4 0  0 0.3666666666666667 0  0 0.3333333333333334 0  0 0.3 0  0 0.2666666666666667 0  0 0.2333333333333333 0  0 0.2 0  0 0.1666666666666666 0  0 0.1333333333333333 0  0 0.09999999999999998 0  0 0.06666666666666665 0  0 0.03333333333333333 0  1 0.03333333333333333 0  1 0.06666666666666667 0  1 0.1 0  1 0.1333333333333333 0  1 0.1666666666666667 0  1 0.2 0  1 0.2333333333333333 0  1 0.2666666666666667 0  1 0.3 0  1 0.3333333333333333 0  1 0.3666666666666666 0  1 0.4 0  1 0.4333333333333333 0  1 0.4666666666666667 0  1 0.5 0  1 0.5333333333333333 0  1 0.5666666666666667 0  1 0.6 0  1 0.6333333333333333 0  1 0.6666666666666666 0  1 0.7 0  1 0.7333333333333333 0  1 0.7666666666666667 0  1 0.8 0  1 0.8333333333333334 0  1 0.8666666666666667 0  1 0.9 0  1 0.9333333333333333 0  1 0.9666666666666667 0  0.9666666666666667 1 0  0.9333333333333333 1 0  0.9 1 0  0.8666666666666667 1 0  0.8333333333333334 1 0  0.8 1 0  0.7666666666666666 1 0  0.7333333333333334 1 0  0.7 1 0  0.6666666666666667 1 0  0.6333333333333333 1 0  0.6 1 0  0.5666666666666667 1 0  0.5333333333333333 1 0  0.5 1 0  0.4666666666666667 1 0  0.4333333333333333 1 0  0.4 1 0  0.3666666666666667 1 0  0.3333333333333334 1 0  0.3 1 0  0.2666666666666667 1 0  0.2333333333333333 1 0  0.2 1 0  0.1666666666666666 1 0  0.1333333333333333 1 0  0.09999999999999998 1 0  0.06666666666666665 1 0  0.03333333333333333 1 0  0.6247072676344306 0.2689501343248463 0  0.6239274716502419 0.2788583817523955 0  0.6226301867455355 0.2887122389026952 0  0.6208189686880621 0.2984846970382296 0  0.6184987819006211 0.3081489705305245 0  0.6156759858539226 0.317678570277693 0  0.6123583176357204 0.3270473763092224 0  0.6085548707439923 0.3362297093789981 0  0.6042760701622942 0.3452004013503318 0  0.5995336437856049 0.3539348641800754 0  0.5943405902749808 0.3624091573127375 0  0.5887111434291297 0.3706000532998825 0  0.582660733170558 0.3784851014649517 0  0.5762059432532257 0.3860426894390078 0  0.5693644658076293 0.3932521023987353 0  0.5621550528479018 0.4000935798443317 0  0.5545974648738458 0.4065483697616639 0  0.5467124167087765 0.4125987800202355 0  0.5385215207216315 0.4182282268660866 0  0.5300472275889694 0.4234212803767108 0  0.5213127647592257 0.4281637067534002 0  0.512342072787892 0.4324425073350981 0  0.5031597397181163 0.4362459542268262 0  0.493790933686587 0.4395636224450283 0  0.4842613339394185 0.4423864184917269 0  0.4745970604471235 0.4447066052791678 0  0.4648246023115891 0.4465178233366412 0  0.4549707451612894 0.4478151082413475 0  0.4450624977337403 0.4485949042255363 0  0.4351270178464268 0.4488550739226177 0  0.4251915379591132 0.4485949042255363 0  0.4152832905315641 0.4478151082413475 0  0.4054294333812644 0.4465178233366411 0  0.39565697524573 0.4447066052791677 0  0.385992701753435 0.4423864184917267 0  0.3764631020062665 0.4395636224450281 0  0.3670942959747371 0.4362459542268259 0  0.3579119629049616 0.4324425073350978 0  0.3489412709336278 0.4281637067533998 0  0.3402068081038843 0.4234212803767103 0  0.3317325149712221 0.4182282268660862 0  0.3235416189840771 0.412598780020235 0  0.3156565708190078 0.4065483697616634 0  0.3080989828449519 0.4000935798443311 0  0.3008895698852244 0.3932521023987346 0  0.2940480924396279 0.3860426894390071 0  0.2875933025222958 0.3784851014649511 0  0.2815428922637242 0.3706000532998818 0  0.2759134454178731 0.3624091573127368 0  0.2707203919072489 0.3539348641800746 0  0.2659779655305596 0.3452004013503309 0  0.2616991649488616 0.3362297093789972 0  0.2578957180571336 0.3270473763092215 0  0.2545780498389315 0.3176785702776921 0  0.251755253792233 0.3081489705305236 0  0.249435067004792 0.2984846970382286 0  0.2476238489473186 0.2887122389026941 0  0.2463265640426123 0.2788583817523945 0  0.2455467680584236 0.2689501343248454 0  0.2452865983613423 0.2590146544375318 0  0.2455467680584237 0.2490791745502182 0  0.2463265640426126 0.2391709271226692 0  0.247623848947319 0.2293170699723696 0  0.2494350670047924 0.2195446118368351 0  0.2517552537922335 0.2098803383445402 0  0.2545780498389321 0.2003507385973717 0  0.2578957180571343 0.1909819325658423 0  0.2616991649488624 0.1817995994960667 0  0.2659779655305604 0.172828907524733 0  0.2707203919072498 0.1640944446949895 0  0.2759134454178741 0.1556201515623273 0  0.2815428922637251 0.1474292555751825 0  0.2875933025222969 0.1395442074101132 0  0.2940480924396291 0.1319866194360571 0  0.3008895698852256 0.1247772064763297 0  0.3080989828449531 0.1179357290307334 0  0.3156565708190092 0.1114809391134012 0  0.3235416189840785 0.1054305288548295 0  0.3317325149712236 0.09980108200897844 0  0.3402068081038856 0.0946080284983544 0  0.3489412709336291 0.08986560212166514 0  0.357911962904963 0.08558680153996717 0  0.3670942959747386 0.08178335464823916 0  0.3764631020062678 0.07846568643003712 0  0.3859927017534364 0.0756428903833386 0  0.3956569752457313 0.0733227035958976 0  0.4054294333812659 0.07151148553842429 0  0.4152832905315654 0.07021420063371797 0  0.4251915379591144 0.0694344046495293 0  0.435127017846428 0.0691742349524479 0  0.4450624977337415 0.06943440464952938 0  0.4549707451612905 0.07021420063371814 0  0.4648246023115901 0.07151148553842454 0  0.4745970604471245 0.07332270359589793 0  0.4842613339394195 0.07564289038333902 0  0.4937909336865879 0.07846568643003757 0  0.5031597397181173 0.0817833546482398 0  0.5123420727878929 0.08558680153996781 0  0.5213127647592265 0.08986560212166581 0  0.53004722758897 0.0946080284983552 0  0.5385215207216321 0.09980108200897933 0  0.5467124167087771 0.1054305288548305 0  0.5545974648738462 0.1114809391134021 0  0.5621550528479023 0.1179357290307343 0  0.5693644658076298 0.1247772064763308 0  0.576205943253226 0.1319866194360582 0  0.5826607331705582 0.1395442074101142 0  0.5887111434291299 0.1474292555751835 0  0.594340590274981 0.1556201515623285 0  0.5995336437856051 0.1640944446949906 0  0.6042760701622945 0.172828907524734 0  0.6085548707439925 0.1817995994960678 0  0.6123583176357205 0.1909819325658435 0  0.6156759858539227 0.2003507385973728 0  0.6184987819006211 0.2098803383445412 0  0.6208189686880622 0.2195446118368362 0  0.6226301867455355 0.2293170699723706 0  0.6239274716502419 0.2391709271226702 0  0.6247072676344306 0.2490791745502192 0  0.203885768735257 0.3325402459548524 0  0.2015714905276826 0.3421799084407872 0  0.1977777294810124 0.3513388578120612 0  0.1925979005829864 0.3597915703383434 0  0.1861595484119405 0.3673299121842922 0  0.1786212065659918 0.373768264355338 0  0.1701684940397096 0.378948093253364 0  0.1610095446684356 0.3827418543000342 0  0.1513698821825007 0.3850561325076086 0  0.1414868670645144 0.3858339426659677 0  0.1316038519465281 0.3850561325076086 0  0.1219641894605933 0.3827418543000343 0  0.1128052400893193 0.378948093253364 0  0.1043525275630371 0.3737682643553381 0  0.09681418571708833 0.3673299121842922 0  0.09037583354604248 0.3597915703383434 0  0.08519600464801645 0.3513388578120612 0  0.08140224360134621 0.3421799084407872 0  0.07908796539377183 0.3325402459548523 0  0.07831015523541281 0.3226572308368659 0  0.07908796539377186 0.3127742157188796 0  0.08140224360134626 0.3031345532329447 0  0.08519600464801655 0.2939756038616707 0  0.0903758335460426 0.2855228913353884 0  0.0968141857
[...]
<PointData  Vectors="$u$"> 
<DataArray  type="Float64"  Name="$u$"  NumberOfComponents="3" format="ascii">3.9328676982002339e-04 7.4133784030192907e-04 0.0000000000000000e+00  0.0000000000000000e+00 0.0000000000000000e+00 0.0000000000000000e+00  -1.0081960108722003e-03 0.0000000000000000e+00 0.0000000000000000e+00  -1.4803607728825960e-04 8.5000000000000006e-03 0.0000000000000000e+00  -1.1827042487125871e-03 8.5000000000000006e-03 0.0000000000000000e+00  -1.5947075478456600e-03 2.1597022998676046e-03 0.0000000000000000e+00  1.6992961695456975e-03 1.2293611428502173e-03 0.0000000000000000e+00  1.4498218524445251e-03 2.0971662024097297e-03 0.0000000000000000e+00  -9.0636384309438574e-04 2.6548903618485475e-04 0.0000000000000000e+00  -1.3324301305518967e-03 9.9682322870971704e-06 0.0000000000000000e+00  -1.5136771802208766e-03 2.1695601243917179e-04 0.0000000000000000e+00  6.7952985351845137e-05 3.3885848883455413e-03 0.0000000000000000e+00  -3.8364860208018859e-03 2.1913398467057203e-03 0.0000000000000000e+00  -4.5833750158155424e-04 5.1746018174500617e-03 0.0000000000000000e+00  -3.1600684611693267e-04 4.6550047512622832e-03 0.0000000000000000e+00  1.3555152188918064e-03 8.1896479877763481e-03 0.0000000000000000e+00  5.7550988840384309e-04 6.7024841670609318e-03 0.0000000000000000e+00  -6.6684496750746432e-04 8.1437744864862622e-03 0.0000000000000000e+00  -4.0854579492925324e-03 4.0593340477799176e-03 0.0000000000000000e+00  -2.9309286877939648e-03 6.2063667235717239e-03 0.0000000000000000e+00  -2.1001533215171662e-03 7.7414982586297316e-03 0.0000000000000000e+00  -1.9301360816242697e-03 7.7115230274103731e-03 0.0000000000000000e+00  5.2875301304940571e-04 8.7791135553438621e-04 0.0000000000000000e+00  6.7217517453991790e-04 9.9978253628300764e-04 0.0000000000000000e+00  8.0002874160525143e-04 1.1059149098220575e-03 0.0000000000000000e+00  8.9986352815631641e-04 1.1515681949003254e-03 0.0000000000000000e+00  9.7791343505146161e-04 1.1310367298026040e-03 0.0000000000000000e+00  9.9191751981809301e-04 1.0080266717711059e-03 0.0000000000000000e+00  9.7032295202058110e-04 8.2776250252889285e-04 0.0000000000000000e+00  8.8457665593745126e-04 6.7196653818720170e-04 0.0000000000000000e+00  7.6924405199138611e-04 5.8184902010673296e-04 0.0000000000000000e+00  6.6620186962274225e-04 5.4107245628236202e-04 0.0000000000000000e+00  5.5866245229351332e-04 4.8764963423933287e-04 0.0000000000000000e+00  4.6309170946389009e-04 4.4732810469670263e-04 0.0000000000000000e+00  3.7678272188807822e-04 3.9735430958529755e-04 0.0000000000000000e+00  3.0361561407397784e-04 3.5371201990341209e-04 0.0000000000000000e+00  2.3771807579576448e-04 3.2697638737001772e-04 0.0000000000000000e+00  1.9424039192233544e-04 3.1768808841995939e-04 0.0000000000000000e+00  1.6360424450894768e-04 3.3025851481063737e-04 0.0000000000000000e+00  1.5408796564178202e-04 3.6596520112078945e-04 0.0000000000000000e+00  1.7296787525900790e-04 4.2559168356195325e-04 0.0000000000000000e+00  2.1090336483010181e-04 5.0531022750699786e-04 0.0000000000000000e+00  2.8938547429704583e-04 6.1291512594166422e-04 0.0000000000000000e+00  0.0000000000000000e+00 0.0000000000000000e+00 0.0000000000000000e+00  -7.9297452621884346e-05 0.0000000000000000e+00 0.0000000000000000e+00  -1.0541317399223269e-04 0.0000000000000000e+00 0.0000000000000000e+00  -1.4056543995785503e-04 0.0000000000000000e+00 0.0000000000000000e+00  -1.6328838370561796e-04 0.0000000000000000e+00 0.0000000000000000e+00  -1.8745551955722195e-04 0.0000000000000000e+00 0.0000000000000000e+00  -2.0790373578720013e-04 0.0000000000000000e+00 0.0000000000000000e+00  -2.2846097229676176e-04 0.0000000000000000e+00 0.0000000000000000e+00  -2.4501238755192086e-04 0.0000000000000000e+00 0.0000000000000000e+00  -2.5826632109803585e-04 0.0000000000000000e+00 0.0000000000000000e+00  -2.7111305638840546e-04 0.0000000000000000e+00 0.0000000000000000e+00  -2.8783156604163902e-04 0.0000000000000000e+00 0.0000000000000000e+00  -3.0760309675595203e-04 0.0000000000000000e+00 0.0000000000000000e+00  -3.3066040869105635e-04 0.0000000000000000e+00 0.0000000000000000e+00  -3.5888583453888242e-04 0.0000000000000000e+00 0.0000000000000000e+00  -4.0220695135945715e-04 0.0000000000000000e+00 0.0000000000000000e+00  -4.6959760436954089e-04 0.0000000000000000e+00 0.0000000000000000e+00  -5.5873524531368905e-04 0.0000000000000000e+00 0.0000000000000000e+00  -6.2423126410539982e-04 0.0000000000000000e+00 0.0000000000000000e+00  -6.7999984253015581e-04 0.0000000000000000e+00 0.0000000000000000e+00  -7.5452484186726656e-04 0.0000000000000000e+00 0.0000000000000000e+00  -8.0620917392903036e-04 0.0000000000000000e+00 0.0000000000000000e+00  -8.2376851333642979e-04 0.0000000000000000e+00 0.0000000000000000e+00  -8.2873471910194652e-04 0.0000000000000000e+00 0.0000000000000000e+00  -8.3039020733066237e-04 0.0000000000000000e+00 0.0000000000000000e+00  -8.4359688836161924e-04 0.0000000000000000e+00 0.0000000000000000e+00  -8.6158038654988664e-04 0.0000000000000000e+00 0.0000000000000000e+00  -8.9818738244112721e-04 0.0000000000000000e+00 0.0000000000000000e+00  -9.4715786827715581e-04 0.0000000000000000e+00 0.0000000000000000e+00  -1.3254949727450934e-04 8.2627721978181645e-03 0.0000000000000000e+00  -7.9919196215525942e-05 8.0244403098512409e-03 0.0000000000000000e+00  7.8438601567474416e-06 7.7768857585823687e-03 0.0000000000000000e+00  1.4118857332079486e-04 7.5238392605428035e-03 0.0000000000000000e+00  3.1875479056501051e-04 7.2633614178512504e-03 0.0000000000000000e+00  5.4626332735008699e-04 6.9918858384641833e-03 0.0000000000000000e+00  8.2593956427874995e-04 6.7120165392451931e-03 0.0000000000000000e+00  1.1624576915990462e-03 6.4009284353185722e-03 0.0000000000000000e+00  1.5887906148544786e-03 6.0613454969939357e-03 0.0000000000000000e+00  2.1303038791547577e-03 5.6873512931087562e-03 0.0000000000000000e+00  2.8153749714245487e-03 5.3070927752254743e-03 0.0000000000000000e+00  3.6149534637004632e-03 4.9838929580725555e-03 0.0000000000000000e+00  4.3714638622831233e-03 4.8175538283303501e-03 0.0000000000000000e+00  4.3135066527106684e-03 4.8874610959847922e-03 0.0000000000000000e+00  3.6115388190072336e-03 4.6432405584741661e-03 0.0000000000000000e+00  3.0103731893961904e-03 4.2451656097235455e-03 0.0000000000000000e+00  2.7811245467988690e-03 3.5161152579773979e-03 0.0000000000000000e+00  2.5453833762072954e-03 3.0884825161348307e-03 0.0000000000000000e+00  2.0443460246264682e-03 2.7983674215051901e-03 0.0000000000000000e+00  1.6168150326186142e-03 2.3734974863640051e-03 0.0000000000000000e+00  1.3380946612188743e-03 2.0785259235363679e-03 0.0000000000000000e+00  1.0664541465901219e-03 1.8218427792683338e-03 0.0000000000000000e+00  8.1963146448518862e-04 1.5827928861033736e-03 0.0000000000000000e+00  6.0032088348611478e-04 1.3473304426952098e-03 0.0000000000000000e+00  4.1662406956015943e-04 1.1165756202595703e-03 0.0000000000000000e+00  2.7093752384495853e-04 8.8158630268414637e-04 0.0000000000000000e+00  1.6412727693036110e-04 6.5900202546803914e-04 0.0000000000000000e+00  9.0588843742577359e-05 4.2653770146055880e-04 0.0000000000000000e+00  5.9399409266113090e-05 2.2239373518479462e-04 0.0000000000000000e+00  -1.0226526451199503e-03 2.2586713732729931e-04 0.0000000000000000e+00  -1.0741812892764062e-03 4.5607271188691982e-04 0.0000000000000000e+00  -1.1607558743399970e-03 6.9145259820355891e-04 0.0000000000000000e+00  -1.2895977667472750e-03 9.3765179282141590e-04 0.0000000000000000e+00  -1.4678517540751095e-03 1.1970348694124284e-03 0.0000000000000000e+00  -1.7071574581448111e-03 1.4697726693191505e-03 0.0000000000000000e+00  -2.0126994849126358e-03 1.7492788061619401e-03 0.0000000000000000e+00  -2.3985206324002098e-03 2.0414057907887188e-03 0.0000000000000000e+00  -2.8637853613649017e-03 2.3131066241797180e-03 0.0000000000000000e+00  -3.3712576382638748e-03 2.5367982383914327e-03 0.0000000000000000e+00  -3.8294007978100023e-03 2.6806166366843708e-03 0.0000000000000000e+00  -4.1087665475807835e-03 2.7677186078153061e-03 0.0000000000000000e+00  -4.1725471069791161e-03 2.8875142634637468e-03 0.0000000000000000e+00  -4.1383875190494695e-03 3.1715063904520081e-03 0.0000000000000000e+00  -4.5761169709262282e-03 3.8036369367735307e-03 0.0000000000000000e+00  -4.4611820928016147e-03 3.8350995176209750e-03 0.0000000000000000e+00  -2.8883030734119298e-03 5.8079104254059061e-03 0.0000000000000000e+00  -3.0569222690070919e-03 6.0907241177786094e-03 0.0000000000000000e+00  -3.0409156656558385e-03 6.1970716420732281e-03 0.0000000000000000e+00  -2.7632433307497465e-03 6.3370925176965002e-03 0.0000000000000000e+00  -2.4252144024250817e-03 6.5434947000728855e-03 0.0000000000000000e+00  -2.1266496646341832e-03 6.7792553053523967e-03 0.0000000000000000e+00  -1.8738272511802899e-03 7.0085910591150677e-03 0.0000000000000000e+00  -1.6635701737900319e-03 7.2379253898077417e-03 0.0000000000000000e+00  -1.5009748955646419e-03 7.4650499243033332e-03 0.0000000000000000e+00  -1.3804631709952268e-03 7.6821637842970436e-03 0.0000000000000000e+00  -1.2918912505459699e-03 7.8920033983556886e-03 0.0000000000000000e+00  -1.2310517910311865e-03 8.0959339018097255e-03 0.0000000000000000e+00  -1.1936389693250535e-03 8.2984757342854237e-03 0.0000000000000000e+00  -1.1274714711475855e-03 8.5000000000000006e-03 0.0000000000000000e+00  -1.0774850323076212e-03 8.5000000000000006e-03 0.0000000000000000e+00  -1.0362436586346469e-03 8.5000000000000006e-03 0.0000000000000000e+00  -1.0004724370838536e-03 8.5000000000000006e-03 0.0000000000000000e+00  -9.6869915550789373e-04 8.5000000000000006e-03 0.0000000000000000e+00  -9.3893494719991713e-04 8.5000000000000006e-03 0.0000000000000000e+00  -9.1310269571396555e-04 8.5000000000000006e-03 0.0000000000000000e+00  -8.9318104000283877e-04 8.5000000000000006e-03 0.0000000000000000e+00  -8.7604965867870256e-04 8.5000000000000006e-03 0.0000000000000000e+00  -8.6389943465040074e-04 8.5000000000000006e-03 0.0000000000000000e+00  -8.4743478828896773e-04 8.5000000000000006e-03 0.0000000000000000e+00  -8.2820531904864649e-04 8.5000000000000006e-03 0.0000000000000000e+00  -8.0426688008809581e-04 8.5000000000000006e-03 0.0000000000000000e+00  -7.7825821477559172e-04 8.5000000000000006e-03 0.0000000000000000e+00  -7.5190514331788911e-04 8.5000000000000006e-03 0.0000000000000000e+00  -7.1982551309328086e-04 8.5000000000000006e-03 0.0000000000000000e+00  -6.7825403422413827e-04 8.5000000000000006e-03 0.0000000000000000e+00  -6.1936260239471813e-04 8.5000000000000006e-03 0.0000000000000000e+00  -5.5008949653936618e-04 8.5000000000000006e-03 0.0000000000000000e+00  -4.9025007296114149e-04 8.5000000000000006e-03 0.0000000000000000e+00  -4.5335886692150014e-04 8.5000000000000006e-03 0.0000000000000000e+00  -4.2120553535874021e-04 8.5000000000000006e-03 0.0000000000000000e+00  -3.8264744793511517e-04 8.5000000000000006e-03 0.0000000000000000e+00  -3.5334572972554461e-04 8.5000000000000006e-03 0.0000000000000000e+00  -3.3946484949449107e-04 8.5000000000000006e-03 0.0000000000000000e+00  -3.2191233754662421e-04 8.5000000000000006e-03 0.0000000000000000e+00  -3.0045633023121265e-04 8.5000000000000006e-03 0.0000000000000000e+00  -2.6379817851974861e-04 8.5000000000000006e-03 0.0000000000000000e+00  -2.1124370593898775e-04 8.5000000000000006e-03 0.0000000000000000e+00  -1.5025054091189884e-03 2.2862030849024571e-03 0.0000000000000000e+00  -1.3977729162315941e-03 2.4093748791590244e-03 0.0000000000000000e+00  -1.2811506847288981e-03 2.5346515033502193e-03 0.0000000000000000e+00  -1.1575260205903444e-03 2.6534789317553091e-03 0.0000000000000000e+00  -1.0281980603468999e-03 2.7741303694947669e-03 0.0000000000000000e+00  -8.9574012897327847e-04 2.8862810062876589e-03 0.0000000000000000e+00  -7.6528394766445880e-04 2.9886454838069735e-03 0.0000000000000000e+00  -6.4371879084921006e-04 3.0806012932278995e-03 0.0000000000000000e+00  -5.3201033492704939e-04 3.1582847765144295e-03 0.0000000000000000e+00  -4.3782307947212923e-04 3.2199762034523347e-03 0.0000000000000000e+00  -3.6264128992885477e-04 3.2685994350148020e-03 0.0000000000000000e+00  -3.0848510374257459e-04 3.3026922041423396e-03 0.0000000000000000e+00  -2.7802865855572822e-04 3.3260811395110471e-03 0.0000000000000000e+00  -2.6959339899729651e-04 3.3409968965855178e-03 0.0000000000000000e+00  -2.8469165705050434e-04 3.3489899830654638e-03 0.0000000000000000e+00  -3.2168297847460424e-04 3.3610878568893854e-03 0.0000000000000000e+00  -3.7114184535251668e-04 3.3836075163341021e-03 0.0000000000000000e+00  -4.2464830399786498e-04 3.4212628115065061e-03 0.0000000000000000e+00  -4.7566232266473186e-04 3.4761879380286512e-03 0.0000000000000000e+00  -5.1911518773199640e-04 3.5433612820653334e-03 0.0000000000000000e+00  -5.5614173301905671e-04 3.6245459044366487e-03 0.0000000000000000e+00  -5.8466905018981553e-04 3.7154506849066370e-03 0.0000000000000000e+00  -6.0470846058553035e-04 3.8147668433788692e-03 0.0000000000000000e+00  -6.1672651177453936e-04 3.9197797888213641e-03 0.0000000000000000e+00  -6.2051818031864838e-04 4.0270002805169137e-03 0.0000000000000000e+00  -6.1746477520556269e-04 4.1333280840474690e-03 0.0000000000000000e+00  -6.0678595134492025e-04 4.2353664635100905e-03 0.0000000000000000e+00  -5.9280080572492308e-04 4.3302580383879673e-03 0.0000000000000000e+00  -5.7480418829514287e-04 4.4174603230872026e-03 0.0000000000000000e+00  -5.5410397849059727e-04 4.4963145264880740e-03 0.0000000000000000e+00  -5.3129154977512552e-04 4.5672461443511834e-03 0.0000000000000000e+00  -5.0326982047078320e-04 4.6325413908849620e-03 0.0000000000000000e+00  -4.6671226809130305e-04 4.6896609194415559e-03 0.0000000000000000e+00  -4.1591517868222618e-04 4.7367024677569666e-03 0.0000000000000000e+00  -3.4202878943755176e-04 4.7636411094304481e-03 0.0000000000000000e+00  -2.4551093768371100e-04 4.7598529264595195e-03 0.0000000000000000e+00  -1.2688060454664631e-04 4.7206739850321078e-03 0.0000000000000000e+00  1.2311721997963587e-05 4.6442194683907409e-03 0.0000000000000000e+00  1.7101343063198956e-04 4.5308228092839431e-03 0.0000000000000000e+00  3.4705405265040228e-04 4.3784099959335012e-03 0.0000000000000000e+00  5.3582565022917679e-04 4.1894432081186241e-03 0.0000000000000000e+00  7.3193919088571514e-04 3.9648634789684143e-03 0.0000000000000000e+00  9.2395309946522548e-04 3.7131021817733956e-03 0.0000000000000000e+00  1.1076300502588605e-03 3.4423011865293727e-03 0.0000000000000000e+00  1.2752598162909499e-03 3.1638725484713125e-03 0.0000000000000000e+00  1.4154693511735672e-03 2.8842659853484118e-03 0.0000000000000000e+00  1.5326797006244410e-03 2.6253901204914519e-03 0.0000000000000000e+00  1.6115725119806761e-03 2.3770917131303833e-03 0.0000000000000000e+00  1.6579766508152403e-03 2.1416293320614499e-03 0.0000000000000000e+00  1.6876514102621447e-03 1.9231116496967572e-03 0.0000000000000000e+00  1.7002521927330636e-03 1.7224049665668635e-03 0.0000000000000000e+00  1.6889051161317705e-03 1.5418293127652041e-03 0.0000000000000000e+00  1.6566128434916715e-03 1.3673338667556667e-03 0.0000000000000000e+00  1.6001218038394587e-03 1.2055481015639865e-03 0.0000000000000000e+00  1.5299073081398047e-03 1.0617595413717246e-03 0.0000000000000000e+00  1.4333849246247717e-03 9.5195606051017327e-04 0.0000000000000000e+00  1.3196944264519549e-03 8.5937381729778368e-04 0.0000000000000000e+00  1.2017586732627056e-03 7.7711348554180540e-04 0.0000000000000000e+00  1.0829618192080774e-03 6.9695001373131383e-04 0.0000000000000000e+00  9.6258917745486604e-04 6.1795389778500668e-04 0.0000000000000000e+00  8.3742944281928883e-04 5.3592283246024525e-04 0.0000000000000000e+00  7.0294477785235864e-04 4.5293226968544858e-04 0.0000000000000000e+00  5.6285932906974018e-04 3.8437869228213288e-04 0.0000000000000000e+00  4.3271082347472439e-04 3.2852912169590930e-04 0.0000000000000000e+00  3.2256824203360580e-04 2.9004344308905696e-04 0.0000000000000000e+00  2.3835908713059668e-04 2.5812299021817856e-04 0.0000000000000000e+00  1.7598090407332465e-04 2.3111861178970182e-04 0.0000000000000000e+00  1.2911039721091012e-04 2.0204256682500912e-04 0.0000000000000000e+00  9.1174667643846829e-05 1.7349960838945768e-04 0.0000000000000000e+00  5.7371797272022324e-05 1.4413410955096923e-04 0.0000000000000000e+00  2.6255762834795899e-05 1.1748448429440478e-04 0.0000000000000000e+00  -3.4522841104180829e-06 9.2282513003116273e-05 0.0000000000000000e+00  -3.2062586989172979e-05 7.0872729053978167e-05 0.0000000000000000e+00  -5.9110035474041071e-05 5.1834131195711818e-05 0.0000000000000000e+00  -8.5098518849046441e-05 3.6910507667376023e-05 0.0000000000000000e+00  -1.0923923414538228e-04 2.4203874545594724e-05 0.0000000000000000e+00  -1.3191451381056423e-04 1.5090829127629734e-05 0.0000000000000000e+00  -1.5279959874559882e-04 8.0795667253945945e-06 0.0000000000000000e+00  -1.7180441046817948e-04 3.3716903503932437e-06 0.0000000000000000e+00  -1.8976510864676530e-04 5.9753588758024451e-07 0.0000000000000000e+00  -2.0573196425555186e-04 -6.3152015376560529e-07 0.0000000000000000e+00  -2.2078026444179909e-04 -8.0349308306429162e-07 0.0000000000000000e+00  -2.3436610806966656e-04 -1.0639884478575634e-07 0.0000000000000000e+00  -2.4727855899956568e-04 1.0656109478496046e-06 0.0000000000000000e+00  -2.5921846218197582e-04 2.5807546608181121e-06 0.0000000000000000e+00  -2.7092217265206706e-04 4.1193271373888120e-06 0.0000000000000000e+00  -2.8210526804027097e-04 5.7557390976954018e-06 0.0000000000000000e+00  -2.9316634086399564e-04 7.2428366556581844e-06 0.0000000000000000e+00  -3.0425122196376097e-04 8.7878964619752694e-06 0.0000000000000000e+00  -3.1544215672611302e-04 1.0422379532724201e-05 0.0000000000000000e+00  -3.2682062261194352e-04 1.2429792544615223e-05 0.0000000000000000e+00  -3.3811260951580220e-04 1.4918202890179030e-05 0.0000000000000000e+00  -3.4978275111799905e-04 1.8245583680561141e-05 0.0000000000000000e+00  -3.6142976812038552e-04 2.3199466541565220e-05 0.0000000000000000e+00  -3.7216247706938323e-04 2.9410911306169413e-05 0.0000000000000000e+00  -3.8277842687451324e-04 3.7633129841566776e-05 0.0000000000000000e+00  -3.9149390797877021e-04 4.7718164052034706e-05 0.0000000000000000e+00  -3.9908506019091771e-04 5.9581368156255492e-05 0.0000000000000000e+00  -4.0515916369042340e-04 7.2959731056674280e-05 0.0000000000000000e+00  -4.0935797584241675e-04 8.7854264667528659e-05 0.0000000000000000e+00  -4.1425939254544991e-04 1.0274895993250313e-04 0.0000000000000000e+00  -4.1979274993250184e-04 1.1923069572340156e-04 0.0000000000000000e+00  -4.3575061698486310e-04 1.3433045101412323e-04 0.0000000000000000e+00  -4.6176365473266009e-04 1.5801671958120769e-04 0.0000000000000000e+00  -5.1128362089400566e-04 1.8772778410096916e-04 0.0000000000000000e+00  -5.7984444033189675e-04 2.3891065890420534e-04 0.0000000000000000e+00  -6.6945305021080196e-04 3.1005554329329333e-04 0.0000000000000000e+00  -7.6790653926671077e-04 4.0092601852917208e-04 0.0000000000000000e+00  -8.7232719335804366e-04 5.0243802145766867e-04 0.0000000000000000e+00  -9.8025973144206212e-04 6.0688698611307765e-04 0.0000000000000000e+00  -1.1014521586712039e-03 7.1176455845027835e-04 0.0000000000000000e+00  -1.2325544167781058e-03 8.2714978990629576e-04 0.0000000000000000e+00  -1.3722911510089381e-03 9.5437935960499952e-04 0.0000000000000000e+00  -1.5058220109052205e-03 1.0971897242546165e-03 0.0000000000000000e+00  -1.6211685055512572e-03 1.2526939327379854e-03 0.0000000000000000e+00  -1.6773965857189356e-03 1.4272657427256538e-03 0.0000000000000000e+00  -1.6956440028268736e-03 1.6296961613969411e-03 0.0000000000000000e+00  -1.6834901652462216e-03 1.8341956490197605e-03 0.0000000000000000e+00  -1.6568052868176628e-03 2.0114811066560758e-03 0.0000000000000000e+00  1.7342590711631992e-03 1.2172692880262693e-03 0.0000000000000000e+00  1.7238210686124822e-03 1.1853065617590754e-03 0.0000000000000000e+00  1.6724867293915566e-03 1.1392438576359367e-03 0.0000000000000000e+00  1.5905691767922178e-03 1.09308814