<?xml version="1.0"?>
<VTKFile type="UnstructuredGrid"  version="0.1"  >
<UnstructuredGrid>
<Piece  NumberOfPoints="3879" NumberOfCells="6881">
<Points>
<DataArray  type="Float64"  NumberOfComponents="3"  format="ascii">0.207524190028372 0.2122422770132111 0  0 0 0  1 0 0  0 1 0  1 1 0  0.6249674373315121 0.2590146544375328 0  0.204663578893616 0.322657230836866 0  0.09605577522599912 0.4018360776629776 0  0.671351124618251 0.08738059142081528 0  0.7842102907526436 0.1666439122351055 0  0.8512483166984784 0.1985391006160637 0  0.6418797837909295 0.4423157172830166 0  0.9292488447973215 0.3869277868069776 0  0.3197896119137055 0.5509935221980964 0  0.3979283685568406 0.5079871620336583 0  0.1572503457993085 0.7345153245035532 0  0.3032914287999163 0.7872981443735918 0  0.3549464687598876 0.8870324161721976 0  0.9691791685505482 0.5159450047798622 0  0.9447564590470373 0.6146164845729313 0  0.7687603548175107 0.7176858127488035 0  0.8926159261971183 0.7422924070424508 0  0.2061587782631535 0.2217389244366831 0  0.2021731605082994 0.2304662099646423 0  0.1958902278109265 0.2377171008267789 0  0.1878189860121365 0.2429041729681512 0  0.1786133191209442 0.2456072006525708 0  0.1690190155206647 0.2456072006525708 0  0.1598133486294724 0.2429041729681512 0  0.1517421068306824 0.2377171008267789 0  0.1454591741333096 0.2304662099646422 0  0.1414735563784554 0.221738924436683 0  0.1401081446132369 0.212242277013211 0  0.1414735563784555 0.202745629589739 0  0.1454591741333096 0.1940183440617798 0  0.1517421068306825 0.1867674531996431 0  0.1598133486294725 0.1815803810582709 0  0.1690190155206649 0.1788773533738513 0  0.1786133191209443 0.1788773533738514 0  0.1878189860121367 0.181580381058271 0  0.1958902278109266 0.1867674531996433 0  0.2021731605082994 0.19401834406178 0  0.2061587782631535 0.2027456295897391 0  0.03333333333333333 0 0  0.06666666666666667 0 0  0.1 0 0  0.1333333333333333 0 0  0.1666666666666667 0 0  0.2 0 0  0.2333333333333333 0 0  0.2666666666666667 0 0  0.3 0 0  0.3333333333333333 0 0  0.3666666666666666 0 0  0.4 0 0  0.4333333333333333 0 0  0.4666666666666667 0 0  0.5 0 0  0.5333333333333333 0 0  0.5666666666666667 0 0  0.6 0 0  0.6333333333333333 0 0  0.6666666666666666 0 0  0.7 0 0  0.7333333333333333 0 0  0.7666666666666667 0 0  0.8 0 0  0.8333333333333334 0 0  0.8666666666666667 0 0  0.9 0 0  0.9333333333333333 0 0  0.9666666666666667 0 0  0 0.9666666666666667 0  0 0.9333333333333333 0  0 0.9 0  0 0.8666666666666667 0  0 0.8333333333333334 0  0 0.8 0  0 0.7666666666666666 0  0 0.7333333333333334 0  0 0.7 0  0 0.6666666666666667 0  0 0.6333333333333333 0  0 0.6 0  0 0.5666666666666667 0  0 0.5333333333333333 0  0 0.5 0  0 0.4666666666666667 0  0 0.4333333333333333 0  0 0.4 0  0 0.3666666666666667 0  0 0.3333333333333334 0  0 0.3 0  0 0.2666666666666667 0  0 0.2333333333333333 0  0 0.2 0  0 0.1666666666666666 0  0 0.1333333333333333 0  0 0.09999999999999998 0  0 0.06666666666666665 0  0 0.03333333333333333 0  1 0.03333333333333333 0  1 0.06666666666666667 0  1 0.1 0  1 0.1333333333333333 0  1 0.1666666666666667 0  1 0.2 0  1 0.2333333333333333 0  1 0.2666666666666667 0  1 0.3 0  1 0.3333333333333333 0  1 0.3666666666666666 0  1 0.4 0  1 0.4333333333333333 0  1 0.4666666666666667 0  1 0.5 0  1 0.5333333333333333 0  1 0.5666666666666667 0  1 0.6 0  1 0.6333333333333333 0  1 0.6666666666666666 0  1 0.7 0  1 0.7333333333333333 0  1 0.7666666666666667 0  1 0.8 0  1 0.8333333333333334 0  1 0.8666666666666667 0  1 0.9 0  1 0.9333333333333333 0  1 0.9666666666666667 0  0.9666666666666667 1 0  0.9333333333333333 1 0  0.9 1 0  0.8666666666666667 1 0  0.8333333333333334 1 0  0.8 1 0  0.7666666666666666 1 0  0.7333333333333334 1 0  0.7 1 0  0.6666666666666667 1 0  0.6333333333333333 1 0  0.6 1 0  0.5666666666666667 1 0  0.5333333333333333 1 0  0.5 1 0  0.4666666666666667 1 0  0.4333333333333333 1 0  0.4 1 0  0.3666666666666667 1 0  0.3333333333333334 1 0  0.3 1 0  0.2666666666666667 1 0  0.2333333333333333 1 0  0.2 1 0  0.1666666666666666 1 0  0.1333333333333333 1 0  0.09999999999999998 1 0  0.06666666666666665 1 0  0.03333333333333333 1 0  0.6247072676344306 0.2689501343248463 0  0.6239274716502419 0.2788583817523955 0  0.6226301867455355 0.2887122389026952 0  0.6208189686880621 0.2984846970382296 0  0.6184987819006211 0.3081489705305245 0  0.6156759858539226 0.317678570277693 0  0.6123583176357204 0.3270473763092224 0  0.6085548707439923 0.3362297093789981 0  0.6042760701622942 0.3452004013503318 0  0.5995336437856049 0.3539348641800754 0  0.5943405902749808 0.3624091573127375 0  0.5887111434291297 0.3706000532998825 0  0.582660733170558 0.3784851014649517 0  0.5762059432532257 0.3860426894390078 0  0.5693644658076293 0.3932521023987353 0  0.5621550528479018 0.4000935798443317 0  0.5545974648738458 0.4065483697616639 0  0.5467124167087765 0.4125987800202355 0  0.5385215207216315 0.4182282268660866 0  0.5300472275889694 0.4234212803767108 0  0.5213127647592257 0.4281637067534002 0  0.512342072787892 0.4324425073350981 0  0.5031597397181163 0.4362459542268262 0  0.493790933686587 0.4395636224450283 0  0.4842613339394185 0.4423864184917269 0  0.4745970604471235 0.4447066052791678 0  0.4648246023115891 0.4465178233366412 0  0.4549707451612894 0.4478151082413475 0  0.4450624977337403 0.4485949042255363 0  0.4351270178464268 0.4488550739226177 0  0.4251915379591132 0.4485949042255363 0  0.4152832905315641 0.4478151082413475 0  0.4054294333812644 0.4465178233366411 0  0.39565697524573 0.4447066052791677 0  0.385992701753435 0.4423864184917267 0  0.3764631020062665 0.4395636224450281 0  0.3670942959747371 0.4362459542268259 0  0.3579119629049616 0.4324425073350978 0  0.3489412709336278 0.4281637067533998 0  0.3402068081038843 0.4234212803767103 0  0.3317325149712221 0.4182282268660862 0  0.3235416189840771 0.412598780020235 0  0.3156565708190078 0.4065483697616634 0  0.3080989828449519 0.4000935798443311 0  0.3008895698852244 0.3932521023987346 0  0.2940480924396279 0.3860426894390071 0  0.2875933025222958 0.3784851014649511 0  0.2815428922637242 0.3706000532998818 0  0.2759134454178731 0.3624091573127368 0  0.2707203919072489 0.3539348641800746 0  0.2659779655305596 0.3452004013503309 0  0.2616991649488616 0.3362297093789972 0  0.2578957180571336 0.3270473763092215 0  0.2545780498389315 0.3176785702776921 0  0.251755253792233 0.3081489705305236 0  0.249435067004792 0.2984846970382286 0  0.2476238489473186 0.2887122389026941 0  0.2463265640426123 0.2788583817523945 0  0.2455467680584236 0.2689501343248454 0  0.2452865983613423 0.2590146544375318 0  0.2455467680584237 0.2490791745502182 0  0.2463265640426126 0.2391709271226692 0  0.247623848947319 0.2293170699723696 0  0.2494350670047924 0.2195446118368351 0  0.2517552537922335 0.2098803383445402 0  0.2545780498389321 0.2003507385973717 0  0.2578957180571343 0.1909819325658423 0  0.2616991649488624 0.1817995994960667 0  0.2659779655305604 0.172828907524733 0  0.2707203919072498 0.1640944446949895 0  0.2759134454178741 0.1556201515623273 0  0.2815428922637251 0.1474292555751825 0  0.2875933025222969 0.1395442074101132 0  0.2940480924396291 0.1319866194360571 0  0.3008895698852256 0.1247772064763297 0  0.3080989828449531 0.1179357290307334 0  0.3156565708190092 0.1114809391134012 0  0.3235416189840785 0.1054305288548295 0  0.3317325149712236 0.09980108200897844 0  0.3402068081038856 0.0946080284983544 0  0.3489412709336291 0.08986560212166514 0  0.357911962904963 0.08558680153996717 0  0.3670942959747386 0.08178335464823916 0  0.3764631020062678 0.07846568643003712 0  0.3859927017534364 0.0756428903833386 0  0.3956569752457313 0.0733227035958976 0  0.4054294333812659 0.07151148553842429 0  0.4152832905315654 0.07021420063371797 0  0.4251915379591144 0.0694344046495293 0  0.435127017846428 0.0691742349524479 0  0.4450624977337415 0.06943440464952938 0  0.4549707451612905 0.07021420063371814 0  0.4648246023115901 0.07151148553842454 0  0.4745970604471245 0.07332270359589793 0  0.4842613339394195 0.07564289038333902 0  0.4937909336865879 0.07846568643003757 0  0.5031597397181173 0.0817833546482398 0  0.5123420727878929 0.08558680153996781 0  0.5213127647592265 0.08986560212166581 0  0.53004722758897 0.0946080284983552 0  0.5385215207216321 0.09980108200897933 0  0.5467124167087771 0.1054305288548305 0  0.5545974648738462 0.1114809391134021 0  0.5621550528479023 0.1179357290307343 0  0.5693644658076298 0.1247772064763308 0  0.576205943253226 0.1319866194360582 0  0.5826607331705582 0.1395442074101142 0  0.5887111434291299 0.1474292555751835 0  0.594340590274981 0.1556201515623285 0  0.5995336437856051 0.1640944446949906 0  0.6042760701622945 0.172828907524734 0  0.6085548707439925 0.1817995994960678 0  0.6123583176357205 0.1909819325658435 0  0.6156759858539227 0.2003507385973728 0  0.6184987819006211 0.2098803383445412 0  0.6208189686880622 0.2195446118368362 0  0.6226301867455355 0.2293170699723706 0  0.6239274716502419 0.2391709271226702 0  0.6247072676344306 0.2490791745502192 0  0.203885768735257 0.3325402459548524 0  0.2015714905276826 0.3421799084407872 0  0.1977777294810124 0.3513388578120612 0  0.1925979005829864 0.3597915703383434 0  0.1861595484119405 0.3673299121842922 0  0.1786212065659918 0.373768264355338 0  0.1701684940397096 0.378948093253364 0  0.1610095446684356 0.3827418543000342 0  0.1513698821825007 0.3850561325076086 0  0.1414868670645144 0.3858339426659677 0  0.1316038519465281 0.3850561325076086 0  0.1219641894605933 0.3827418543000343 0  0.1128052400893193 0.378948093253364 0  0.1043525275630371 0.3737682643553381 0  0.09681418571708833 0.3673299121842922 0  0.09037583354604248 0.3597915703383434 0  0.08519600464801645 0.3513388578120612 0  0.08140224360134621 0.3421799084407872 0  0.07908796539377183 0.3325402459548523 0  0.07831015523541281 0.3226572308368659 0  0.07908796539377186 0.3127742157188796 0  0.08140224360134626 0.3031345532329447 0  0.08519600464801655 0.2939756038616707 0  0.0903758335460426 0.2855228913353884 0  0.0968141857
[...]
<PointData  Vectors="$u$"> 
<DataArray  type="Float64"  Name="$u$"  NumberOfComponents="3" format="ascii">2.3207371812878350e-04 4.3759266619716503e-04 0.0000000000000000e+00  0.0000000000000000e+00 0.0000000000000000e+00 0.0000000000000000e+00  -5.3389662023431959e-04 0.0000000000000000e+00 0.0000000000000000e+00  -7.3999839113230689e-05 4.7499999999999999e-03 0.0000000000000000e+00  -6.2515562799957645e-04 4.7499999999999999e-03 0.0000000000000000e+00  -8.8299483420977516e-04 1.1364661119982174e-03 0.0000000000000000e+00  9.1915410235465377e-04 7.1330076725221623e-04 0.0000000000000000e+00  7.9519169581213620e-04 1.3435515715869649e-03 0.0000000000000000e+00  -4.7059850491444643e-04 1.6342313661162893e-04 0.0000000000000000e+00  -7.1813314480094134e-04 2.0805844768958607e-05 0.0000000000000000e+00  -8.2433931061227364e-04 1.7096239542651107e-04 0.0000000000000000e+00  -1.2210991409969589e-04 1.8570961299815699e-03 0.0000000000000000e+00  -2.1758594973572817e-03 1.4613247469924674e-03 0.0000000000000000e+00  -3.4740722527726667e-04 2.9126352967835099e-03 0.0000000000000000e+00  -2.7403655837365153e-04 2.6137424326312915e-03 0.0000000000000000e+00  6.7217554054646870e-04 4.5094154617233619e-03 0.0000000000000000e+00  2.5364942507242257e-04 3.8069190951081264e-03 0.0000000000000000e+00  -3.5821630764191928e-04 4.5527109292912565e-03 0.0000000000000000e+00  -2.3029446222407961e-03 2.5108916771239085e-03 0.0000000000000000e+00  -1.7793055835938990e-03 3.2967379723395987e-03 0.0000000000000000e+00  -1.2048628637166669e-03 4.3217197973538547e-03 0.0000000000000000e+00  -1.0931319864454585e-03 4.2180078588565807e-03 0.0000000000000000e+00  3.1022734072877017e-04 5.1507376807556637e-04 0.0000000000000000e+00  3.9195762611916136e-04 5.8390881087145750e-04 0.0000000000000000e+00  4.6387308725586915e-04 6.4116148549467908e-04 0.0000000000000000e+00  5.1883812497777887e-04 6.6559815170853939e-04 0.0000000000000000e+00  5.5799522877392281e-04 6.5275708918429418e-04 0.0000000000000000e+00  5.6421284850669028e-04 5.8684368018894692e-04 0.0000000000000000e+00  5.4974508370250210e-04 4.9128486822088454e-04 0.0000000000000000e+00  5.0514491017657117e-04 4.1070345684612647e-04 0.0000000000000000e+00  4.3924382884347006e-04 3.6570294173500847e-04 0.0000000000000000e+00  3.7972245853245965e-04 3.4206594342102567e-04 0.0000000000000000e+00  3.1905219010951711e-04 3.1211134214888855e-04 0.0000000000000000e+00  2.6514619774153833e-04 2.8528281755267300e-04 0.0000000000000000e+00  2.1630983433998388e-04 2.5373673490164411e-04 0.0000000000000000e+00  1.7458685149173607e-04 2.2525034804534092e-04 0.0000000000000000e+00  1.3793522004714319e-04 2.0627738872721734e-04 0.0000000000000000e+00  1.1333322391570787e-04 1.9807211081836838e-04 0.0000000000000000e+00  9.6166487149325762e-05 2.0335621641906157e-04 0.0000000000000000e+00  9.1824831706573397e-05 2.2278094685676943e-04 0.0000000000000000e+00  1.0284198773466286e-04 2.5662987217155722e-04 0.0000000000000000e+00  1.2666591998680219e-04 3.0299076921623980e-04 0.0000000000000000e+00  1.7097881730744166e-04 3.6483144590688594e-04 0.0000000000000000e+00  0.0000000000000000e+00 0.0000000000000000e+00 0.0000000000000000e+00  -4.7092099931799925e-05 0.0000000000000000e+00 0.0000000000000000e+00  -6.4970033129765366e-05 0.0000000000000000e+00 0.0000000000000000e+00  -8.5133530541932936e-05 0.0000000000000000e+00 0.0000000000000000e+00  -9.9247935622107344e-05 0.0000000000000000e+00 0.0000000000000000e+00  -1.1234549052913884e-04 0.0000000000000000e+00 0.0000000000000000e+00  -1.2326685484223565e-04 0.0000000000000000e+00 0.0000000000000000e+00  -1.3328974257681721e-04 0.0000000000000000e+00 0.0000000000000000e+00  -1.4077890236360930e-04 0.0000000000000000e+00 0.0000000000000000e+00  -1.4577819000719108e-04 0.0000000000000000e+00 0.0000000000000000e+00  -1.5031770059798768e-04 0.0000000000000000e+00 0.0000000000000000e+00  -1.5690218545772291e-04 0.0000000000000000e+00 0.0000000000000000e+00  -1.6514133007526144e-04 0.0000000000000000e+00 0.0000000000000000e+00  -1.7527353878866531e-04 0.0000000000000000e+00 0.0000000000000000e+00  -1.8802097648990844e-04 0.0000000000000000e+00 0.0000000000000000e+00  -2.0911580964904969e-04 0.0000000000000000e+00 0.0000000000000000e+00  -2.4275110401916799e-04 0.0000000000000000e+00 0.0000000000000000e+00  -2.8807546137469799e-04 0.0000000000000000e+00 0.0000000000000000e+00  -3.2075863363009228e-04 0.0000000000000000e+00 0.0000000000000000e+00  -3.4905474273109240e-04 0.0000000000000000e+00 0.0000000000000000e+00  -3.8799014644405675e-04 0.0000000000000000e+00 0.0000000000000000e+00  -4.1352245978633286e-04 0.0000000000000000e+00 0.0000000000000000e+00  -4.2021045365576992e-04 0.0000000000000000e+00 0.0000000000000000e+00  -4.2039059829749995e-04 0.0000000000000000e+00 0.0000000000000000e+00  -4.2021338377572605e-04 0.0000000000000000e+00 0.0000000000000000e+00  -4.2796911650856576e-04 0.0000000000000000e+00 0.0000000000000000e+00  -4.3969342076176495e-04 0.0000000000000000e+00 0.0000000000000000e+00  -4.6343405500067820e-04 0.0000000000000000e+00 0.0000000000000000e+00  -4.9501312449667142e-04 0.0000000000000000e+00 0.0000000000000000e+00  -6.5458660974285690e-05 4.6105517091127365e-03 0.0000000000000000e+00  -3.6907102596510705e-05 4.4702343574279328e-03 0.0000000000000000e+00  1.1267676806678707e-05 4.3244179118522132e-03 0.0000000000000000e+00  8.4269172880340959e-05 4.1755354051178457e-03 0.0000000000000000e+00  1.8192736665728385e-04 4.0217440879500108e-03 0.0000000000000000e+00  3.0674402850712907e-04 3.8629940090422138e-03 0.0000000000000000e+00  4.5816406784968204e-04 3.7001488893527710e-03 0.0000000000000000e+00  6.3660872621255904e-04 3.5218177174459026e-03 0.0000000000000000e+00  8.5873818642019856e-04 3.3279666561363865e-03 0.0000000000000000e+00  1.1408523631632093e-03 3.1169465728540699e-03 0.0000000000000000e+00  1.4903835633144798e-03 2.9185923121659778e-03 0.0000000000000000e+00  1.8561490191695636e-03 2.7725916660016822e-03 0.0000000000000000e+00  2.1117612031650236e-03 2.6965892252117617e-03 0.0000000000000000e+00  2.1236025220024691e-03 2.6547671258420713e-03 0.0000000000000000e+00  1.9198070702056869e-03 2.5491274313802418e-03 0.0000000000000000e+00  1.6517681739688108e-03 2.3476945814294675e-03 0.0000000000000000e+00  1.4920635494146972e-03 2.0655925105797610e-03 0.0000000000000000e+00  1.4043855688132708e-03 1.8687268405322974e-03 0.0000000000000000e+00  1.1530310588243771e-03 1.6887833237422586e-03 0.0000000000000000e+00  9.3362899229632078e-04 1.4500525492585855e-03 0.0000000000000000e+00  7.8048184564604177e-04 1.2730018900019642e-03 0.0000000000000000e+00  6.2706614902154154e-04 1.1183618337924956e-03 0.0000000000000000e+00  4.8239439628321656e-04 9.7197438748723372e-04 0.0000000000000000e+00  3.5358243548280446e-04 8.2658022574098801e-04 0.0000000000000000e+00  2.4556853197230431e-04 6.8404833401770047e-04 0.0000000000000000e+00  1.6020960148532029e-04 5.3994133026382155e-04 0.0000000000000000e+00  9.7775961017976533e-05 4.0247921039365380e-04 0.0000000000000000e+00  5.4721972498676925e-05 2.6173290301630895e-04 0.0000000000000000e+00  3.6081577058889323e-05 1.3539430550277428e-04 0.0000000000000000e+00  -5.4272631676322719e-04 1.4378867112943382e-04 0.0000000000000000e+00  -5.7352544121169074e-04 2.8982301789831372e-04 0.0000000000000000e+00  -6.2535047757105648e-04 4.3971233272632092e-04 0.0000000000000000e+00  -7.0254114046462886e-04 5.9645511784207461e-04 0.0000000000000000e+00  -8.0913007670185518e-04 7.6102836583514068e-04 0.0000000000000000e+00  -9.5206398479151825e-04 9.3483083207909637e-04 0.0000000000000000e+00  -1.1349993397232123e-03 1.1130149951365752e-03 0.0000000000000000e+00  -1.3654138686120178e-03 1.2980984561756768e-03 0.0000000000000000e+00  -1.6402095949374920e-03 1.4689786353677041e-03 0.0000000000000000e+00  -1.9311107097140399e-03 1.6098136490255036e-03 0.0000000000000000e+00  -2.1783788556065942e-03 1.7065156824672318e-03 0.0000000000000000e+00  -2.3204697821652275e-03 1.7854306752805667e-03 0.0000000000000000e+00  -2.3491985071488015e-03 1.8896953947164835e-03 0.0000000000000000e+00  -2.3421539788320285e-03 2.0820076689398778e-03 0.0000000000000000e+00  -2.4398428540141231e-03 2.2996854587129601e-03 0.0000000000000000e+00  -2.2067169935423231e-03 2.4333347498351142e-03 0.0000000000000000e+00  -1.9152148865587591e-03 2.7878101684184644e-03 0.0000000000000000e+00  -1.8832365540423844e-03 3.0391694478405793e-03 0.0000000000000000e+00  -1.8041915230076603e-03 3.1747157965430093e-03 0.0000000000000000e+00  -1.6210298448644397e-03 3.3025414510538982e-03 0.0000000000000000e+00  -1.4097829021076792e-03 3.4529076944855943e-03 0.0000000000000000e+00  -1.2229631021013383e-03 3.6134253851767949e-03 0.0000000000000000e+00  -1.0642222721348438e-03 3.7679971666977488e-03 0.0000000000000000e+00  -9.3163035265411763e-04 3.9203664717194359e-03 0.0000000000000000e+00  -8.2809318862415906e-04 4.0703227704224545e-03 0.0000000000000000e+00  -7.5093834359189900e-04 4.2136118109646244e-03 0.0000000000000000e+00  -6.9433508582474664e-04 4.3518547196966075e-03 0.0000000000000000e+00  -6.5576953919441747e-04 4.4860737711867500e-03 0.0000000000000000e+00  -6.3220387076851439e-04 4.6182887354930709e-03 0.0000000000000000e+00  -5.8908983682593938e-04 4.7499999999999999e-03 0.0000000000000000e+00  -5.5673777361004274e-04 4.7499999999999999e-03 0.0000000000000000e+00  -5.3050397703568802e-04 4.7499999999999999e-03 0.0000000000000000e+00  -5.0894171046702804e-04 4.7499999999999999e-03 0.0000000000000000e+00  -4.9072675300145332e-04 4.7499999999999999e-03 0.0000000000000000e+00  -4.7504541416053774e-04 4.7499999999999999e-03 0.0000000000000000e+00  -4.6257514819034016e-04 4.7499999999999999e-03 0.0000000000000000e+00  -4.5407431779289172e-04 4.7499999999999999e-03 0.0000000000000000e+00  -4.4791812199482890e-04 4.7499999999999999e-03 0.0000000000000000e+00  -4.4456591125054861e-04 4.7499999999999999e-03 0.0000000000000000e+00  -4.3894859013959229e-04 4.7499999999999999e-03 0.0000000000000000e+00  -4.3153485812980692e-04 4.7499999999999999e-03 0.0000000000000000e+00  -4.2151764069660845e-04 4.7499999999999999e-03 0.0000000000000000e+00  -4.1026999135904460e-04 4.7499999999999999e-03 0.0000000000000000e+00  -3.9879947654606045e-04 4.7499999999999999e-03 0.0000000000000000e+00  -3.8394497739832335e-04 4.7499999999999999e-03 0.0000000000000000e+00  -3.6365696799439326e-04 4.7499999999999999e-03 0.0000000000000000e+00  -3.3373543295216835e-04 4.7499999999999999e-03 0.0000000000000000e+00  -2.9815641462489084e-04 4.7499999999999999e-03 0.0000000000000000e+00  -2.6786868551862265e-04 4.7499999999999999e-03 0.0000000000000000e+00  -2.4953794561499086e-04 4.7499999999999999e-03 0.0000000000000000e+00  -2.3289175224467756e-04 4.7499999999999999e-03 0.0000000000000000e+00  -2.1180856063356362e-04 4.7499999999999999e-03 0.0000000000000000e+00  -1.9603866910857551e-04 4.7499999999999999e-03 0.0000000000000000e+00  -1.8833718013958967e-04 4.7499999999999999e-03 0.0000000000000000e+00  -1.7814524210972617e-04 4.7499999999999999e-03 0.0000000000000000e+00  -1.6491493535110779e-04 4.7499999999999999e-03 0.0000000000000000e+00  -1.4282953744804220e-04 4.7499999999999999e-03 0.0000000000000000e+00  -1.1141361518730801e-04 4.7499999999999999e-03 0.0000000000000000e+00  -8.4023021748329501e-04 1.2125018797642748e-03 0.0000000000000000e+00  -7.9058483610261498e-04 1.2847603574125226e-03 0.0000000000000000e+00  -7.3408405320373859e-04 1.3565450027396640e-03 0.0000000000000000e+00  -6.7360548524300482e-04 1.4239243916981904e-03 0.0000000000000000e+00  -6.0995716374557130e-04 1.4913372824145986e-03 0.0000000000000000e+00  -5.4445672780633280e-04 1.5537164345088897e-03 0.0000000000000000e+00  -4.7998603141045248e-04 1.6101412701150981e-03 0.0000000000000000e+00  -4.2018729536151908e-04 1.6600889710390752e-03 0.0000000000000000e+00  -3.6591350465253877e-04 1.7017025626257171e-03 0.0000000000000000e+00  -3.2133904372303184e-04 1.7341963014897406e-03 0.0000000000000000e+00  -2.8721498786034576e-04 1.7586825688297523e-03 0.0000000000000000e+00  -2.6497821565802824e-04 1.7755273461236192e-03 0.0000000000000000e+00  -2.5562191468880130e-04 1.7861662315739619e-03 0.0000000000000000e+00  -2.5832513987794907e-04 1.7926923566099900e-03 0.0000000000000000e+00  -2.7364748512349700e-04 1.7958794603905124e-03 0.0000000000000000e+00  -3.0035069581622328e-04 1.8018082954191358e-03 0.0000000000000000e+00  -3.3360437067292582e-04 1.8143931566129343e-03 0.0000000000000000e+00  -3.6816886274409978e-04 1.8359184595562246e-03 0.0000000000000000e+00  -4.0107091255285734e-04 1.8680949427816501e-03 0.0000000000000000e+00  -4.2854271084575196e-04 1.9080206621531553e-03 0.0000000000000000e+00  -4.5204771565180162e-04 1.9568399205068671e-03 0.0000000000000000e+00  -4.6975476244603043e-04 2.0124215230905673e-03 0.0000000000000000e+00  -4.8165621035225787e-04 2.0736325545926589e-03 0.0000000000000000e+00  -4.8804316237096218e-04 2.1389509456476831e-03 0.0000000000000000e+00  -4.8894903971516337e-04 2.2062179896534429e-03 0.0000000000000000e+00  -4.8487060207102800e-04 2.2732558976965972e-03 0.0000000000000000e+00  -4.7592531752286795e-04 2.3379842377562591e-03 0.0000000000000000e+00  -4.6437581322307796e-04 2.3983715435972291e-03 0.0000000000000000e+00  -4.5025594622432902e-04 2.4540876012732683e-03 0.0000000000000000e+00  -4.3425945285701463e-04 2.5044433257204609e-03 0.0000000000000000e+00  -4.1685879501569530e-04 2.5496904973181162e-03 0.0000000000000000e+00  -3.9686677099457152e-04 2.5909189269829429e-03 0.0000000000000000e+00  -3.7257275321515149e-04 2.6273104005529557e-03 0.0000000000000000e+00  -3.4067755359001612e-04 2.6577961691761258e-03 0.0000000000000000e+00  -2.9704648460662726e-04 2.6774820634616770e-03 0.0000000000000000e+00  -2.4102013592142057e-04 2.6808902712668640e-03 0.0000000000000000e+00  -1.7323479135962475e-04 2.6652698311083649e-03 0.0000000000000000e+00  -9.3608901566866968e-05 2.6295706216104896e-03 0.0000000000000000e+00  -2.6311785718524762e-06 2.5731565724373159e-03 0.0000000000000000e+00  9.8711371090703600e-05 2.4947645645832994e-03 0.0000000000000000e+00  2.0870224261125973e-04 2.3947770365683289e-03 0.0000000000000000e+00  3.2352534558164790e-04 2.2727991310404917e-03 0.0000000000000000e+00  4.3649580626904102e-04 2.1335466031260123e-03 0.0000000000000000e+00  5.4525657926655154e-04 1.9814041870716034e-03 0.0000000000000000e+00  6.4394960414371693e-04 1.8225814705539552e-03 0.0000000000000000e+00  7.2503734838523450e-04 1.6609420082910949e-03 0.0000000000000000e+00  7.9195456884966148e-04 1.5095971783552159e-03 0.0000000000000000e+00  8.4272516989951352e-04 1.3663513446964949e-03 0.0000000000000000e+00  8.7836176724422304e-04 1.2356301294607066e-03 0.0000000000000000e+00  9.0182295365939249e-04 1.1181508891650149e-03 0.0000000000000000e+00  9.1347174234465787e-04 1.0107494713383744e-03 0.0000000000000000e+00  9.1481042915313225e-04 9.1384589957685370e-04 0.0000000000000000e+00  9.0417486820732623e-04 8.2313480175355710e-04 0.0000000000000000e+00  8.8038273973588081e-04 7.3978092106582799e-04 0.0000000000000000e+00  8.4351630214670663e-04 6.6392246665559183e-04 0.0000000000000000e+00  7.9446410339348880e-04 5.9548734041034814e-04 0.0000000000000000e+00  7.3724064995739748e-04 5.3580797260292952e-04 0.0000000000000000e+00  6.7642695492858699e-04 4.8295615468899793e-04 0.0000000000000000e+00  6.1389912343742814e-04 4.3219880132313205e-04 0.0000000000000000e+00  5.4944788413317292e-04 3.8263035393079468e-04 0.0000000000000000e+00  4.8098251314927852e-04 3.3131162266301657e-04 0.0000000000000000e+00  4.0606793715928380e-04 2.8077134488241172e-04 0.0000000000000000e+00  3.2742433558954090e-04 2.3784054456362226e-04 0.0000000000000000e+00  2.5338520644228700e-04 2.0319276959867343e-04 0.0000000000000000e+00  1.9006711783529706e-04 1.7811004712028390e-04 0.0000000000000000e+00  1.4105757550369129e-04 1.5794061358383922e-04 0.0000000000000000e+00  1.0443728027475230e-04 1.4024515132556780e-04 0.0000000000000000e+00  7.6543732052132308e-05 1.2226766080430441e-04 0.0000000000000000e+00  5.3806209445929438e-05 1.0444531295554800e-04 0.0000000000000000e+00  3.3675249527671554e-05 8.6707288208019945e-05 0.0000000000000000e+00  1.5111621581889558e-05 7.0224862580262111e-05 0.0000000000000000e+00  -2.5028059571128107e-06 5.5225503064009375e-05 0.0000000000000000e+00  -1.9177112118788998e-05 4.1991240031373912e-05 0.0000000000000000e+00  -3.5039022228538062e-05 3.0644306687382460e-05 0.0000000000000000e+00  -4.9921425470750285e-05 2.1471426637987361e-05 0.0000000000000000e+00  -6.3725074669699762e-05 1.3810661234321348e-05 0.0000000000000000e+00  -7.6494449913380779e-05 8.2118675421802193e-06 0.0000000000000000e+00  -8.8065841524697261e-05 3.9041532200876170e-06 0.0000000000000000e+00  -9.8537587634365791e-05 1.0031529526141158e-06 0.0000000000000000e+00  -1.0815916538808004e-04 -7.4529427662033556e-07 0.0000000000000000e+00  -1.1659699910488770e-04 -1.5877377731302048e-06 0.0000000000000000e+00  -1.2435172662655008e-04 -1.7681909262895955e-06 0.0000000000000000e+00  -1.3122978964934354e-04 -1.4179131878176490e-06 0.0000000000000000e+00  -1.3755923545287566e-04 -7.8972919447089130e-07 0.0000000000000000e+00  -1.4332547396882385e-04 5.0179318206915264e-08 0.0000000000000000e+00  -1.4884152162659251e-04 9.1172508874716294e-07 0.0000000000000000e+00  -1.5402920721075566e-04 1.8345040193516248e-06 0.0000000000000000e+00  -1.5908771574758273e-04 2.6519326498677113e-06 0.0000000000000000e+00  -1.6416331986125572e-04 3.5121669332506051e-06 0.0000000000000000e+00  -1.6922303939588659e-04 4.4009350624905049e-06 0.0000000000000000e+00  -1.7441830224982439e-04 5.4785512887407522e-06 0.0000000000000000e+00  -1.7960151960676472e-04 6.8114805372938255e-06 0.0000000000000000e+00  -1.8492544381159588e-04 8.5963312704658913e-06 0.0000000000000000e+00  -1.9033042466597974e-04 1.1195332247185678e-05 0.0000000000000000e+00  -1.9533673659303372e-04 1.4508494216449578e-05 0.0000000000000000e+00  -2.0022914586559029e-04 1.8882161865278528e-05 0.0000000000000000e+00  -2.0433364268005572e-04 2.4270921025663441e-05 0.0000000000000000e+00  -2.0782969798283435e-04 3.0639657806254552e-05 0.0000000000000000e+00  -2.1065863360625068e-04 3.7851266343985367e-05 0.0000000000000000e+00  -2.1267815347916387e-04 4.5964539998395475e-05 0.0000000000000000e+00  -2.1489154410115786e-04 5.4245347396779203e-05 0.0000000000000000e+00  -2.1818254492407413e-04 6.3212745239529678e-05 0.0000000000000000e+00  -2.2617839482071906e-04 7.2337013188173368e-05 0.0000000000000000e+00  -2.4029894683144789e-04 8.5305126451604176e-05 0.0000000000000000e+00  -2.6610209185766258e-04 1.0265130177755193e-04 0.0000000000000000e+00  -3.0185184397293267e-04 1.3092885864931839e-04 0.0000000000000000e+00  -3.4813614661746071e-04 1.6986513287953900e-04 0.0000000000000000e+00  -3.9844751111151245e-04 2.1908438059383599e-04 0.0000000000000000e+00  -4.5120353104589179e-04 2.7315083712515956e-04 0.0000000000000000e+00  -5.0658715909357129e-04 3.2804100650408324e-04 0.0000000000000000e+00  -5.6918666928675726e-04 3.8330694787772117e-04 0.0000000000000000e+00  -6.3959523337568452e-04 4.4372002528820603e-04 0.0000000000000000e+00  -7.1597612039245263e-04 5.1260189039195635e-04 0.0000000000000000e+00  -7.9078310543416149e-04 5.9220369907357487e-04 0.0000000000000000e+00  -8.5544403009539473e-04 6.8232429842466930e-04 0.0000000000000000e+00  -9.0225960175574363e-04 7.7735585743483806e-04 0.0000000000000000e+00  -9.2766332217014702e-04 8.7353129821596850e-04 0.0000000000000000e+00  -9.3021017559344929e-04 9.6765378762544085e-04 0.0000000000000000e+00  -9.1424832111567137e-04 1.0537699651488128e-03 0.0000000000000000e+00  9.2890881328075306e-04 7.1001057645276894e-04 0.0000000000000000e+00  9.1573292961739407e-04 6.9583095020398747e-04 0.0000000000000000e+00  8.8171565239097754e-04 6.7443099828472404e-04 0.0000000000000000e+00  8.3256287585362911e-04 6.535