<?xml version="1.0"?>
<VTKFile type="UnstructuredGrid"  version="0.1"  >
<UnstructuredGrid>
<Piece  NumberOfPoints="3879" NumberOfCells="6881">
<Points>
<DataArray  type="Float64"  NumberOfComponents="3"  format="ascii">0.207524190028372 0.2122422770132111 0  0 0 0  1 0 0  0 1 0  1 1 0  0.6249674373315121 0.2590146544375328 0  0.204663578893616 0.322657230836866 0  0.09605577522599912 0.4018360776629776 0  0.671351124618251 0.08738059142081528 0  0.7842102907526436 0.1666439122351055 0  0.8512483166984784 0.1985391006160637 0  0.6418797837909295 0.4423157172830166 0  0.9292488447973215 0.3869277868069776 0  0.3197896119137055 0.5509935221980964 0  0.3979283685568406 0.5079871620336583 0  0.1572503457993085 0.7345153245035532 0  0.3032914287999163 0.7872981443735918 0  0.3549464687598876 0.8870324161721976 0  0.9691791685505482 0.5159450047798622 0  0.9447564590470373 0.6146164845729313 0  0.7687603548175107 0.7176858127488035 0  0.8926159261971183 0.7422924070424508 0  0.2061587782631535 0.2217389244366831 0  0.2021731605082994 0.2304662099646423 0  0.1958902278109265 0.2377171008267789 0  0.1878189860121365 0.2429041729681512 0  0.1786133191209442 0.2456072006525708 0  0.1690190155206647 0.2456072006525708 0  0.1598133486294724 0.2429041729681512 0  0.1517421068306824 0.2377171008267789 0  0.1454591741333096 0.2304662099646422 0  0.1414735563784554 0.221738924436683 0  0.1401081446132369 0.212242277013211 0  0.1414735563784555 0.202745629589739 0  0.1454591741333096 0.1940183440617798 0  0.1517421068306825 0.1867674531996431 0  0.1598133486294725 0.1815803810582709 0  0.1690190155206649 0.1788773533738513 0  0.1786133191209443 0.1788773533738514 0  0.1878189860121367 0.181580381058271 0  0.1958902278109266 0.1867674531996433 0  0.2021731605082994 0.19401834406178 0  0.2061587782631535 0.2027456295897391 0  0.03333333333333333 0 0  0.06666666666666667 0 0  0.1 0 0  0.1333333333333333 0 0  0.1666666666666667 0 0  0.2 0 0  0.2333333333333333 0 0  0.2666666666666667 0 0  0.3 0 0  0.3333333333333333 0 0  0.3666666666666666 0 0  0.4 0 0  0.4333333333333333 0 0  0.4666666666666667 0 0  0.5 0 0  0.5333333333333333 0 0  0.5666666666666667 0 0  0.6 0 0  0.6333333333333333 0 0  0.6666666666666666 0 0  0.7 0 0  0.7333333333333333 0 0  0.7666666666666667 0 0  0.8 0 0  0.8333333333333334 0 0  0.8666666666666667 0 0  0.9 0 0  0.9333333333333333 0 0  0.9666666666666667 0 0  0 0.9666666666666667 0  0 0.9333333333333333 0  0 0.9 0  0 0.8666666666666667 0  0 0.8333333333333334 0  0 0.8 0  0 0.7666666666666666 0  0 0.7333333333333334 0  0 0.7 0  0 0.6666666666666667 0  0 0.6333333333333333 0  0 0.6 0  0 0.5666666666666667 0  0 0.5333333333333333 0  0 0.5 0  0 0.4666666666666667 0  0 0.4333333333333333 0  0 0.4 0  0 0.3666666666666667 0  0 0.3333333333333334 0  0 0.3 0  0 0.2666666666666667 0  0 0.2333333333333333 0  0 0.2 0  0 0.1666666666666666 0  0 0.1333333333333333 0  0 0.09999999999999998 0  0 0.06666666666666665 0  0 0.03333333333333333 0  1 0.03333333333333333 0  1 0.06666666666666667 0  1 0.1 0  1 0.1333333333333333 0  1 0.1666666666666667 0  1 0.2 0  1 0.2333333333333333 0  1 0.2666666666666667 0  1 0.3 0  1 0.3333333333333333 0  1 0.3666666666666666 0  1 0.4 0  1 0.4333333333333333 0  1 0.4666666666666667 0  1 0.5 0  1 0.5333333333333333 0  1 0.5666666666666667 0  1 0.6 0  1 0.6333333333333333 0  1 0.6666666666666666 0  1 0.7 0  1 0.7333333333333333 0  1 0.7666666666666667 0  1 0.8 0  1 0.8333333333333334 0  1 0.8666666666666667 0  1 0.9 0  1 0.9333333333333333 0  1 0.9666666666666667 0  0.9666666666666667 1 0  0.9333333333333333 1 0  0.9 1 0  0.8666666666666667 1 0  0.8333333333333334 1 0  0.8 1 0  0.7666666666666666 1 0  0.7333333333333334 1 0  0.7 1 0  0.6666666666666667 1 0  0.6333333333333333 1 0  0.6 1 0  0.5666666666666667 1 0  0.5333333333333333 1 0  0.5 1 0  0.4666666666666667 1 0  0.4333333333333333 1 0  0.4 1 0  0.3666666666666667 1 0  0.3333333333333334 1 0  0.3 1 0  0.2666666666666667 1 0  0.2333333333333333 1 0  0.2 1 0  0.1666666666666666 1 0  0.1333333333333333 1 0  0.09999999999999998 1 0  0.06666666666666665 1 0  0.03333333333333333 1 0  0.6247072676344306 0.2689501343248463 0  0.6239274716502419 0.2788583817523955 0  0.6226301867455355 0.2887122389026952 0  0.6208189686880621 0.2984846970382296 0  0.6184987819006211 0.3081489705305245 0  0.6156759858539226 0.317678570277693 0  0.6123583176357204 0.3270473763092224 0  0.6085548707439923 0.3362297093789981 0  0.6042760701622942 0.3452004013503318 0  0.5995336437856049 0.3539348641800754 0  0.5943405902749808 0.3624091573127375 0  0.5887111434291297 0.3706000532998825 0  0.582660733170558 0.3784851014649517 0  0.5762059432532257 0.3860426894390078 0  0.5693644658076293 0.3932521023987353 0  0.5621550528479018 0.4000935798443317 0  0.5545974648738458 0.4065483697616639 0  0.5467124167087765 0.4125987800202355 0  0.5385215207216315 0.4182282268660866 0  0.5300472275889694 0.4234212803767108 0  0.5213127647592257 0.4281637067534002 0  0.512342072787892 0.4324425073350981 0  0.5031597397181163 0.4362459542268262 0  0.493790933686587 0.4395636224450283 0  0.4842613339394185 0.4423864184917269 0  0.4745970604471235 0.4447066052791678 0  0.4648246023115891 0.4465178233366412 0  0.4549707451612894 0.4478151082413475 0  0.4450624977337403 0.4485949042255363 0  0.4351270178464268 0.4488550739226177 0  0.4251915379591132 0.4485949042255363 0  0.4152832905315641 0.4478151082413475 0  0.4054294333812644 0.4465178233366411 0  0.39565697524573 0.4447066052791677 0  0.385992701753435 0.4423864184917267 0  0.3764631020062665 0.4395636224450281 0  0.3670942959747371 0.4362459542268259 0  0.3579119629049616 0.4324425073350978 0  0.3489412709336278 0.4281637067533998 0  0.3402068081038843 0.4234212803767103 0  0.3317325149712221 0.4182282268660862 0  0.3235416189840771 0.412598780020235 0  0.3156565708190078 0.4065483697616634 0  0.3080989828449519 0.4000935798443311 0  0.3008895698852244 0.3932521023987346 0  0.2940480924396279 0.3860426894390071 0  0.2875933025222958 0.3784851014649511 0  0.2815428922637242 0.3706000532998818 0  0.2759134454178731 0.3624091573127368 0  0.2707203919072489 0.3539348641800746 0  0.2659779655305596 0.3452004013503309 0  0.2616991649488616 0.3362297093789972 0  0.2578957180571336 0.3270473763092215 0  0.2545780498389315 0.3176785702776921 0  0.251755253792233 0.3081489705305236 0  0.249435067004792 0.2984846970382286 0  0.2476238489473186 0.2887122389026941 0  0.2463265640426123 0.2788583817523945 0  0.2455467680584236 0.2689501343248454 0  0.2452865983613423 0.2590146544375318 0  0.2455467680584237 0.2490791745502182 0  0.2463265640426126 0.2391709271226692 0  0.247623848947319 0.2293170699723696 0  0.2494350670047924 0.2195446118368351 0  0.2517552537922335 0.2098803383445402 0  0.2545780498389321 0.2003507385973717 0  0.2578957180571343 0.1909819325658423 0  0.2616991649488624 0.1817995994960667 0  0.2659779655305604 0.172828907524733 0  0.2707203919072498 0.1640944446949895 0  0.2759134454178741 0.1556201515623273 0  0.2815428922637251 0.1474292555751825 0  0.2875933025222969 0.1395442074101132 0  0.2940480924396291 0.1319866194360571 0  0.3008895698852256 0.1247772064763297 0  0.3080989828449531 0.1179357290307334 0  0.3156565708190092 0.1114809391134012 0  0.3235416189840785 0.1054305288548295 0  0.3317325149712236 0.09980108200897844 0  0.3402068081038856 0.0946080284983544 0  0.3489412709336291 0.08986560212166514 0  0.357911962904963 0.08558680153996717 0  0.3670942959747386 0.08178335464823916 0  0.3764631020062678 0.07846568643003712 0  0.3859927017534364 0.0756428903833386 0  0.3956569752457313 0.0733227035958976 0  0.4054294333812659 0.07151148553842429 0  0.4152832905315654 0.07021420063371797 0  0.4251915379591144 0.0694344046495293 0  0.435127017846428 0.0691742349524479 0  0.4450624977337415 0.06943440464952938 0  0.4549707451612905 0.07021420063371814 0  0.4648246023115901 0.07151148553842454 0  0.4745970604471245 0.07332270359589793 0  0.4842613339394195 0.07564289038333902 0  0.4937909336865879 0.07846568643003757 0  0.5031597397181173 0.0817833546482398 0  0.5123420727878929 0.08558680153996781 0  0.5213127647592265 0.08986560212166581 0  0.53004722758897 0.0946080284983552 0  0.5385215207216321 0.09980108200897933 0  0.5467124167087771 0.1054305288548305 0  0.5545974648738462 0.1114809391134021 0  0.5621550528479023 0.1179357290307343 0  0.5693644658076298 0.1247772064763308 0  0.576205943253226 0.1319866194360582 0  0.5826607331705582 0.1395442074101142 0  0.5887111434291299 0.1474292555751835 0  0.594340590274981 0.1556201515623285 0  0.5995336437856051 0.1640944446949906 0  0.6042760701622945 0.172828907524734 0  0.6085548707439925 0.1817995994960678 0  0.6123583176357205 0.1909819325658435 0  0.6156759858539227 0.2003507385973728 0  0.6184987819006211 0.2098803383445412 0  0.6208189686880622 0.2195446118368362 0  0.6226301867455355 0.2293170699723706 0  0.6239274716502419 0.2391709271226702 0  0.6247072676344306 0.2490791745502192 0  0.203885768735257 0.3325402459548524 0  0.2015714905276826 0.3421799084407872 0  0.1977777294810124 0.3513388578120612 0  0.1925979005829864 0.3597915703383434 0  0.1861595484119405 0.3673299121842922 0  0.1786212065659918 0.373768264355338 0  0.1701684940397096 0.378948093253364 0  0.1610095446684356 0.3827418543000342 0  0.1513698821825007 0.3850561325076086 0  0.1414868670645144 0.3858339426659677 0  0.1316038519465281 0.3850561325076086 0  0.1219641894605933 0.3827418543000343 0  0.1128052400893193 0.378948093253364 0  0.1043525275630371 0.3737682643553381 0  0.09681418571708833 0.3673299121842922 0  0.09037583354604248 0.3597915703383434 0  0.08519600464801645 0.3513388578120612 0  0.08140224360134621 0.3421799084407872 0  0.07908796539377183 0.3325402459548523 0  0.07831015523541281 0.3226572308368659 0  0.07908796539377186 0.3127742157188796 0  0.08140224360134626 0.3031345532329447 0  0.08519600464801655 0.2939756038616707 0  0.0903758335460426 0.2855228913353884 0  0.0968141857
[...]
<PointData  Vectors="$u$"> 
<DataArray  type="Float64"  Name="$u$"  NumberOfComponents="3" format="ascii">4.2742873195198729e-04 8.1227676346844592e-04 0.0000000000000000e+00  0.0000000000000000e+00 0.0000000000000000e+00 0.0000000000000000e+00  -1.1643240330250981e-03 0.0000000000000000e+00 0.0000000000000000e+00  -7.4948141775438965e-05 9.7500000000000000e-03 0.0000000000000000e+00  -1.2666619594907458e-03 9.7500000000000000e-03 0.0000000000000000e+00  -1.8312571450231597e-03 2.5902405223540937e-03 0.0000000000000000e+00  1.9048965605064101e-03 1.3562299828937866e-03 0.0000000000000000e+00  1.5823411408793806e-03 2.2612779493092245e-03 0.0000000000000000e+00  -1.0522647694570359e-03 2.7396653547227470e-04 0.0000000000000000e+00  -1.5345696411856618e-03 -2.8747910257112586e-06 0.0000000000000000e+00  -1.7403724638779144e-03 2.0673765004775257e-04 0.0000000000000000e+00  2.2146790596382017e-04 3.9543041773353682e-03 0.0000000000000000e+00  -4.3393974559531182e-03 2.2990398202163806e-03 0.0000000000000000e+00  -4.1044141584018482e-04 5.9297429241352119e-03 0.0000000000000000e+00  -2.9947709711213998e-04 5.2855679742178086e-03 0.0000000000000000e+00  1.7262933153996359e-03 9.4689832767453005e-03 0.0000000000000000e+00  8.6573417802220272e-04 7.6239666727497190e-03 0.0000000000000000e+00  -6.5813669021935566e-04 9.3419548973755120e-03 0.0000000000000000e+00  -4.7122365483336813e-03 4.5805040096045151e-03 0.0000000000000000e+00  -3.2308288451858517e-03 7.3083321158610116e-03 0.0000000000000000e+00  -2.2950925653901807e-03 8.9265777254822088e-03 0.0000000000000000e+00  -2.1078061647609244e-03 8.9296478200725296e-03 0.0000000000000000e+00  5.7129373280819450e-04 9.6492010279329717e-04 0.0000000000000000e+00  7.3092736827113909e-04 1.0993461075003504e-03 0.0000000000000000e+00  8.7220716753887747e-04 1.2195932914151365e-03 0.0000000000000000e+00  9.8499133806944305e-04 1.2735347865781869e-03 0.0000000000000000e+00  1.0768596095395082e-03 1.2503343943040101e-03 0.0000000000000000e+00  1.1019357831083077e-03 1.1061361016676684e-03 0.0000000000000000e+00  1.0764576170171401e-03 8.9677039246603045e-04 0.0000000000000000e+00  9.7177198894684853e-04 7.1202443564208069e-04 0.0000000000000000e+00  8.4640186144040251e-04 6.0347601729782445e-04 0.0000000000000000e+00  7.3381660557855332e-04 5.6114702315486628e-04 0.0000000000000000e+00  6.1562170291553362e-04 5.0341679087560201e-04 0.0000000000000000e+00  5.0971212051123299e-04 4.6313977888881727e-04 0.0000000000000000e+00  4.1413687336093387e-04 4.1158927465337423e-04 0.0000000000000000e+00  3.3313280004478485e-04 3.6743061958313997e-04 0.0000000000000000e+00  2.5963500050251082e-04 3.4175152687108555e-04 0.0000000000000000e+00  2.1124414108455604e-04 3.3460095731131334e-04 0.0000000000000000e+00  1.7690932166033888e-04 3.5064045162177637e-04 0.0000000000000000e+00  1.6523222623082749e-04 3.9126401965912882e-04 0.0000000000000000e+00  1.8508078534276465e-04 4.5748182212063381e-04 0.0000000000000000e+00  2.2467194134877453e-04 5.4443767494289036e-04 0.0000000000000000e+00  3.1139480048017053e-04 6.6238877528640395e-04 0.0000000000000000e+00  0.0000000000000000e+00 0.0000000000000000e+00 0.0000000000000000e+00  -8.4849455232810975e-05 0.0000000000000000e+00 0.0000000000000000e+00  -1.1153091253128265e-04 0.0000000000000000e+00 0.0000000000000000e+00  -1.4964151524572781e-04 0.0000000000000000e+00 0.0000000000000000e+00  -1.7384056135259107e-04 0.0000000000000000e+00 0.0000000000000000e+00  -2.0105183899631225e-04 0.0000000000000000e+00 0.0000000000000000e+00  -2.2450189503553052e-04 0.0000000000000000e+00 0.0000000000000000e+00  -2.4894914576686851e-04 0.0000000000000000e+00 0.0000000000000000e+00  -2.6931356898735883e-04 0.0000000000000000e+00 0.0000000000000000e+00  -2.8644698532896299e-04 0.0000000000000000e+00 0.0000000000000000e+00  -3.0325653536408684e-04 0.0000000000000000e+00 0.0000000000000000e+00  -3.2438542072606337e-04 0.0000000000000000e+00 0.0000000000000000e+00  -3.4892266268381921e-04 0.0000000000000000e+00 0.0000000000000000e+00  -3.7712891187190878e-04 0.0000000000000000e+00 0.0000000000000000e+00  -4.1137911534085445e-04 0.0000000000000000e+00 0.0000000000000000e+00  -4.6297965144591596e-04 0.0000000000000000e+00 0.0000000000000000e+00  -5.4266297021524654e-04 0.0000000000000000e+00 0.0000000000000000e+00  -6.4784995574529533e-04 0.0000000000000000e+00 0.0000000000000000e+00  -7.2564398867231361e-04 0.0000000000000000e+00 0.0000000000000000e+00  -7.9091658989120458e-04 0.0000000000000000e+00 0.0000000000000000e+00  -8.7633382828905299e-04 0.0000000000000000e+00 0.0000000000000000e+00  -9.3725198546436891e-04 0.0000000000000000e+00 0.0000000000000000e+00  -9.6013547696415652e-04 0.0000000000000000e+00 0.0000000000000000e+00  -9.6838919856984769e-04 0.0000000000000000e+00 0.0000000000000000e+00  -9.7173607459033473e-04 0.0000000000000000e+00 0.0000000000000000e+00  -9.8692041871232617e-04 0.0000000000000000e+00 0.0000000000000000e+00  -1.0063522553034440e-03 0.0000000000000000e+00 0.0000000000000000e+00  -1.0457825167861172e-03 0.0000000000000000e+00 0.0000000000000000e+00  -1.0984298974089303e-03 0.0000000000000000e+00 0.0000000000000000e+00  -5.7099040574419391e-05 9.4888577913986548e-03 0.0000000000000000e+00  3.6912715743753488e-06 9.2267897288772042e-03 0.0000000000000000e+00  1.0473736442858609e-04 8.9546659328895873e-03 0.0000000000000000e+00  2.5813814182867780e-04 8.6767499126133903e-03 0.0000000000000000e+00  4.6203722259227783e-04 8.3912133752778346e-03 0.0000000000000000e+00  7.2346812846402404e-04 8.0930256458577876e-03 0.0000000000000000e+00  1.0464579551559871e-03 7.7854397349929024e-03 0.0000000000000000e+00  1.4380675907573028e-03 7.4432411587120051e-03 0.0000000000000000e+00  1.9353862252304453e-03 7.0715126525731052e-03 0.0000000000000000e+00  2.5651820255067040e-03 6.6590680520667959e-03 0.0000000000000000e+00  3.3584771201039874e-03 6.2322498908093200e-03 0.0000000000000000e+00  4.2996035427184959e-03 5.8489244116259271e-03 0.0000000000000000e+00  5.3048309314236639e-03 5.6291316330747765e-03 0.0000000000000000e+00  5.2381534975150480e-03 5.8007985139985480e-03 0.0000000000000000e+00  4.2174553027697079e-03 5.5072271996650631e-03 0.0000000000000000e+00  3.4918604713812130e-03 5.0435181258928026e-03 0.0000000000000000e+00  3.3167676775683200e-03 3.9977433372328439e-03 0.0000000000000000e+00  2.9266306151790921e-03 3.3979366417212571e-03 0.0000000000000000e+00  2.3722791175363293e-03 3.0871380737292268e-03 0.0000000000000000e+00  1.7690127791661712e-03 2.5139180270548111e-03 0.0000000000000000e+00  1.4690773627194338e-03 2.2038964937425654e-03 0.0000000000000000e+00  1.1655844644133527e-03 1.9357796289677146e-03 0.0000000000000000e+00  8.9472754212532640e-04 1.6825552860277118e-03 0.0000000000000000e+00  6.5421351878523000e-04 1.4335308685291097e-03 0.0000000000000000e+00  4.5317904265901646e-04 1.1887709113119584e-03 0.0000000000000000e+00  2.9395095518120764e-04 9.3850543593380865e-04 0.0000000000000000e+00  1.7739434864719184e-04 7.0207557411565294e-04 0.0000000000000000e+00  9.7368514309038954e-05 4.5372210344870478e-04 0.0000000000000000e+00  6.3415827813676211e-05 2.3704586574138138e-04 0.0000000000000000e+00  -1.1804807537219243e-03 2.4442494827059532e-04 0.0000000000000000e+00  -1.2381908302355504e-03 4.9361515069226171e-04 0.0000000000000000e+00  -1.3350885802445695e-03 7.4804676774293242e-04 0.0000000000000000e+00  -1.4791420682828656e-03 1.0138513335742109e-03 0.0000000000000000e+00  -1.6782244944259007e-03 1.2937603268979613e-03 0.0000000000000000e+00  -1.9449428282699861e-03 1.5870871197069356e-03 0.0000000000000000e+00  -2.2844106387660146e-03 1.8871851442936790e-03 0.0000000000000000e+00  -2.7119813742563269e-03 2.2009885011611166e-03 0.0000000000000000e+00  -3.2285539296340836e-03 2.4944379543226829e-03 0.0000000000000000e+00  -3.7980759916553149e-03 2.7375152456856258e-03 0.0000000000000000e+00  -4.3253960948059873e-03 2.8909788569869868e-03 0.0000000000000000e+00  -4.6610215531805270e-03 2.9727328476430322e-03 0.0000000000000000e+00  -4.7462850798421444e-03 3.0821402174229140e-03 0.0000000000000000e+00  -4.7331508619649224e-03 3.3710903877535079e-03 0.0000000000000000e+00  -5.4577872383155526e-03 4.3179278795941693e-03 0.0000000000000000e+00  -5.3474443486270324e-03 4.3079080538793628e-03 0.0000000000000000e+00  -3.1890781778917158e-03 6.9198058653073451e-03 0.0000000000000000e+00  -3.3886608464264562e-03 7.1996001170292322e-03 0.0000000000000000e+00  -3.3630976364228673e-03 7.2836341660771943e-03 0.0000000000000000e+00  -3.0340375522724772e-03 7.4274364972349970e-03 0.0000000000000000e+00  -2.6525970654433947e-03 7.6482202298419847e-03 0.0000000000000000e+00  -2.3174643097265209e-03 7.8992943038994640e-03 0.0000000000000000e+00  -2.0338272603392235e-03 8.1447739267711417e-03 0.0000000000000000e+00  -1.7988412521982276e-03 8.3913910082191647e-03 0.0000000000000000e+00  -1.6182540044682688e-03 8.6362359884767578e-03 0.0000000000000000e+00  -1.4850230113565618e-03 8.8698369728552658e-03 0.0000000000000000e+00  -1.3872464671271134e-03 9.0955886905382932e-03 0.0000000000000000e+00  -1.3200573178755377e-03 9.3148831939203636e-03 0.0000000000000000e+00  -1.2787334333630770e-03 9.5329909217322616e-03 0.0000000000000000e+00  -1.2073119955026599e-03 9.7500000000000000e-03 0.0000000000000000e+00  -1.1535539288986501e-03 9.7500000000000000e-03 0.0000000000000000e+00  -1.1091191366034176e-03 9.7500000000000000e-03 0.0000000000000000e+00  -1.0700710344403001e-03 9.7500000000000000e-03 0.0000000000000000e+00  -1.0348836952224643e-03 9.7500000000000000e-03 0.0000000000000000e+00  -1.0010638669231283e-03 9.7500000000000000e-03 0.0000000000000000e+00  -9.7093287994957824e-04 9.7500000000000000e-03 0.0000000000000000e+00  -9.4680842726823690e-04 9.7500000000000000e-03 0.0000000000000000e+00  -9.2507610708735411e-04 9.7500000000000000e-03 0.0000000000000000e+00  -9.0855378317081725e-04 9.7500000000000000e-03 0.0000000000000000e+00  -8.8674745674669061e-04 9.7500000000000000e-03 0.0000000000000000e+00  -8.6168870923833928e-04 9.7500000000000000e-03 0.0000000000000000e+00  -8.3118520229588221e-04 9.7500000000000000e-03 0.0000000000000000e+00  -7.9837624646219251e-04 9.7500000000000000e-03 0.0000000000000000e+00  -7.6534830882947556e-04 9.7500000000000000e-03 0.0000000000000000e+00  -7.2616964284750107e-04 9.7500000000000000e-03 0.0000000000000000e+00  -6.7664325988710142e-04 9.7500000000000000e-03 0.0000000000000000e+00  -6.0742406502663595e-04 9.7500000000000000e-03 0.0000000000000000e+00  -5.2613036681125659e-04 9.7500000000000000e-03 0.0000000000000000e+00  -4.5517412682708267e-04 9.7500000000000000e-03 0.0000000000000000e+00  -4.1138214579290386e-04 9.7500000000000000e-03 0.0000000000000000e+00  -3.7459359536033980e-04 9.7500000000000000e-03 0.0000000000000000e+00  -3.3181474456612495e-04 9.7500000000000000e-03 0.0000000000000000e+00  -2.9891221993456928e-04 9.7500000000000000e-03 0.0000000000000000e+00  -2.8345201391618576e-04 9.7500000000000000e-03 0.0000000000000000e+00  -2.6410397498095005e-04 9.7500000000000000e-03 0.0000000000000000e+00  -2.4113900657472308e-04 9.7500000000000000e-03 0.0000000000000000e+00  -2.0142764857391081e-04 9.7500000000000000e-03 0.0000000000000000e+00  -1.4414511530794197e-04 9.7500000000000000e-03 0.0000000000000000e+00  -1.7175148013477725e-03 2.7309140186497867e-03 0.0000000000000000e+00  -1.5855294859935132e-03 2.8637787822938686e-03 0.0000000000000000e+00  -1.4403819042042125e-03 2.9994815167572741e-03 0.0000000000000000e+00  -1.2885875423900824e-03 3.1304972553153451e-03 0.0000000000000000e+00  -1.1308689224171959e-03 3.2645517118592925e-03 0.0000000000000000e+00  -9.7041923344328698e-04 3.3898607199373465e-03 0.0000000000000000e+00  -8.1286633742077565e-04 3.5046690912244579e-03 0.0000000000000000e+00  -6.6614928273049743e-04 3.6083890956489324e-03 0.0000000000000000e+00  -5.3117285187740781e-04 3.6961050182262277e-03 0.0000000000000000e+00  -4.1677481120995979e-04 3.7658039661471313e-03 0.0000000000000000e+00  -3.2460313579829293e-04 3.8210005878268360e-03 0.0000000000000000e+00  -2.5668522939963626e-04 3.8592868690572081e-03 0.0000000000000000e+00  -2.1625544156444405e-04 3.8852435260706563e-03 0.0000000000000000e+00  -2.0138628968554813e-04 3.9007948691242326e-03 0.0000000000000000e+00  -2.1396586848549423e-04 3.9076616280341479e-03 0.0000000000000000e+00  -2.5235508576385376e-04 3.9183965532348644e-03 0.0000000000000000e+00  -3.0558545458188839e-04 3.9398664637274282e-03 0.0000000000000000e+00  -3.6451016982109904e-04 3.9778821048485459e-03 0.0000000000000000e+00  -4.2107985282493782e-04 4.0343365315350420e-03 0.0000000000000000e+00  -4.7028272285416268e-04 4.1039644143708665e-03 0.0000000000000000e+00  -5.1276784283599882e-04 4.1884931009403209e-03 0.0000000000000000e+00  -5.4671249718954190e-04 4.2832643706270952e-03 0.0000000000000000e+00  -5.7203439917773331e-04 4.3871246077517613e-03 0.0000000000000000e+00  -5.8920911642708416e-04 4.4971677033905384e-03 0.0000000000000000e+00  -5.9793564641233258e-04 4.6098338704460692e-03 0.0000000000000000e+00  -5.9978604863727839e-04 4.7220505713490759e-03 0.0000000000000000e+00  -5.9353016419285136e-04 4.8302564800390994e-03 0.0000000000000000e+00  -5.8381468359155369e-04 4.9315497430430398e-03 0.0000000000000000e+00  -5.6954211595125568e-04 5.0252758749176601e-03 0.0000000000000000e+00  -5.5190347940453275e-04 5.1106783598741309e-03 0.0000000000000000e+00  -5.3130998013467079e-04 5.1878291118483211e-03 0.0000000000000000e+00  -5.0362684879422975e-04 5.2588688016927320e-03 0.0000000000000000e+00  -4.6507958265582921e-04 5.3197967074052306e-03 0.0000000000000000e+00  -4.0943069759944529e-04 5.3678678566655936e-03 0.0000000000000000e+00  -3.2637704043780164e-04 5.3909192090685776e-03 0.0000000000000000e+00  -2.1771480213103150e-04 5.3767059144639124e-03 0.0000000000000000e+00  -8.4223013074777341e-05 5.3207392268994971e-03 0.0000000000000000e+00  7.1307274909992720e-05 5.2217543166041061e-03 0.0000000000000000e+00  2.4743953618607179e-04 5.0816074709983039e-03 0.0000000000000000e+00  4.4172542446640882e-04 4.8988984613343176e-03 0.0000000000000000e+00  6.4860516398580043e-04 4.6775366876760623e-03 0.0000000000000000e+00  8.6291117941967883e-04 4.4194309674112859e-03 0.0000000000000000e+00  1.0725034657203441e-03 4.1341420257541396e-03 0.0000000000000000e+00  1.2731819343450598e-03 3.8305294354145851e-03 0.0000000000000000e+00  1.4566072416138140e-03 3.5216378703146925e-03 0.0000000000000000e+00  1.6151631349632888e-03 3.2145869070953296e-03 0.0000000000000000e+00  1.7380476170208920e-03 2.9315614968500703e-03 0.0000000000000000e+00  1.8079625700053209e-03 2.6530288278566127e-03 0.0000000000000000e+00  1.8543680950788425e-03 2.3832049873724450e-03 0.0000000000000000e+00  1.8859850632458530e-03 2.1343031035733697e-03 0.0000000000000000e+00  1.8990043005781129e-03 1.9069723913491524e-03 0.0000000000000000e+00  1.8819265580439124e-03 1.7026865962810889e-03 0.0000000000000000e+00  1.8376182753721188e-03 1.5029105860687028e-03 0.0000000000000000e+00  1.7692011577992886e-03 1.3132724407402068e-03 0.0000000000000000e+00  1.6924283668910882e-03 1.1410855091859170e-03 0.0000000000000000e+00  1.5895382953858834e-03 1.0127817308389893e-03 0.0000000000000000e+00  1.4604097629300628e-03 9.1803812669000217e-04 0.0000000000000000e+00  1.3266916206740892e-03 8.3330092534239812e-04 0.0000000000000000e+00  1.1927068812696846e-03 7.4855638713285642e-04 0.0000000000000000e+00  1.0571596673415759e-03 6.6443979905036034e-04 0.0000000000000000e+00  9.1690227329240372e-04 5.7677450447240553e-04 0.0000000000000000e+00  7.6690286040033775e-04 4.8714109827414909e-04 0.0000000000000000e+00  6.1105714827708216e-04 4.1402665345495888e-04 0.0000000000000000e+00  4.6707290251916641e-04 3.5425161908671286e-04 0.0000000000000000e+00  3.4610207029209147e-04 3.1422444570398180e-04 0.0000000000000000e+00  2.5455054222287953e-04 2.8043891409874677e-04 0.0000000000000000e+00  1.8738614057845781e-04 2.5233409706861459e-04 0.0000000000000000e+00  1.3744140779664419e-04 2.2104566477924585e-04 0.0000000000000000e+00  9.7190223193763530e-05 1.9043397585311828e-04 0.0000000000000000e+00  6.1194835033988974e-05 1.5845253719727349e-04 0.0000000000000000e+00  2.7972190725682940e-05 1.2971778224454651e-04 0.0000000000000000e+00  -3.8934898866994188e-06 1.0208187901895502e-04 0.0000000000000000e+00  -3.4902071010468568e-05 7.8981524554330631e-05 0.0000000000000000e+00  -6.4199420510339968e-05 5.8093127746822094e-05 0.0000000000000000e+00  -9.2700066985740485e-05 4.1912390887682622e-05 0.0000000000000000e+00  -1.1921510417850582e-04 2.8002877341875792e-05 0.0000000000000000e+00  -1.4434257379560185e-04 1.8066649093782480e-05 0.0000000000000000e+00  -1.6765043835271313e-04 1.0397495609527821e-05 0.0000000000000000e+00  -1.8897323077788014e-04 5.2158722845498169e-06 0.0000000000000000e+00  -2.0935336440253756e-04 2.1573321248909030e-06 0.0000000000000000e+00  -2.2760745652468476e-04 7.8550533522009306e-07 0.0000000000000000e+00  -2.4498885405679530e-04 5.6732504752560868e-07 0.0000000000000000e+00  -2.6081580551037847e-04 1.3003778196127235e-06 0.0000000000000000e+00  -2.7602922900915562e-04 2.5644369264478622e-06 0.0000000000000000e+00  -2.9019856984083785e-04 4.2151435974346068e-06 0.0000000000000000e+00  -3.0419301056156830e-04 5.8931513608825468e-06 0.0000000000000000e+00  -3.1765012963970224e-04 7.6872866446593223e-06 0.0000000000000000e+00  -3.3102525997229313e-04 9.3462681080867537e-06 0.0000000000000000e+00  -3.4442845562772015e-04 1.1071667871721956e-05 0.0000000000000000e+00  -3.5800902680333923e-04 1.2923541569883892e-05 0.0000000000000000e+00  -3.7177825880812593e-04 1.5224428499977480e-05 0.0000000000000000e+00  -3.8542483672853101e-04 1.8082546077501859e-05 0.0000000000000000e+00  -3.9954707440603530e-04 2.1920834908387082e-05 0.0000000000000000e+00  -4.1356769525281289e-04 2.7666585786956162e-05 0.0000000000000000e+00  -4.2646790250124505e-04 3.4833465399425124e-05 0.0000000000000000e+00  -4.3925707997402651e-04 4.4330261873242916e-05 0.0000000000000000e+00  -4.4968965322328891e-04 5.5947259072871241e-05 0.0000000000000000e+00  -4.5881799972675237e-04 6.9580984433552492e-05 0.0000000000000000e+00  -4.6611621608689136e-04 8.4892194278611969e-05 0.0000000000000000e+00  -4.7110721958113167e-04 1.0185940349384530e-04 0.0000000000000000e+00  -4.7714725828149209e-04 1.1858808221350119e-04 0.0000000000000000e+00  -4.8354318247669973e-04 1.3718634157402316e-04 0.0000000000000000e+00  -5.0296055165962629e-04 1.5340967083375077e-04 0.0000000000000000e+00  -5.3411704456133181e-04 1.8001566473628601e-04 0.0000000000000000e+00  -5.9431423395997290e-04 2.1291895493258741e-04 0.0000000000000000e+00  -6.7803228565656033e-04 2.7178186574001816e-04 0.0000000000000000e+00  -7.8794521439345337e-04 3.5454653326523310e-04 0.0000000000000000e+00  -9.0967485262082710e-04 4.6138016404067086e-04 0.0000000000000000e+00  -1.0392238261624437e-03 5.8182266027606924e-04 0.0000000000000000e+00  -1.1724087889299311e-03 7.0673555883000311e-04 0.0000000000000000e+00  -1.3201704215316341e-03 8.3185347080612457e-04 0.0000000000000000e+00  -1.4770058973167931e-03 9.6905568929972702e-04 0.0000000000000000e+00  -1.6410121361139990e-03 1.1162131138998121e-03 0.0000000000000000e+00  -1.7998496412423529e-03 1.2788677829038276e-03 0.0000000000000000e+00  -1.9212060996418772e-03 1.4537575065749384e-03 0.0000000000000000e+00  -1.9374938450438960e-03 1.6791977031532885e-03 0.0000000000000000e+00  -1.9431091340431142e-03 1.9347288380165374e-03 0.0000000000000000e+00  -1.9285809430919316e-03 2.1882377038144863e-03 0.0000000000000000e+00  -1.8998456095911714e-03 2.4102387100655718e-03 0.0000000000000000e+00  1.9491180254613254e-03 1.3403721496082048e-03 0.0000000000000000e+00  1.9400465971584010e-03 1.3025910660629169e-03 0.0000000000000000e+00  1.8837824013225783e-03 1.2487125310094575e-03 0.0000000000000000e+00  1.7919428969548649e-03 1.19401529284