<?xml version="1.0"?>
<VTKFile type="UnstructuredGrid"  version="0.1"  >
<UnstructuredGrid>
<Piece  NumberOfPoints="3879" NumberOfCells="6881">
<Points>
<DataArray  type="Float64"  NumberOfComponents="3"  format="ascii">0.207524190028372 0.2122422770132111 0  0 0 0  1 0 0  0 1 0  1 1 0  0.6249674373315121 0.2590146544375328 0  0.204663578893616 0.322657230836866 0  0.09605577522599912 0.4018360776629776 0  0.671351124618251 0.08738059142081528 0  0.7842102907526436 0.1666439122351055 0  0.8512483166984784 0.1985391006160637 0  0.6418797837909295 0.4423157172830166 0  0.9292488447973215 0.3869277868069776 0  0.3197896119137055 0.5509935221980964 0  0.3979283685568406 0.5079871620336583 0  0.1572503457993085 0.7345153245035532 0  0.3032914287999163 0.7872981443735918 0  0.3549464687598876 0.8870324161721976 0  0.9691791685505482 0.5159450047798622 0  0.9447564590470373 0.6146164845729313 0  0.7687603548175107 0.7176858127488035 0  0.8926159261971183 0.7422924070424508 0  0.2061587782631535 0.2217389244366831 0  0.2021731605082994 0.2304662099646423 0  0.1958902278109265 0.2377171008267789 0  0.1878189860121365 0.2429041729681512 0  0.1786133191209442 0.2456072006525708 0  0.1690190155206647 0.2456072006525708 0  0.1598133486294724 0.2429041729681512 0  0.1517421068306824 0.2377171008267789 0  0.1454591741333096 0.2304662099646422 0  0.1414735563784554 0.221738924436683 0  0.1401081446132369 0.212242277013211 0  0.1414735563784555 0.202745629589739 0  0.1454591741333096 0.1940183440617798 0  0.1517421068306825 0.1867674531996431 0  0.1598133486294725 0.1815803810582709 0  0.1690190155206649 0.1788773533738513 0  0.1786133191209443 0.1788773533738514 0  0.1878189860121367 0.181580381058271 0  0.1958902278109266 0.1867674531996433 0  0.2021731605082994 0.19401834406178 0  0.2061587782631535 0.2027456295897391 0  0.03333333333333333 0 0  0.06666666666666667 0 0  0.1 0 0  0.1333333333333333 0 0  0.1666666666666667 0 0  0.2 0 0  0.2333333333333333 0 0  0.2666666666666667 0 0  0.3 0 0  0.3333333333333333 0 0  0.3666666666666666 0 0  0.4 0 0  0.4333333333333333 0 0  0.4666666666666667 0 0  0.5 0 0  0.5333333333333333 0 0  0.5666666666666667 0 0  0.6 0 0  0.6333333333333333 0 0  0.6666666666666666 0 0  0.7 0 0  0.7333333333333333 0 0  0.7666666666666667 0 0  0.8 0 0  0.8333333333333334 0 0  0.8666666666666667 0 0  0.9 0 0  0.9333333333333333 0 0  0.9666666666666667 0 0  0 0.9666666666666667 0  0 0.9333333333333333 0  0 0.9 0  0 0.8666666666666667 0  0 0.8333333333333334 0  0 0.8 0  0 0.7666666666666666 0  0 0.7333333333333334 0  0 0.7 0  0 0.6666666666666667 0  0 0.6333333333333333 0  0 0.6 0  0 0.5666666666666667 0  0 0.5333333333333333 0  0 0.5 0  0 0.4666666666666667 0  0 0.4333333333333333 0  0 0.4 0  0 0.3666666666666667 0  0 0.3333333333333334 0  0 0.3 0  0 0.2666666666666667 0  0 0.2333333333333333 0  0 0.2 0  0 0.1666666666666666 0  0 0.1333333333333333 0  0 0.09999999999999998 0  0 0.06666666666666665 0  0 0.03333333333333333 0  1 0.03333333333333333 0  1 0.06666666666666667 0  1 0.1 0  1 0.1333333333333333 0  1 0.1666666666666667 0  1 0.2 0  1 0.2333333333333333 0  1 0.2666666666666667 0  1 0.3 0  1 0.3333333333333333 0  1 0.3666666666666666 0  1 0.4 0  1 0.4333333333333333 0  1 0.4666666666666667 0  1 0.5 0  1 0.5333333333333333 0  1 0.5666666666666667 0  1 0.6 0  1 0.6333333333333333 0  1 0.6666666666666666 0  1 0.7 0  1 0.7333333333333333 0  1 0.7666666666666667 0  1 0.8 0  1 0.8333333333333334 0  1 0.8666666666666667 0  1 0.9 0  1 0.9333333333333333 0  1 0.9666666666666667 0  0.9666666666666667 1 0  0.9333333333333333 1 0  0.9 1 0  0.8666666666666667 1 0  0.8333333333333334 1 0  0.8 1 0  0.7666666666666666 1 0  0.7333333333333334 1 0  0.7 1 0  0.6666666666666667 1 0  0.6333333333333333 1 0  0.6 1 0  0.5666666666666667 1 0  0.5333333333333333 1 0  0.5 1 0  0.4666666666666667 1 0  0.4333333333333333 1 0  0.4 1 0  0.3666666666666667 1 0  0.3333333333333334 1 0  0.3 1 0  0.2666666666666667 1 0  0.2333333333333333 1 0  0.2 1 0  0.1666666666666666 1 0  0.1333333333333333 1 0  0.09999999999999998 1 0  0.06666666666666665 1 0  0.03333333333333333 1 0  0.6247072676344306 0.2689501343248463 0  0.6239274716502419 0.2788583817523955 0  0.6226301867455355 0.2887122389026952 0  0.6208189686880621 0.2984846970382296 0  0.6184987819006211 0.3081489705305245 0  0.6156759858539226 0.317678570277693 0  0.6123583176357204 0.3270473763092224 0  0.6085548707439923 0.3362297093789981 0  0.6042760701622942 0.3452004013503318 0  0.5995336437856049 0.3539348641800754 0  0.5943405902749808 0.3624091573127375 0  0.5887111434291297 0.3706000532998825 0  0.582660733170558 0.3784851014649517 0  0.5762059432532257 0.3860426894390078 0  0.5693644658076293 0.3932521023987353 0  0.5621550528479018 0.4000935798443317 0  0.5545974648738458 0.4065483697616639 0  0.5467124167087765 0.4125987800202355 0  0.5385215207216315 0.4182282268660866 0  0.5300472275889694 0.4234212803767108 0  0.5213127647592257 0.4281637067534002 0  0.512342072787892 0.4324425073350981 0  0.5031597397181163 0.4362459542268262 0  0.493790933686587 0.4395636224450283 0  0.4842613339394185 0.4423864184917269 0  0.4745970604471235 0.4447066052791678 0  0.4648246023115891 0.4465178233366412 0  0.4549707451612894 0.4478151082413475 0  0.4450624977337403 0.4485949042255363 0  0.4351270178464268 0.4488550739226177 0  0.4251915379591132 0.4485949042255363 0  0.4152832905315641 0.4478151082413475 0  0.4054294333812644 0.4465178233366411 0  0.39565697524573 0.4447066052791677 0  0.385992701753435 0.4423864184917267 0  0.3764631020062665 0.4395636224450281 0  0.3670942959747371 0.4362459542268259 0  0.3579119629049616 0.4324425073350978 0  0.3489412709336278 0.4281637067533998 0  0.3402068081038843 0.4234212803767103 0  0.3317325149712221 0.4182282268660862 0  0.3235416189840771 0.412598780020235 0  0.3156565708190078 0.4065483697616634 0  0.3080989828449519 0.4000935798443311 0  0.3008895698852244 0.3932521023987346 0  0.2940480924396279 0.3860426894390071 0  0.2875933025222958 0.3784851014649511 0  0.2815428922637242 0.3706000532998818 0  0.2759134454178731 0.3624091573127368 0  0.2707203919072489 0.3539348641800746 0  0.2659779655305596 0.3452004013503309 0  0.2616991649488616 0.3362297093789972 0  0.2578957180571336 0.3270473763092215 0  0.2545780498389315 0.3176785702776921 0  0.251755253792233 0.3081489705305236 0  0.249435067004792 0.2984846970382286 0  0.2476238489473186 0.2887122389026941 0  0.2463265640426123 0.2788583817523945 0  0.2455467680584236 0.2689501343248454 0  0.2452865983613423 0.2590146544375318 0  0.2455467680584237 0.2490791745502182 0  0.2463265640426126 0.2391709271226692 0  0.247623848947319 0.2293170699723696 0  0.2494350670047924 0.2195446118368351 0  0.2517552537922335 0.2098803383445402 0  0.2545780498389321 0.2003507385973717 0  0.2578957180571343 0.1909819325658423 0  0.2616991649488624 0.1817995994960667 0  0.2659779655305604 0.172828907524733 0  0.2707203919072498 0.1640944446949895 0  0.2759134454178741 0.1556201515623273 0  0.2815428922637251 0.1474292555751825 0  0.2875933025222969 0.1395442074101132 0  0.2940480924396291 0.1319866194360571 0  0.3008895698852256 0.1247772064763297 0  0.3080989828449531 0.1179357290307334 0  0.3156565708190092 0.1114809391134012 0  0.3235416189840785 0.1054305288548295 0  0.3317325149712236 0.09980108200897844 0  0.3402068081038856 0.0946080284983544 0  0.3489412709336291 0.08986560212166514 0  0.357911962904963 0.08558680153996717 0  0.3670942959747386 0.08178335464823916 0  0.3764631020062678 0.07846568643003712 0  0.3859927017534364 0.0756428903833386 0  0.3956569752457313 0.0733227035958976 0  0.4054294333812659 0.07151148553842429 0  0.4152832905315654 0.07021420063371797 0  0.4251915379591144 0.0694344046495293 0  0.435127017846428 0.0691742349524479 0  0.4450624977337415 0.06943440464952938 0  0.4549707451612905 0.07021420063371814 0  0.4648246023115901 0.07151148553842454 0  0.4745970604471245 0.07332270359589793 0  0.4842613339394195 0.07564289038333902 0  0.4937909336865879 0.07846568643003757 0  0.5031597397181173 0.0817833546482398 0  0.5123420727878929 0.08558680153996781 0  0.5213127647592265 0.08986560212166581 0  0.53004722758897 0.0946080284983552 0  0.5385215207216321 0.09980108200897933 0  0.5467124167087771 0.1054305288548305 0  0.5545974648738462 0.1114809391134021 0  0.5621550528479023 0.1179357290307343 0  0.5693644658076298 0.1247772064763308 0  0.576205943253226 0.1319866194360582 0  0.5826607331705582 0.1395442074101142 0  0.5887111434291299 0.1474292555751835 0  0.594340590274981 0.1556201515623285 0  0.5995336437856051 0.1640944446949906 0  0.6042760701622945 0.172828907524734 0  0.6085548707439925 0.1817995994960678 0  0.6123583176357205 0.1909819325658435 0  0.6156759858539227 0.2003507385973728 0  0.6184987819006211 0.2098803383445412 0  0.6208189686880622 0.2195446118368362 0  0.6226301867455355 0.2293170699723706 0  0.6239274716502419 0.2391709271226702 0  0.6247072676344306 0.2490791745502192 0  0.203885768735257 0.3325402459548524 0  0.2015714905276826 0.3421799084407872 0  0.1977777294810124 0.3513388578120612 0  0.1925979005829864 0.3597915703383434 0  0.1861595484119405 0.3673299121842922 0  0.1786212065659918 0.373768264355338 0  0.1701684940397096 0.378948093253364 0  0.1610095446684356 0.3827418543000342 0  0.1513698821825007 0.3850561325076086 0  0.1414868670645144 0.3858339426659677 0  0.1316038519465281 0.3850561325076086 0  0.1219641894605933 0.3827418543000343 0  0.1128052400893193 0.378948093253364 0  0.1043525275630371 0.3737682643553381 0  0.09681418571708833 0.3673299121842922 0  0.09037583354604248 0.3597915703383434 0  0.08519600464801645 0.3513388578120612 0  0.08140224360134621 0.3421799084407872 0  0.07908796539377183 0.3325402459548523 0  0.07831015523541281 0.3226572308368659 0  0.07908796539377186 0.3127742157188796 0  0.08140224360134626 0.3031345532329447 0  0.08519600464801655 0.2939756038616707 0  0.0903758335460426 0.2855228913353884 0  0.0968141857
[...]
<PointData  Vectors="$u$"> 
<DataArray  type="Float64"  Name="$u$"  NumberOfComponents="3" format="ascii">3.4034416574240962e-04 6.3388309231384864e-04 0.0000000000000000e+00  0.0000000000000000e+00 0.0000000000000000e+00 0.0000000000000000e+00  -8.1213876706673555e-04 0.0000000000000000e+00 0.0000000000000000e+00  -1.4820527819707263e-04 7.0000000000000001e-03 0.0000000000000000e+00  -9.8160190235372854e-04 7.0000000000000001e-03 0.0000000000000000e+00  -1.3067740935574729e-03 1.7031451118830765e-03 0.0000000000000000e+00  1.4029276392968284e-03 1.0359130767729325e-03 0.0000000000000000e+00  1.2182923888059553e-03 1.8699005671855441e-03 0.0000000000000000e+00  -7.2359129509866544e-04 2.3646445339512581e-04 0.0000000000000000e+00  -1.0805806313679753e-03 2.0659397151929775e-05 0.0000000000000000e+00  -1.2330436374646966e-03 2.1703520739322274e-04 0.0000000000000000e+00  -7.1959263678332864e-05 2.7537929925131517e-03 0.0000000000000000e+00  -3.1945787314808026e-03 1.9855270703299809e-03 0.0000000000000000e+00  -4.5002287022547074e-04 4.2785454033622029e-03 0.0000000000000000e+00  -3.2779778873920487e-04 3.8625251194372664e-03 0.0000000000000000e+00  1.0153263442528944e-03 6.6849070428683256e-03 0.0000000000000000e+00  3.7066308073305877e-04 5.5779682310099915e-03 0.0000000000000000e+00  -5.7355117258107958e-04 6.7089139252154662e-03 0.0000000000000000e+00  -3.4039856191379527e-03 3.5040962150698711e-03 0.0000000000000000e+00  -2.5257392287242430e-03 4.9842515383455343e-03 0.0000000000000000e+00  -1.7758591756967814e-03 6.3606887753843962e-03 0.0000000000000000e+00  -1.6259923546027713e-03 6.2782432023855495e-03 0.0000000000000000e+00  4.5636578380376075e-04 7.4819503804644902e-04 0.0000000000000000e+00  5.7761238056667542e-04 8.5013472156367698e-04 0.0000000000000000e+00  6.8483357287271252e-04 9.3710349373059515e-04 0.0000000000000000e+00  7.6711421794842748e-04 9.7410772272672947e-04 0.0000000000000000e+00  8.2835093655462600e-04 9.5690988581318315e-04 0.0000000000000000e+00  8.3659744405378236e-04 8.5814766423899320e-04 0.0000000000000000e+00  8.1550217159018549e-04 7.1386570781161558e-04 0.0000000000000000e+00  7.4881900647413282e-04 5.9134795400433765e-04 0.0000000000000000e+00  6.5035863128035207e-04 5.2206876395997372e-04 0.0000000000000000e+00  5.6262054674682468e-04 4.8698989876580609e-04 0.0000000000000000e+00  4.7225044208316138e-04 4.4171061338519317e-04 0.0000000000000000e+00  3.9219322847317841e-04 4.0435912459934351e-04 0.0000000000000000e+00  3.1980010849596549e-04 3.5910376065621970e-04 0.0000000000000000e+00  2.5826567599718903e-04 3.1875242104053913e-04 0.0000000000000000e+00  2.0334800424058215e-04 2.9270844667792363e-04 0.0000000000000000e+00  1.6694290224364086e-04 2.8204322937414771e-04 0.0000000000000000e+00  1.4149070763220419e-04 2.9059285935050059e-04 0.0000000000000000e+00  1.3439392527236839e-04 3.1944824970564457e-04 0.0000000000000000e+00  1.5091511649654763e-04 3.6909318400237814e-04 0.0000000000000000e+00  1.8479215102284977e-04 4.3650286493986259e-04 0.0000000000000000e+00  2.5154873168419981e-04 5.2738645705075588e-04 0.0000000000000000e+00  0.0000000000000000e+00 0.0000000000000000e+00 0.0000000000000000e+00  -6.8980362882933657e-05 0.0000000000000000e+00 0.0000000000000000e+00  -9.3152672833405980e-05 0.0000000000000000e+00 0.0000000000000000e+00  -1.2330800583859489e-04 0.0000000000000000e+00 0.0000000000000000e+00  -1.4329901530927281e-04 0.0000000000000000e+00 0.0000000000000000e+00  -1.6317924731941333e-04 0.0000000000000000e+00 0.0000000000000000e+00  -1.7963859840538005e-04 0.0000000000000000e+00 0.0000000000000000e+00  -1.9544371765526516e-04 0.0000000000000000e+00 0.0000000000000000e+00  -2.0760737211121885e-04 0.0000000000000000e+00 0.0000000000000000e+00  -2.1661224611967272e-04 0.0000000000000000e+00 0.0000000000000000e+00  -2.2516810929756602e-04 0.0000000000000000e+00 0.0000000000000000e+00  -2.3692778244375552e-04 0.0000000000000000e+00 0.0000000000000000e+00  -2.5122463451040096e-04 0.0000000000000000e+00 0.0000000000000000e+00  -2.6825882887606729e-04 0.0000000000000000e+00 0.0000000000000000e+00  -2.8937450300452612e-04 0.0000000000000000e+00 0.0000000000000000e+00  -3.2278451971296597e-04 0.0000000000000000e+00 0.0000000000000000e+00  -3.7545207720716370e-04 0.0000000000000000e+00 0.0000000000000000e+00  -4.4557437248714032e-04 0.0000000000000000e+00 0.0000000000000000e+00  -4.9664000795209462e-04 0.0000000000000000e+00 0.0000000000000000e+00  -5.4059315301503187e-04 0.0000000000000000e+00 0.0000000000000000e+00  -6.0049231507759520e-04 0.0000000000000000e+00 0.0000000000000000e+00  -6.4076419921271267e-04 0.0000000000000000e+00 0.0000000000000000e+00  -6.5270357144302563e-04 0.0000000000000000e+00 0.0000000000000000e+00  -6.5469430833146739e-04 0.0000000000000000e+00 0.0000000000000000e+00  -6.5502762601822779e-04 0.0000000000000000e+00 0.0000000000000000e+00  -6.6609976025898128e-04 0.0000000000000000e+00 0.0000000000000000e+00  -6.8211860381137037e-04 0.0000000000000000e+00 0.0000000000000000e+00  -7.1468486903668337e-04 0.0000000000000000e+00 0.0000000000000000e+00  -7.5819804780791558e-04 0.0000000000000000e+00 0.0000000000000000e+00  -1.3561323206598617e-04 6.7977047335016283e-03 0.0000000000000000e+00  -9.2979168135331564e-05 6.5942402583156192e-03 0.0000000000000000e+00  -2.1563363652200814e-05 6.3828213432391805e-03 0.0000000000000000e+00  8.7006951464804812e-05 6.1665943109504079e-03 0.0000000000000000e+00  2.3195141057911808e-04 5.9435644871956112e-03 0.0000000000000000e+00  4.1757851279993169e-04 5.7118988073235465e-03 0.0000000000000000e+00  6.4431945099152231e-04 5.4735961122576761e-03 0.0000000000000000e+00  9.1440415053302827e-04 5.2099434131534211e-03 0.0000000000000000e+00  1.2543881578560238e-03 4.9224375810199813e-03 0.0000000000000000e+00  1.6876682118695159e-03 4.6055646422376436e-03 0.0000000000000000e+00  2.2340405101630365e-03 4.2949035221283727e-03 0.0000000000000000e+00  2.8432367587085889e-03 4.0506882055106434e-03 0.0000000000000000e+00  3.3369426439221759e-03 3.9339316054330309e-03 0.0000000000000000e+00  3.3297893590036013e-03 3.9189273559409078e-03 0.0000000000000000e+00  2.9175995645448322e-03 3.7438733341485777e-03 0.0000000000000000e+00  2.4691229328215880e-03 3.4251208334089124e-03 0.0000000000000000e+00  2.2055091409083865e-03 2.9923060140564367e-03 0.0000000000000000e+00  2.0878188252322501e-03 2.6932135694473468e-03 0.0000000000000000e+00  1.7004446740024439e-03 2.4341155783890772e-03 0.0000000000000000e+00  1.3667645887847405e-03 2.0820332723349450e-03 0.0000000000000000e+00  1.1386710709859098e-03 1.8252761481052395e-03 0.0000000000000000e+00  9.1328142344884397e-04 1.6020162580901150e-03 0.0000000000000000e+00  7.0352085154464525e-04 1.3925978785669538e-03 0.0000000000000000e+00  5.1616990711868726e-04 1.1852885174339308e-03 0.0000000000000000e+00  3.5878928349603658e-04 9.8189525145939540e-04 0.0000000000000000e+00  2.3391524004390455e-04 7.7535651787239617e-04 0.0000000000000000e+00  1.4228910272483502e-04 5.7904507025637779e-04 0.0000000000000000e+00  7.9082747429893489e-05 3.7554885400745689e-04 0.0000000000000000e+00  5.2067982127129231e-05 1.9520843949991334e-04 0.0000000000000000e+00  -8.2450528433358544e-04 1.9922170577064312e-04 0.0000000000000000e+00  -8.6836319799677797e-04 4.0207872812923306e-04 0.0000000000000000e+00  -9.4207922538258864e-04 6.0980141726160752e-04 0.0000000000000000e+00  -1.0518504374572300e-03 8.2713632089200678e-04 0.0000000000000000e+00  -1.2036869843100460e-03 1.0559348996266146e-03 0.0000000000000000e+00  -1.4076297656095203e-03 1.2970929629625562e-03 0.0000000000000000e+00  -1.6684726975496516e-03 1.5443406361477581e-03 0.0000000000000000e+00  -1.9978282805994197e-03 1.8020637231079971e-03 0.0000000000000000e+00  -2.3929617697753523e-03 2.0403743200950630e-03 0.0000000000000000e+00  -2.8167786603318767e-03 2.2359322496493688e-03 0.0000000000000000e+00  -3.1869093292279118e-03 2.3661815851075750e-03 0.0000000000000000e+00  -3.4057214309799063e-03 2.4599505588398618e-03 0.0000000000000000e+00  -3.4535064424397002e-03 2.5879394270186869e-03 0.0000000000000000e+00  -3.4252830297433617e-03 2.8541463464648274e-03 0.0000000000000000e+00  -3.6878102222897154e-03 3.2565125171670735e-03 0.0000000000000000e+00  -3.4707843362222898e-03 3.3314430225369930e-03 0.0000000000000000e+00  -2.5807551443007663e-03 4.4721189944390170e-03 0.0000000000000000e+00  -2.6396088629663992e-03 4.7634314297376424e-03 0.0000000000000000e+00  -2.5850532456976791e-03 4.9073042080880706e-03 0.0000000000000000e+00  -2.3478722384210476e-03 5.0544410463726035e-03 0.0000000000000000e+00  -2.0592604410623102e-03 5.2461679873543939e-03 0.0000000000000000e+00  -1.8023912884699571e-03 5.4597712184066196e-03 0.0000000000000000e+00  -1.5842339357876219e-03 5.6665626069222642e-03 0.0000000000000000e+00  -1.4019180348348638e-03 5.8720568117020793e-03 0.0000000000000000e+00  -1.2599782261381171e-03 6.0752040280898922e-03 0.0000000000000000e+00  -1.1544177308827866e-03 6.2695962674299797e-03 0.0000000000000000e+00  -1.0768548687945015e-03 6.4573534543687187e-03 0.0000000000000000e+00  -1.0237514949004035e-03 6.6397274837426967e-03 0.0000000000000000e+00  -9.9115200375853312e-04 6.8203257796223696e-03 0.0000000000000000e+00  -9.3230031267188779e-04 7.0000000000000001e-03 0.0000000000000000e+00  -8.8785126338000763e-04 7.0000000000000001e-03 0.0000000000000000e+00  -8.5146869104116469e-04 7.0000000000000001e-03 0.0000000000000000e+00  -8.2064103257861493e-04 7.0000000000000001e-03 0.0000000000000000e+00  -7.9391652359649275e-04 7.0000000000000001e-03 0.0000000000000000e+00  -7.6982678116245637e-04 7.0000000000000001e-03 0.0000000000000000e+00  -7.4973879849461473e-04 7.0000000000000001e-03 0.0000000000000000e+00  -7.3512233100721345e-04 7.0000000000000001e-03 0.0000000000000000e+00  -7.2341512511012271e-04 7.0000000000000001e-03 0.0000000000000000e+00  -7.1603533109152438e-04 7.0000000000000001e-03 0.0000000000000000e+00  -7.0527572722833148e-04 7.0000000000000001e-03 0.0000000000000000e+00  -6.9218653779121652e-04 7.0000000000000001e-03 0.0000000000000000e+00  -6.7524952094752909e-04 7.0000000000000001e-03 0.0000000000000000e+00  -6.5656312679773516e-04 7.0000000000000001e-03 0.0000000000000000e+00  -6.3753356523810179e-04 7.0000000000000001e-03 0.0000000000000000e+00  -6.1361729549372942e-04 7.0000000000000001e-03 0.0000000000000000e+00  -5.8170492232756008e-04 7.0000000000000001e-03 0.0000000000000000e+00  -5.3557081932303181e-04 7.0000000000000001e-03 0.0000000000000000e+00  -4.8105220429441503e-04 7.0000000000000001e-03 0.0000000000000000e+00  -4.3445010002439097e-04 7.0000000000000001e-03 0.0000000000000000e+00  -4.0591402035212011e-04 7.0000000000000001e-03 0.0000000000000000e+00  -3.8019381782226534e-04 7.0000000000000001e-03 0.0000000000000000e+00  -3.4832275380237689e-04 7.0000000000000001e-03 0.0000000000000000e+00  -3.2436757758020219e-04 7.0000000000000001e-03 0.0000000000000000e+00  -3.1294579328262272e-04 7.0000000000000001e-03 0.0000000000000000e+00  -2.9813869336073475e-04 7.0000000000000001e-03 0.0000000000000000e+00  -2.7938426375301604e-04 7.0000000000000001e-03 0.0000000000000000e+00  -2.4764453944702149e-04 7.0000000000000001e-03 0.0000000000000000e+00  -2.0238234399134813e-04 7.0000000000000001e-03 0.0000000000000000e+00  -1.2392947958952869e-03 1.8144152135100020e-03 0.0000000000000000e+00  -1.1614068593465399e-03 1.9213284596680739e-03 0.0000000000000000e+00  -1.0731634432885999e-03 2.0280462920097618e-03 0.0000000000000000e+00  -9.7882983254033969e-04 2.1283042659156373e-03 0.0000000000000000e+00  -8.7953948716207016e-04 2.2293239030234577e-03 0.0000000000000000e+00  -7.7725982170356617e-04 2.3229063438518415e-03 0.0000000000000000e+00  -6.7627660621077403e-04 2.4079407358684976e-03 0.0000000000000000e+00  -5.8220784409898283e-04 2.4837733431389256e-03 0.0000000000000000e+00  -4.9612857768515034e-04 2.5474693378004097e-03 0.0000000000000000e+00  -4.2437469917634636e-04 2.5976854633537332e-03 0.0000000000000000e+00  -3.6819141299628558e-04 2.6366536639799453e-03 0.0000000000000000e+00  -3.2943053603384120e-04 2.6639545144455743e-03 0.0000000000000000e+00  -3.0996982374774683e-04 2.6824750204664074e-03 0.0000000000000000e+00  -3.0835742472306769e-04 2.6945534582453238e-03 0.0000000000000000e+00  -3.2569354807155711e-04 2.7014121500548807e-03 0.0000000000000000e+00  -3.6044029834803027e-04 2.7121069919644105e-03 0.0000000000000000e+00  -4.0507308809925818e-04 2.7320915842762410e-03 0.0000000000000000e+00  -4.5230629390373704e-04 2.7649916764413852e-03 0.0000000000000000e+00  -4.9721788145154315e-04 2.8130333599913860e-03 0.0000000000000000e+00  -5.3495767738799896e-04 2.8718879458999248e-03 0.0000000000000000e+00  -5.6697052621009760e-04 2.9432302063865847e-03 0.0000000000000000e+00  -5.9108950408286447e-04 3.0235472293183665e-03 0.0000000000000000e+00  -6.0731443265680499e-04 3.1114898830421644e-03 0.0000000000000000e+00  -6.1604531318000815e-04 3.2047535251657050e-03 0.0000000000000000e+00  -6.1720144182960302e-04 3.3001998589752349e-03 0.0000000000000000e+00  -6.1179868718519881e-04 3.3949113946146817e-03 0.0000000000000000e+00  -5.9951221982644531e-04 3.4858649167456984e-03 0.0000000000000000e+00  -5.8396079866579887e-04 3.5703729992503661e-03 0.0000000000000000e+00  -5.6478101173774824e-04 3.6479279249266275e-03 0.0000000000000000e+00  -5.4308991384305371e-04 3.7177623367166774e-03 0.0000000000000000e+00  -5.1950512044382567e-04 3.7802189604496171e-03 0.0000000000000000e+00  -4.9186798146462767e-04 3.8371176742811614e-03 0.0000000000000000e+00  -4.5758882748047432e-04 3.8867889018305299e-03 0.0000000000000000e+00  -4.1195631886996418e-04 3.9277886502826383e-03 0.0000000000000000e+00  -3.4824270678823527e-04 3.9524551325313580e-03 0.0000000000000000e+00  -2.6620175513468268e-04 3.9524925738792733e-03 0.0000000000000000e+00  -1.6642564362224780e-04 3.9240338997499295e-03 0.0000000000000000e+00  -4.9455729786468378e-05 3.8655227782609805e-03 0.0000000000000000e+00  8.4053943774438079e-05 3.7766220684794000e-03 0.0000000000000000e+00  2.3250596829230087e-04 3.6553097628785718e-03 0.0000000000000000e+00  3.9271864947599909e-04 3.5028109735546265e-03 0.0000000000000000e+00  5.5968310329592927e-04 3.3190684181762333e-03 0.0000000000000000e+00  7.2349191557137147e-04 3.1108803409846592e-03 0.0000000000000000e+00  8.8045883788489035e-04 2.8848965449732172e-03 0.0000000000000000e+00  1.0230686564557832e-03 2.6504393367917656e-03 0.0000000000000000e+00  1.1401001946972150e-03 2.4126378799466416e-03 0.0000000000000000e+00  1.2367701470948102e-03 2.1904285787041696e-03 0.0000000000000000e+00  1.3099499031223919e-03 1.9806164658454188e-03 0.0000000000000000e+00  1.3594258074388222e-03 1.7875019921211480e-03 0.0000000000000000e+00  1.3908670327968337e-03 1.6126155980699117e-03 0.0000000000000000e+00  1.4051110096411747e-03 1.4522167277900048e-03 0.0000000000000000e+00  1.4031672942032957e-03 1.3080106868000945e-03 0.0000000000000000e+00  1.3827206456095424e-03 1.1720710160944892e-03 0.0000000000000000e+00  1.3420212599780184e-03 1.0478719114792809e-03 0.0000000000000000e+00  1.2816719342578853e-03 9.3707850801852323e-04 0.0000000000000000e+00  1.2026033101033213e-03 8.3887006204396211e-04 0.0000000000000000e+00  1.1115010537693548e-03 7.5366331241071883e-04 0.0000000000000000e+00  1.0156026879179865e-03 6.7921950138183167e-04 0.0000000000000000e+00  9.1820506961798657e-04 6.0768501300036473e-04 0.0000000000000000e+00  8.1881198521138244e-04 5.3792459211535659e-04 0.0000000000000000e+00  7.1464197649561637e-04 4.6582338477817111e-04 0.0000000000000000e+00  6.0196068016300981e-04 3.9380219766873149e-04 0.0000000000000000e+00  4.8419182772513314e-04 3.3359029354388428e-04 0.0000000000000000e+00  3.7406456256255531e-04 2.8473386512791360e-04 0.0000000000000000e+00  2.8025631419489053e-04 2.5026623974664692e-04 0.0000000000000000e+00  2.0791489812593957e-04 2.2214303163837370e-04 0.0000000000000000e+00  1.5393897793056658e-04 1.9799927952558334e-04 0.0000000000000000e+00  1.1301090410374969e-04 1.7272057749224319e-04 0.0000000000000000e+00  7.9751315376098476e-05 1.4781576753805051e-04 0.0000000000000000e+00  5.0203415375513106e-05 1.2257081754594282e-04 0.0000000000000000e+00  2.3042274158752857e-05 9.9434625400646184e-05 0.0000000000000000e+00  -2.7729253345067416e-06 7.7931609043586000e-05 0.0000000000000000e+00  -2.7380000547291283e-05 5.9363368126504825e-05 0.0000000000000000e+00  -5.0665748383815771e-05 4.3139469541037095e-05 0.0000000000000000e+00  -7.2752345149477396e-05 3.0260230088314976e-05 0.0000000000000000e+00  -9.3219464392975887e-05 1.9408599955126989e-05 0.0000000000000000e+00  -1.1226700757406475e-04 1.1585630822558279e-05 0.0000000000000000e+00  -1.2965784335471954e-04 5.5861974681899434e-06 0.0000000000000000e+00  -1.4539923957602755e-04 1.5839315607077703e-06 0.0000000000000000e+00  -1.6006912111610224e-04 -7.7102388951389378e-07 0.0000000000000000e+00  -1.7299846583073634e-04 -1.8186739942727986e-06 0.0000000000000000e+00  -1.8502897968749248e-04 -1.9443318691142203e-06 0.0000000000000000e+00  -1.9577369235380775e-04 -1.3276615102302093e-06 0.0000000000000000e+00  -2.0583283112199057e-04 -3.1661153924629886e-07 0.0000000000000000e+00  -2.1504977380662233e-04 9.7951891566102600e-07 0.0000000000000000e+00  -2.2398840785852855e-04 2.2922871509885876e-06 0.0000000000000000e+00  -2.3245742491776928e-04 3.6815045238604659e-06 0.0000000000000000e+00  -2.4078132783502754e-04 4.9213184546500995e-06 0.0000000000000000e+00  -2.4912178417328343e-04 6.2075228111245572e-06 0.0000000000000000e+00  -2.5750556714934560e-04 7.5482246129791488e-06 0.0000000000000000e+00  -2.6606059428521651e-04 9.1759708675553404e-06 0.0000000000000000e+00  -2.7456914061884519e-04 1.1186319497500042e-05 0.0000000000000000e+00  -2.8335677295290217e-04 1.3867286576002216e-05 0.0000000000000000e+00  -2.9218761281580891e-04 1.7830548827957663e-05 0.0000000000000000e+00  -3.0035040749179466e-04 2.2834332120274078e-05 0.0000000000000000e+00  -3.0840456038540878e-04 2.9453983375488086e-05 0.0000000000000000e+00  -3.1507859870488590e-04 3.7596409179120420e-05 0.0000000000000000e+00  -3.2086584659842031e-04 4.7206090370302714e-05 0.0000000000000000e+00  -3.2553085607419372e-04 5.8084518893390524e-05 0.0000000000000000e+00  -3.2883419590634666e-04 7.0263949320379469e-05 0.0000000000000000e+00  -3.3259484570622903e-04 8.2609161656389048e-05 0.0000000000000000e+00  -3.3729186838471600e-04 9.6191230237790965e-05 0.0000000000000000e+00  -3.4985497458186083e-04 1.0926115582305813e-04 0.0000000000000000e+00  -3.7083807628758548e-04 1.2893063721021867e-04 0.0000000000000000e+00  -4.1002264368937503e-04 1.5419861807554027e-04 0.0000000000000000e+00  -4.6404216046500447e-04 1.9645063711231934e-04 0.0000000000000000e+00  -5.3411244179762496e-04 2.5471307567423793e-04 0.0000000000000000e+00  -6.1032161686211254e-04 3.2845617963492475e-04 0.0000000000000000e+00  -6.9049920160450459e-04 4.0992061076472160e-04 0.0000000000000000e+00  -7.7380628632880706e-04 4.9295447459829099e-04 0.0000000000000000e+00  -8.6811564287356973e-04 5.7628552607960843e-04 0.0000000000000000e+00  -9.7234036099991283e-04 6.6808027154660599e-04 0.0000000000000000e+00  -1.0848285842557286e-03 7.7128033383264778e-04 0.0000000000000000e+00  -1.1937379020983394e-03 8.9001632816700376e-04 0.0000000000000000e+00  -1.2870382617113714e-03 1.0232624376206802e-03 0.0000000000000000e+00  -1.3529057207142640e-03 1.1624156809312710e-03 0.0000000000000000e+00  -1.3850767655236356e-03 1.3077347148708358e-03 0.0000000000000000e+00  -1.3836524912529909e-03 1.4533180287618472e-03 0.0000000000000000e+00  -1.3573869014084786e-03 1.5822383121109156e-03 0.0000000000000000e+00  1.4240898748467893e-03 1.0276536615587268e-03 0.0000000000000000e+00  1.4099401278481357e-03 1.0033697813394053e-03 0.0000000000000000e+00  1.3639439513051829e-03 9.6797511865478407e-04 0.0000000000000000e+00  1.2944083502901109e-03 9.330