<?xml version="1.0"?>
<VTKFile type="UnstructuredGrid"  version="0.1"  >
<UnstructuredGrid>
<Piece  NumberOfPoints="3879" NumberOfCells="6881">
<Points>
<DataArray  type="Float64"  NumberOfComponents="3"  format="ascii">0.207524190028372 0.2122422770132111 0  0 0 0  1 0 0  0 1 0  1 1 0  0.6249674373315121 0.2590146544375328 0  0.204663578893616 0.322657230836866 0  0.09605577522599912 0.4018360776629776 0  0.671351124618251 0.08738059142081528 0  0.7842102907526436 0.1666439122351055 0  0.8512483166984784 0.1985391006160637 0  0.6418797837909295 0.4423157172830166 0  0.9292488447973215 0.3869277868069776 0  0.3197896119137055 0.5509935221980964 0  0.3979283685568406 0.5079871620336583 0  0.1572503457993085 0.7345153245035532 0  0.3032914287999163 0.7872981443735918 0  0.3549464687598876 0.8870324161721976 0  0.9691791685505482 0.5159450047798622 0  0.9447564590470373 0.6146164845729313 0  0.7687603548175107 0.7176858127488035 0  0.8926159261971183 0.7422924070424508 0  0.2061587782631535 0.2217389244366831 0  0.2021731605082994 0.2304662099646423 0  0.1958902278109265 0.2377171008267789 0  0.1878189860121365 0.2429041729681512 0  0.1786133191209442 0.2456072006525708 0  0.1690190155206647 0.2456072006525708 0  0.1598133486294724 0.2429041729681512 0  0.1517421068306824 0.2377171008267789 0  0.1454591741333096 0.2304662099646422 0  0.1414735563784554 0.221738924436683 0  0.1401081446132369 0.212242277013211 0  0.1414735563784555 0.202745629589739 0  0.1454591741333096 0.1940183440617798 0  0.1517421068306825 0.1867674531996431 0  0.1598133486294725 0.1815803810582709 0  0.1690190155206649 0.1788773533738513 0  0.1786133191209443 0.1788773533738514 0  0.1878189860121367 0.181580381058271 0  0.1958902278109266 0.1867674531996433 0  0.2021731605082994 0.19401834406178 0  0.2061587782631535 0.2027456295897391 0  0.03333333333333333 0 0  0.06666666666666667 0 0  0.1 0 0  0.1333333333333333 0 0  0.1666666666666667 0 0  0.2 0 0  0.2333333333333333 0 0  0.2666666666666667 0 0  0.3 0 0  0.3333333333333333 0 0  0.3666666666666666 0 0  0.4 0 0  0.4333333333333333 0 0  0.4666666666666667 0 0  0.5 0 0  0.5333333333333333 0 0  0.5666666666666667 0 0  0.6 0 0  0.6333333333333333 0 0  0.6666666666666666 0 0  0.7 0 0  0.7333333333333333 0 0  0.7666666666666667 0 0  0.8 0 0  0.8333333333333334 0 0  0.8666666666666667 0 0  0.9 0 0  0.9333333333333333 0 0  0.9666666666666667 0 0  0 0.9666666666666667 0  0 0.9333333333333333 0  0 0.9 0  0 0.8666666666666667 0  0 0.8333333333333334 0  0 0.8 0  0 0.7666666666666666 0  0 0.7333333333333334 0  0 0.7 0  0 0.6666666666666667 0  0 0.6333333333333333 0  0 0.6 0  0 0.5666666666666667 0  0 0.5333333333333333 0  0 0.5 0  0 0.4666666666666667 0  0 0.4333333333333333 0  0 0.4 0  0 0.3666666666666667 0  0 0.3333333333333334 0  0 0.3 0  0 0.2666666666666667 0  0 0.2333333333333333 0  0 0.2 0  0 0.1666666666666666 0  0 0.1333333333333333 0  0 0.09999999999999998 0  0 0.06666666666666665 0  0 0.03333333333333333 0  1 0.03333333333333333 0  1 0.06666666666666667 0  1 0.1 0  1 0.1333333333333333 0  1 0.1666666666666667 0  1 0.2 0  1 0.2333333333333333 0  1 0.2666666666666667 0  1 0.3 0  1 0.3333333333333333 0  1 0.3666666666666666 0  1 0.4 0  1 0.4333333333333333 0  1 0.4666666666666667 0  1 0.5 0  1 0.5333333333333333 0  1 0.5666666666666667 0  1 0.6 0  1 0.6333333333333333 0  1 0.6666666666666666 0  1 0.7 0  1 0.7333333333333333 0  1 0.7666666666666667 0  1 0.8 0  1 0.8333333333333334 0  1 0.8666666666666667 0  1 0.9 0  1 0.9333333333333333 0  1 0.9666666666666667 0  0.9666666666666667 1 0  0.9333333333333333 1 0  0.9 1 0  0.8666666666666667 1 0  0.8333333333333334 1 0  0.8 1 0  0.7666666666666666 1 0  0.7333333333333334 1 0  0.7 1 0  0.6666666666666667 1 0  0.6333333333333333 1 0  0.6 1 0  0.5666666666666667 1 0  0.5333333333333333 1 0  0.5 1 0  0.4666666666666667 1 0  0.4333333333333333 1 0  0.4 1 0  0.3666666666666667 1 0  0.3333333333333334 1 0  0.3 1 0  0.2666666666666667 1 0  0.2333333333333333 1 0  0.2 1 0  0.1666666666666666 1 0  0.1333333333333333 1 0  0.09999999999999998 1 0  0.06666666666666665 1 0  0.03333333333333333 1 0  0.6247072676344306 0.2689501343248463 0  0.6239274716502419 0.2788583817523955 0  0.6226301867455355 0.2887122389026952 0  0.6208189686880621 0.2984846970382296 0  0.6184987819006211 0.3081489705305245 0  0.6156759858539226 0.317678570277693 0  0.6123583176357204 0.3270473763092224 0  0.6085548707439923 0.3362297093789981 0  0.6042760701622942 0.3452004013503318 0  0.5995336437856049 0.3539348641800754 0  0.5943405902749808 0.3624091573127375 0  0.5887111434291297 0.3706000532998825 0  0.582660733170558 0.3784851014649517 0  0.5762059432532257 0.3860426894390078 0  0.5693644658076293 0.3932521023987353 0  0.5621550528479018 0.4000935798443317 0  0.5545974648738458 0.4065483697616639 0  0.5467124167087765 0.4125987800202355 0  0.5385215207216315 0.4182282268660866 0  0.5300472275889694 0.4234212803767108 0  0.5213127647592257 0.4281637067534002 0  0.512342072787892 0.4324425073350981 0  0.5031597397181163 0.4362459542268262 0  0.493790933686587 0.4395636224450283 0  0.4842613339394185 0.4423864184917269 0  0.4745970604471235 0.4447066052791678 0  0.4648246023115891 0.4465178233366412 0  0.4549707451612894 0.4478151082413475 0  0.4450624977337403 0.4485949042255363 0  0.4351270178464268 0.4488550739226177 0  0.4251915379591132 0.4485949042255363 0  0.4152832905315641 0.4478151082413475 0  0.4054294333812644 0.4465178233366411 0  0.39565697524573 0.4447066052791677 0  0.385992701753435 0.4423864184917267 0  0.3764631020062665 0.4395636224450281 0  0.3670942959747371 0.4362459542268259 0  0.3579119629049616 0.4324425073350978 0  0.3489412709336278 0.4281637067533998 0  0.3402068081038843 0.4234212803767103 0  0.3317325149712221 0.4182282268660862 0  0.3235416189840771 0.412598780020235 0  0.3156565708190078 0.4065483697616634 0  0.3080989828449519 0.4000935798443311 0  0.3008895698852244 0.3932521023987346 0  0.2940480924396279 0.3860426894390071 0  0.2875933025222958 0.3784851014649511 0  0.2815428922637242 0.3706000532998818 0  0.2759134454178731 0.3624091573127368 0  0.2707203919072489 0.3539348641800746 0  0.2659779655305596 0.3452004013503309 0  0.2616991649488616 0.3362297093789972 0  0.2578957180571336 0.3270473763092215 0  0.2545780498389315 0.3176785702776921 0  0.251755253792233 0.3081489705305236 0  0.249435067004792 0.2984846970382286 0  0.2476238489473186 0.2887122389026941 0  0.2463265640426123 0.2788583817523945 0  0.2455467680584236 0.2689501343248454 0  0.2452865983613423 0.2590146544375318 0  0.2455467680584237 0.2490791745502182 0  0.2463265640426126 0.2391709271226692 0  0.247623848947319 0.2293170699723696 0  0.2494350670047924 0.2195446118368351 0  0.2517552537922335 0.2098803383445402 0  0.2545780498389321 0.2003507385973717 0  0.2578957180571343 0.1909819325658423 0  0.2616991649488624 0.1817995994960667 0  0.2659779655305604 0.172828907524733 0  0.2707203919072498 0.1640944446949895 0  0.2759134454178741 0.1556201515623273 0  0.2815428922637251 0.1474292555751825 0  0.2875933025222969 0.1395442074101132 0  0.2940480924396291 0.1319866194360571 0  0.3008895698852256 0.1247772064763297 0  0.3080989828449531 0.1179357290307334 0  0.3156565708190092 0.1114809391134012 0  0.3235416189840785 0.1054305288548295 0  0.3317325149712236 0.09980108200897844 0  0.3402068081038856 0.0946080284983544 0  0.3489412709336291 0.08986560212166514 0  0.357911962904963 0.08558680153996717 0  0.3670942959747386 0.08178335464823916 0  0.3764631020062678 0.07846568643003712 0  0.3859927017534364 0.0756428903833386 0  0.3956569752457313 0.0733227035958976 0  0.4054294333812659 0.07151148553842429 0  0.4152832905315654 0.07021420063371797 0  0.4251915379591144 0.0694344046495293 0  0.435127017846428 0.0691742349524479 0  0.4450624977337415 0.06943440464952938 0  0.4549707451612905 0.07021420063371814 0  0.4648246023115901 0.07151148553842454 0  0.4745970604471245 0.07332270359589793 0  0.4842613339394195 0.07564289038333902 0  0.4937909336865879 0.07846568643003757 0  0.5031597397181173 0.0817833546482398 0  0.5123420727878929 0.08558680153996781 0  0.5213127647592265 0.08986560212166581 0  0.53004722758897 0.0946080284983552 0  0.5385215207216321 0.09980108200897933 0  0.5467124167087771 0.1054305288548305 0  0.5545974648738462 0.1114809391134021 0  0.5621550528479023 0.1179357290307343 0  0.5693644658076298 0.1247772064763308 0  0.576205943253226 0.1319866194360582 0  0.5826607331705582 0.1395442074101142 0  0.5887111434291299 0.1474292555751835 0  0.594340590274981 0.1556201515623285 0  0.5995336437856051 0.1640944446949906 0  0.6042760701622945 0.172828907524734 0  0.6085548707439925 0.1817995994960678 0  0.6123583176357205 0.1909819325658435 0  0.6156759858539227 0.2003507385973728 0  0.6184987819006211 0.2098803383445412 0  0.6208189686880622 0.2195446118368362 0  0.6226301867455355 0.2293170699723706 0  0.6239274716502419 0.2391709271226702 0  0.6247072676344306 0.2490791745502192 0  0.203885768735257 0.3325402459548524 0  0.2015714905276826 0.3421799084407872 0  0.1977777294810124 0.3513388578120612 0  0.1925979005829864 0.3597915703383434 0  0.1861595484119405 0.3673299121842922 0  0.1786212065659918 0.373768264355338 0  0.1701684940397096 0.378948093253364 0  0.1610095446684356 0.3827418543000342 0  0.1513698821825007 0.3850561325076086 0  0.1414868670645144 0.3858339426659677 0  0.1316038519465281 0.3850561325076086 0  0.1219641894605933 0.3827418543000343 0  0.1128052400893193 0.378948093253364 0  0.1043525275630371 0.3737682643553381 0  0.09681418571708833 0.3673299121842922 0  0.09037583354604248 0.3597915703383434 0  0.08519600464801645 0.3513388578120612 0  0.08140224360134621 0.3421799084407872 0  0.07908796539377183 0.3325402459548523 0  0.07831015523541281 0.3226572308368659 0  0.07908796539377186 0.3127742157188796 0  0.08140224360134626 0.3031345532329447 0  0.08519600464801655 0.2939756038616707 0  0.0903758335460426 0.2855228913353884 0  0.0968141857
[...]
<PointData  Vectors="$u$"> 
<DataArray  type="Float64"  Name="$u$"  NumberOfComponents="3" format="ascii">2.7893989473473169e-04 5.2758261554101211e-04 0.0000000000000000e+00  0.0000000000000000e+00 0.0000000000000000e+00 0.0000000000000000e+00  -6.4942432028658578e-04 0.0000000000000000e+00 0.0000000000000000e+00  -9.5418002042233882e-05 5.7499999999999999e-03 0.0000000000000000e+00  -7.6478520296791833e-04 5.7499999999999999e-03 0.0000000000000000e+00  -1.0695655333295129e-03 1.3785344198101041e-03 0.0000000000000000e+00  1.1172060373993587e-03 8.5984653387213958e-04 0.0000000000000000e+00  9.6347274750760382e-04 1.5993149892776879e-03 0.0000000000000000e+00  -5.7342442695611044e-04 1.9729515549009666e-04 0.0000000000000000e+00  -8.7181335125740135e-04 2.4021416479983634e-05 0.0000000000000000e+00  -9.9976622396350510e-04 2.0228949090482138e-04 0.0000000000000000e+00  -1.3876213094111297e-04 2.2504938559181641e-03 0.0000000000000000e+00  -2.6338932984165337e-03 1.7439509781095475e-03 0.0000000000000000e+00  -4.1753828690323832e-04 3.5228370178865152e-03 0.0000000000000000e+00  -3.2650530554770930e-04 3.1634397350299923e-03 0.0000000000000000e+00  8.1761539628874157e-04 5.4684032251397811e-03 0.0000000000000000e+00  3.0680790868846505e-04 4.6037454814292058e-03 0.0000000000000000e+00  -4.3992467914672249e-04 5.5111129330384498e-03 0.0000000000000000e+00  -2.7956252656274466e-03 3.0303577445433679e-03 0.0000000000000000e+00  -2.1484510984067264e-03 4.0136506249212707e-03 0.0000000000000000e+00  -1.4592572826515147e-03 5.2306989887370052e-03 0.0000000000000000e+00  -1.3256935819022837e-03 5.1148070011565296e-03 0.0000000000000000e+00  3.7358604005976342e-04 6.2145840136378929e-04 0.0000000000000000e+00  4.7241116056071365e-04 7.0474648641368756e-04 0.0000000000000000e+00  5.5943802129808200e-04 7.7462012899005958e-04 0.0000000000000000e+00  6.2593098485716806e-04 8.0402116243359135e-04 0.0000000000000000e+00  6.7425027779589300e-04 7.8890591813033739e-04 0.0000000000000000e+00  6.8109621833927197e-04 7.0873911504658771e-04 0.0000000000000000e+00  6.6355021689135910e-04 5.9254619364636836e-04 0.0000000000000000e+00  6.0932440726312845e-04 4.9434926082275743e-04 0.0000000000000000e+00  5.2923646361493690e-04 4.3927140960375849e-04 0.0000000000000000e+00  4.5754966998096547e-04 4.1081989618528428e-04 0.0000000000000000e+00  3.8419241401486010e-04 3.7412592033461906e-04 0.0000000000000000e+00  3.1916665295734663e-04 3.4228252390291000e-04 0.0000000000000000e+00  2.6030465369976776e-04 3.0426688648785635e-04 0.0000000000000000e+00  2.1013996186282203e-04 2.7004428863100055e-04 0.0000000000000000e+00  1.6569258055554388e-04 2.4748432454120659e-04 0.0000000000000000e+00  1.3604848974035756e-04 2.3784600970365146e-04 0.0000000000000000e+00  1.1533348019417741e-04 2.4434818821493780e-04 0.0000000000000000e+00  1.0987056258421713e-04 2.6788587986310559e-04 0.0000000000000000e+00  1.2332841849913763e-04 3.0878434190288588e-04 0.0000000000000000e+00  1.5160607040417848e-04 3.6468927953692981e-04 0.0000000000000000e+00  2.0570928528517866e-04 4.3962064562492580e-04 0.0000000000000000e+00  0.0000000000000000e+00 0.0000000000000000e+00 0.0000000000000000e+00  -5.7078253773424060e-05 0.0000000000000000e+00 0.0000000000000000e+00  -7.7940346498050930e-05 0.0000000000000000e+00 0.0000000000000000e+00  -1.0261366186693856e-04 0.0000000000000000e+00 0.0000000000000000e+00  -1.1940273578699309e-04 0.0000000000000000e+00 0.0000000000000000e+00  -1.3543670318479174e-04 0.0000000000000000e+00 0.0000000000000000e+00  -1.4869376057711662e-04 0.0000000000000000e+00 0.0000000000000000e+00  -1.6103777336046637e-04 0.0000000000000000e+00 0.0000000000000000e+00  -1.7025921225578665e-04 0.0000000000000000e+00 0.0000000000000000e+00  -1.7656672522580805e-04 0.0000000000000000e+00 0.0000000000000000e+00  -1.8231533923557066e-04 0.0000000000000000e+00 0.0000000000000000e+00  -1.9055404043619398e-04 0.0000000000000000e+00 0.0000000000000000e+00  -2.0080087072026645e-04 0.0000000000000000e+00 0.0000000000000000e+00  -2.1329815005615956e-04 0.0000000000000000e+00 0.0000000000000000e+00  -2.2904186516148320e-04 0.0000000000000000e+00 0.0000000000000000e+00  -2.5481525105838500e-04 0.0000000000000000e+00 0.0000000000000000e+00  -2.9599219419429738e-04 0.0000000000000000e+00 0.0000000000000000e+00  -3.5127906663953641e-04 0.0000000000000000e+00 0.0000000000000000e+00  -3.9123219007076895e-04 0.0000000000000000e+00 0.0000000000000000e+00  -4.2572946555333803e-04 0.0000000000000000e+00 0.0000000000000000e+00  -4.7323950186648834e-04 0.0000000000000000e+00 0.0000000000000000e+00  -5.0454677889397105e-04 0.0000000000000000e+00 0.0000000000000000e+00  -5.1287370488226113e-04 0.0000000000000000e+00 0.0000000000000000e+00  -5.1336653583848623e-04 0.0000000000000000e+00 0.0000000000000000e+00  -5.1319449549681851e-04 0.0000000000000000e+00 0.0000000000000000e+00  -5.2255686739104948e-04 0.0000000000000000e+00 0.0000000000000000e+00  -5.3657575934969583e-04 0.0000000000000000e+00 0.0000000000000000e+00  -5.6496266815897098e-04 0.0000000000000000e+00 0.0000000000000000e+00  -6.0277496081584110e-04 0.0000000000000000e+00 0.0000000000000000e+00  -8.5174626840365511e-05 5.5823491139365255e-03 0.0000000000000000e+00  -5.0661356859749679e-05 5.4136521869823191e-03 0.0000000000000000e+00  7.3644402074111811e-06 5.2383366768883992e-03 0.0000000000000000e+00  9.5500564997971508e-05 5.0591193851359587e-03 0.0000000000000000e+00  2.1334289467480805e-04 4.8740717251212510e-03 0.0000000000000000e+00  3.6416393145973554e-04 4.6825041439760851e-03 0.0000000000000000e+00  5.4757754930759132e-04 4.4858715506416987e-03 0.0000000000000000e+00  7.6448328332207386e-04 4.2695853766362268e-03 0.0000000000000000e+00  1.0356753167521211e-03 4.0342444956411715e-03 0.0000000000000000e+00  1.3808581022978353e-03 3.7765637100147633e-03 0.0000000000000000e+00  1.8118506467161499e-03 3.5310383220036857e-03 0.0000000000000000e+00  2.2728869438376508e-03 3.3467134790123713e-03 0.0000000000000000e+00  2.6111969817077412e-03 3.2550904857623045e-03 0.0000000000000000e+00  2.6170312993764391e-03 3.2188622062879475e-03 0.0000000000000000e+00  2.3386977459464906e-03 3.0860506884369107e-03 0.0000000000000000e+00  1.9985122659537742e-03 2.8353225708743816e-03 0.0000000000000000e+00  1.7977122150867474e-03 2.4873553070229159e-03 0.0000000000000000e+00  1.6950584674757373e-03 2.2466499290788792e-03 0.0000000000000000e+00  1.3877655848058073e-03 2.0298135474255052e-03 0.0000000000000000e+00  1.1205908569939945e-03 1.7398965443723104e-03 0.0000000000000000e+00  9.3623137046924636e-04 1.5263075385424391e-03 0.0000000000000000e+00  7.5212623248877084e-04 1.3402939016014556e-03 0.0000000000000000e+00  5.7904041639467098e-04 1.1648654828322405e-03 0.0000000000000000e+00  4.2460681634104067e-04 9.9083232323544631e-04 0.0000000000000000e+00  2.9502435265084788e-04 8.2020147634286912e-04 0.0000000000000000e+00  1.9246654408472128e-04 6.4743939649265672e-04 0.0000000000000000e+00  1.1735136537448396e-04 4.8300563445503701e-04 0.0000000000000000e+00  6.5536224959505170e-05 3.1366518120901223e-04 0.0000000000000000e+00  4.3319717616213723e-05 1.6264994270677891e-04 0.0000000000000000e+00  -6.5996795817680495e-04 1.7226770206733673e-04 0.0000000000000000e+00  -6.9703958293771719e-04 3.4743335843225807e-04 0.0000000000000000e+00  -7.5937843325000229e-04 5.2702484982012005e-04 0.0000000000000000e+00  -8.5219767078417708e-04 7.1485880266620734e-04 0.0000000000000000e+00  -9.8043765744257956e-04 9.1230797588051399e-04 0.0000000000000000e+00  -1.1525062847106474e-03 1.1206715745862563e-03 0.0000000000000000e+00  -1.3726275547627381e-03 1.3343139027490354e-03 0.0000000000000000e+00  -1.6500979015653199e-03 1.5565293960199081e-03 0.0000000000000000e+00  -1.9814113197785138e-03 1.7617790474531126e-03 0.0000000000000000e+00  -2.3329382522539088e-03 1.9310041425908797e-03 0.0000000000000000e+00  -2.6337049026295980e-03 2.0473614701160135e-03 0.0000000000000000e+00  -2.8085336458962182e-03 2.1404436286242695e-03 0.0000000000000000e+00  -2.8467570687530494e-03 2.2649819185387617e-03 0.0000000000000000e+00  -2.8381966229490056e-03 2.4977485595060055e-03 0.0000000000000000e+00  -2.9914783411013803e-03 2.7842121530810629e-03 0.0000000000000000e+00  -2.7059815685888606e-03 2.9147857764897935e-03 0.0000000000000000e+00  -2.3045613547866437e-03 3.4138291608209557e-03 0.0000000000000000e+00  -2.2718603893326795e-03 3.7085649277495605e-03 0.0000000000000000e+00  -2.1775340886216461e-03 3.8694460989853428e-03 0.0000000000000000e+00  -1.9582071134377440e-03 4.0205018824062888e-03 0.0000000000000000e+00  -1.7047195140122244e-03 4.1994808094297318e-03 0.0000000000000000e+00  -1.4807130061125077e-03 4.3914419221079909e-03 0.0000000000000000e+00  -1.2905358769632151e-03 4.5759276629540029e-03 0.0000000000000000e+00  -1.1316291382609560e-03 4.7579651723171591e-03 0.0000000000000000e+00  -1.0076427263931230e-03 4.9372580754274628e-03 0.0000000000000000e+00  -9.1532908962861637e-04 5.1085871616912797e-03 0.0000000000000000e+00  -8.4760733068779302e-04 5.2738605035566608e-03 0.0000000000000000e+00  -8.0141717535980699e-04 5.4342474001970653e-03 0.0000000000000000e+00  -7.7315355231598294e-04 5.5924975154246406e-03 0.0000000000000000e+00  -7.2161232600775188e-04 5.7499999999999999e-03 0.0000000000000000e+00  -6.8286351238632372e-04 5.7499999999999999e-03 0.0000000000000000e+00  -6.5143380864527789e-04 5.7499999999999999e-03 0.0000000000000000e+00  -6.2543936455149304e-04 5.7499999999999999e-03 0.0000000000000000e+00  -6.0343396889772053e-04 5.7499999999999999e-03 0.0000000000000000e+00  -5.8430874809006967e-04 5.7499999999999999e-03 0.0000000000000000e+00  -5.6898020765191841e-04 5.7499999999999999e-03 0.0000000000000000e+00  -5.5845456380358574e-04 5.7499999999999999e-03 0.0000000000000000e+00  -5.5062408303856321e-04 5.7499999999999999e-03 0.0000000000000000e+00  -5.4627971572196172e-04 5.7499999999999999e-03 0.0000000000000000e+00  -5.3913930742728480e-04 5.7499999999999999e-03 0.0000000000000000e+00  -5.2990201460377626e-04 5.7499999999999999e-03 0.0000000000000000e+00  -5.1749164392206348e-04 5.7499999999999999e-03 0.0000000000000000e+00  -5.0361012979666456e-04 5.7499999999999999e-03 0.0000000000000000e+00  -4.8944428797741536e-04 5.7499999999999999e-03 0.0000000000000000e+00  -4.7120968996296154e-04 5.7499999999999999e-03 0.0000000000000000e+00  -4.4637303723116055e-04 5.7499999999999999e-03 0.0000000000000000e+00  -4.0985558517699371e-04 5.7499999999999999e-03 0.0000000000000000e+00  -3.6646207293791674e-04 5.7499999999999999e-03 0.0000000000000000e+00  -3.2951784791682197e-04 5.7499999999999999e-03 0.0000000000000000e+00  -3.0710725982074845e-04 5.7499999999999999e-03 0.0000000000000000e+00  -2.8674236647365382e-04 5.7499999999999999e-03 0.0000000000000000e+00  -2.6106712834969369e-04 5.7499999999999999e-03 0.0000000000000000e+00  -2.4183271043935850e-04 5.7499999999999999e-03 0.0000000000000000e+00  -2.3256845691782804e-04 5.7499999999999999e-03 0.0000000000000000e+00  -2.2034936109798772e-04 5.7499999999999999e-03 0.0000000000000000e+00  -2.0459150622588739e-04 5.7499999999999999e-03 0.0000000000000000e+00  -1.7810002829641701e-04 5.7499999999999999e-03 0.0000000000000000e+00  -1.4040420302433812e-04 5.7499999999999999e-03 0.0000000000000000e+00  -1.0173938486402396e-03 1.4705216798049530e-03 0.0000000000000000e+00  -9.5687425584347306e-04 1.5581246968074515e-03 0.0000000000000000e+00  -8.8802006478283708e-04 1.6451947316281194e-03 0.0000000000000000e+00  -8.1434563575853301e-04 1.7268246154082524e-03 0.0000000000000000e+00  -7.3679807924286237e-04 1.8086784264845241e-03 0.0000000000000000e+00  -6.5697321564292489e-04 1.8843440452954499e-03 0.0000000000000000e+00  -5.7836083658277689e-04 1.9528211239912495e-03 0.0000000000000000e+00  -5.0544054365293453e-04 2.0135231317753516e-03 0.0000000000000000e+00  -4.3917194140639525e-04 2.0641289225491587e-03 0.0000000000000000e+00  -3.8464862338888291e-04 2.1036345930094276e-03 0.0000000000000000e+00  -3.4282755906103182e-04 2.1336027562400420e-03 0.0000000000000000e+00  -3.1533769064824455e-04 2.1541518940032412e-03 0.0000000000000000e+00  -3.0352687314252945e-04 2.1673317545108733e-03 0.0000000000000000e+00  -3.0626286944182687e-04 2.1754174662747508e-03 0.0000000000000000e+00  -3.2433796229514137e-04 2.1793999101300766e-03 0.0000000000000000e+00  -3.5633085470031792e-04 2.1867143112423585e-03 0.0000000000000000e+00  -3.9622145708619787e-04 2.2019980724042537e-03 0.0000000000000000e+00  -4.3781349644526283e-04 2.2280992802959304e-03 0.0000000000000000e+00  -4.7735041474006274e-04 2.2670470226890099e-03 0.0000000000000000e+00  -5.1046895231879547e-04 2.3152874799653028e-03 0.0000000000000000e+00  -5.3872032010651195e-04 2.3742737042503131e-03 0.0000000000000000e+00  -5.6003590095896256e-04 2.4412866341237596e-03 0.0000000000000000e+00  -5.7439581133629600e-04 2.5150745460626673e-03 0.0000000000000000e+00  -5.8214487073921851e-04 2.5937642435029102e-03 0.0000000000000000e+00  -5.8327691891984969e-04 2.6747247059070354e-03 0.0000000000000000e+00  -5.7850519443300799e-04 2.7553865185925216e-03 0.0000000000000000e+00  -5.6780395838272428e-04 2.8332046869827521e-03 0.0000000000000000e+00  -5.5405714493886218e-04 2.9057779935556436e-03 0.0000000000000000e+00  -5.3718550904543680e-04 2.9726780396019136e-03 0.0000000000000000e+00  -5.1808391725294365e-04 3.0331247025120623e-03 0.0000000000000000e+00  -4.9733999002664852e-04 3.0873967409021097e-03 0.0000000000000000e+00  -4.7341228744543886e-04 3.1369021351295651e-03 0.0000000000000000e+00  -4.4425211924890455e-04 3.1805176019892760e-03 0.0000000000000000e+00  -4.0595743301464159e-04 3.2170717873153585e-03 0.0000000000000000e+00  -3.5328886650578558e-04 3.2405522964620830e-03 0.0000000000000000e+00  -2.8566144122603698e-04 3.2442725259629961e-03 0.0000000000000000e+00  -2.0369885942054150e-04 3.2249405590279051e-03 0.0000000000000000e+00  -1.0747684166434937e-04 3.1812506631755362e-03 0.0000000000000000e+00  2.4969362837149087e-06 3.1125888770375271e-03 0.0000000000000000e+00  1.2504255065218882e-04 3.0172768809489069e-03 0.0000000000000000e+00  2.5794284092485833e-04 2.8959118645774883e-03 0.0000000000000000e+00  3.9680534221865594e-04 2.7480505284542931e-03 0.0000000000000000e+00  5.3343212468021128e-04 2.5792564768106182e-03 0.0000000000000000e+00  6.6488204779139811e-04 2.3949223306533643e-03 0.0000000000000000e+00  7.8434655244411151e-04 2.2026279783640204e-03 0.0000000000000000e+00  8.8253572572339495e-04 2.0068751310032044e-03 0.0000000000000000e+00  9.6362462456110721e-04 1.8235132649111966e-03 0.0000000000000000e+00  1.0252288638885546e-03 1.6499224109556940e-03 0.0000000000000000e+00  1.0685262798317951e-03 1.4914403228936739e-03 0.0000000000000000e+00  1.0971538320532399e-03 1.3490081757474429e-03 0.0000000000000000e+00  1.1112744719032393e-03 1.2185169202670865e-03 0.0000000000000000e+00  1.1127926556136838e-03 1.1009318573374453e-03 0.0000000000000000e+00  1.0995881212888436e-03 9.9074746439285267e-04 0.0000000000000000e+00  1.0701820488359917e-03 8.8957070021063861e-04 0.0000000000000000e+00  1.0247159742167277e-03 7.9764279552292086e-04 0.0000000000000000e+00  9.6435548289349805e-04 7.1491929651529968e-04 0.0000000000000000e+00  8.9406211036363527e-04 6.4291733069967848e-04 0.0000000000000000e+00  8.1947501957624835e-04 5.7944650977550497e-04 0.0000000000000000e+00  7.4299043797729843e-04 5.1845209246203529e-04 0.0000000000000000e+00  6.6428992271812140e-04 4.5899498023224358e-04 0.0000000000000000e+00  5.8098714920106940e-04 3.9755604492134299e-04 0.0000000000000000e+00  4.9009887618047638e-04 3.3672413785000181e-04 0.0000000000000000e+00  3.9471045719706172e-04 2.8537533202260308e-04 0.0000000000000000e+00  3.0510025181022912e-04 2.4380283191654376e-04 0.0000000000000000e+00  2.2857119477054112e-04 2.1394074943482361e-04 0.0000000000000000e+00  1.6941931224989209e-04 1.8975088556637544e-04 0.0000000000000000e+00  1.2525030784529467e-04 1.6871300456061157e-04 0.0000000000000000e+00  9.1672815476100206e-05 1.4710850301631907e-04 0.0000000000000000e+00  6.4342888808399711e-05 1.2577633408890893e-04 0.0000000000000000e+00  4.0104283190268064e-05 1.0440372890948375e-04 0.0000000000000000e+00  1.7789149671892351e-05 8.4667058314807662e-05 0.0000000000000000e+00  -3.3988501430466341e-06 6.6551127793800153e-05 0.0000000000000000e+00  -2.3506142114057828e-05 5.0700316563531186e-05 0.0000000000000000e+00  -4.2585158266211964e-05 3.6998410748902807e-05 0.0000000000000000e+00  -6.0556615477449172e-05 2.5989008469804839e-05 0.0000000000000000e+00  -7.7210900520233240e-05 1.6751739152168206e-05 0.0000000000000000e+00  -9.2640395189838408e-05 1.0022237930852182e-05 0.0000000000000000e+00  -1.0665357134872358e-04 4.8381538049898014e-06 0.0000000000000000e+00  -1.1931351386777089e-04 1.3417371060104741e-06 0.0000000000000000e+00  -1.3100454267744050e-04 -7.6496716814054712e-07 0.0000000000000000e+00  -1.4125187212123776e-04 -1.7725235168972780e-06 0.0000000000000000e+00  -1.5070166445142505e-04 -1.9903531709087831e-06 0.0000000000000000e+00  -1.5908219791858325e-04 -1.5709872503628009e-06 0.0000000000000000e+00  -1.6683549891196369e-04 -8.1137807672261912e-07 0.0000000000000000e+00  -1.7389052815123431e-04 2.0231503765653081e-07 0.0000000000000000e+00  -1.8066766920548787e-04 1.2409374018159611e-06 0.0000000000000000e+00  -1.8704429102244370e-04 2.3538230650616068e-06 0.0000000000000000e+00  -1.9327456187114044e-04 3.3456070150915672e-06 0.0000000000000000e+00  -1.9951629557821593e-04 4.3833645205179736e-06 0.0000000000000000e+00  -2.0576326803222830e-04 5.4614907276961256e-06 0.0000000000000000e+00  -2.1215804313386619e-04 6.7712868598417396e-06 0.0000000000000000e+00  -2.1852835403636414e-04 8.3887367366680270e-06 0.0000000000000000e+00  -2.2510391470704786e-04 1.0554219989115694e-05 0.0000000000000000e+00  -2.3174667940374573e-04 1.3727764075514159e-05 0.0000000000000000e+00  -2.3788987475528722e-04 1.7755883309292902e-05 0.0000000000000000e+00  -2.4393100176013757e-04 2.3078185291411343e-05 0.0000000000000000e+00  -2.4895532507014938e-04 2.9633887071040354e-05 0.0000000000000000e+00  -2.5326631938557266e-04 3.7382227754827783e-05 0.0000000000000000e+00  -2.5673695881034560e-04 4.6158668007680246e-05 0.0000000000000000e+00  -2.5919579235921463e-04 5.6017239947506386e-05 0.0000000000000000e+00  -2.6195869413312214e-04 6.6065595887618436e-05 0.0000000000000000e+00  -2.6579342888382874e-04 7.7032264184029976e-05 0.0000000000000000e+00  -2.7564395971941169e-04 8.7928969287075234e-05 0.0000000000000000e+00  -2.9263105087012393e-04 1.0382394734699505e-04 0.0000000000000000e+00  -3.2403320354894185e-04 1.2466953691940853e-04 0.0000000000000000e+00  -3.6743839358454645e-04 1.5900795138676488e-04 0.0000000000000000e+00  -4.2367037191647766e-04 2.0628271494272388e-04 0.0000000000000000e+00  -4.8475980364978748e-04 2.6601462634919307e-04 0.0000000000000000e+00  -5.4889954721679666e-04 3.3171796244226980e-04 0.0000000000000000e+00  -6.1597030783323294e-04 3.9844753896822721e-04 0.0000000000000000e+00  -6.9204026442890422e-04 4.6546127549559099e-04 0.0000000000000000e+00  -7.7718832956680055e-04 5.3902027694728897e-04 0.0000000000000000e+00  -8.6966003926212585e-04 6.2252254851272257e-04 0.0000000000000000e+00  -9.6005575452016013e-04 7.1907574242963135e-04 0.0000000000000000e+00  -1.0381083039450187e-03 8.2836272808307584e-04 0.0000000000000000e+00  -1.0944594665102134e-03 9.4348888898726654e-04 0.0000000000000000e+00  -1.1248713563888557e-03 1.0600008036003867e-03 0.0000000000000000e+00  -1.1275246312760583e-03 1.1740654872090435e-03 0.0000000000000000e+00  -1.1078438946432953e-03 1.2782426723135923e-03 0.0000000000000000e+00  1.1297788524216098e-03 8.5502987070955479e-04 0.0000000000000000e+00  1.1142803610671328e-03 8.3703638459006649e-04 0.0000000000000000e+00  1.0734432948924038e-03 8.1012560391307284e-04 0.0000000000000000e+00  1.0141141219601113e-03 7.8378