<?xml version="1.0"?>
<VTKFile type="UnstructuredGrid"  version="0.1"  >
<UnstructuredGrid>
<Piece  NumberOfPoints="3879" NumberOfCells="6881">
<Points>
<DataArray  type="Float64"  NumberOfComponents="3"  format="ascii">0.207524190028372 0.2122422770132111 0  0 0 0  1 0 0  0 1 0  1 1 0  0.6249674373315121 0.2590146544375328 0  0.204663578893616 0.322657230836866 0  0.09605577522599912 0.4018360776629776 0  0.671351124618251 0.08738059142081528 0  0.7842102907526436 0.1666439122351055 0  0.8512483166984784 0.1985391006160637 0  0.6418797837909295 0.4423157172830166 0  0.9292488447973215 0.3869277868069776 0  0.3197896119137055 0.5509935221980964 0  0.3979283685568406 0.5079871620336583 0  0.1572503457993085 0.7345153245035532 0  0.3032914287999163 0.7872981443735918 0  0.3549464687598876 0.8870324161721976 0  0.9691791685505482 0.5159450047798622 0  0.9447564590470373 0.6146164845729313 0  0.7687603548175107 0.7176858127488035 0  0.8926159261971183 0.7422924070424508 0  0.2061587782631535 0.2217389244366831 0  0.2021731605082994 0.2304662099646423 0  0.1958902278109265 0.2377171008267789 0  0.1878189860121365 0.2429041729681512 0  0.1786133191209442 0.2456072006525708 0  0.1690190155206647 0.2456072006525708 0  0.1598133486294724 0.2429041729681512 0  0.1517421068306824 0.2377171008267789 0  0.1454591741333096 0.2304662099646422 0  0.1414735563784554 0.221738924436683 0  0.1401081446132369 0.212242277013211 0  0.1414735563784555 0.202745629589739 0  0.1454591741333096 0.1940183440617798 0  0.1517421068306825 0.1867674531996431 0  0.1598133486294725 0.1815803810582709 0  0.1690190155206649 0.1788773533738513 0  0.1786133191209443 0.1788773533738514 0  0.1878189860121367 0.181580381058271 0  0.1958902278109266 0.1867674531996433 0  0.2021731605082994 0.19401834406178 0  0.2061587782631535 0.2027456295897391 0  0.03333333333333333 0 0  0.06666666666666667 0 0  0.1 0 0  0.1333333333333333 0 0  0.1666666666666667 0 0  0.2 0 0  0.2333333333333333 0 0  0.2666666666666667 0 0  0.3 0 0  0.3333333333333333 0 0  0.3666666666666666 0 0  0.4 0 0  0.4333333333333333 0 0  0.4666666666666667 0 0  0.5 0 0  0.5333333333333333 0 0  0.5666666666666667 0 0  0.6 0 0  0.6333333333333333 0 0  0.6666666666666666 0 0  0.7 0 0  0.7333333333333333 0 0  0.7666666666666667 0 0  0.8 0 0  0.8333333333333334 0 0  0.8666666666666667 0 0  0.9 0 0  0.9333333333333333 0 0  0.9666666666666667 0 0  0 0.9666666666666667 0  0 0.9333333333333333 0  0 0.9 0  0 0.8666666666666667 0  0 0.8333333333333334 0  0 0.8 0  0 0.7666666666666666 0  0 0.7333333333333334 0  0 0.7 0  0 0.6666666666666667 0  0 0.6333333333333333 0  0 0.6 0  0 0.5666666666666667 0  0 0.5333333333333333 0  0 0.5 0  0 0.4666666666666667 0  0 0.4333333333333333 0  0 0.4 0  0 0.3666666666666667 0  0 0.3333333333333334 0  0 0.3 0  0 0.2666666666666667 0  0 0.2333333333333333 0  0 0.2 0  0 0.1666666666666666 0  0 0.1333333333333333 0  0 0.09999999999999998 0  0 0.06666666666666665 0  0 0.03333333333333333 0  1 0.03333333333333333 0  1 0.06666666666666667 0  1 0.1 0  1 0.1333333333333333 0  1 0.1666666666666667 0  1 0.2 0  1 0.2333333333333333 0  1 0.2666666666666667 0  1 0.3 0  1 0.3333333333333333 0  1 0.3666666666666666 0  1 0.4 0  1 0.4333333333333333 0  1 0.4666666666666667 0  1 0.5 0  1 0.5333333333333333 0  1 0.5666666666666667 0  1 0.6 0  1 0.6333333333333333 0  1 0.6666666666666666 0  1 0.7 0  1 0.7333333333333333 0  1 0.7666666666666667 0  1 0.8 0  1 0.8333333333333334 0  1 0.8666666666666667 0  1 0.9 0  1 0.9333333333333333 0  1 0.9666666666666667 0  0.9666666666666667 1 0  0.9333333333333333 1 0  0.9 1 0  0.8666666666666667 1 0  0.8333333333333334 1 0  0.8 1 0  0.7666666666666666 1 0  0.7333333333333334 1 0  0.7 1 0  0.6666666666666667 1 0  0.6333333333333333 1 0  0.6 1 0  0.5666666666666667 1 0  0.5333333333333333 1 0  0.5 1 0  0.4666666666666667 1 0  0.4333333333333333 1 0  0.4 1 0  0.3666666666666667 1 0  0.3333333333333334 1 0  0.3 1 0  0.2666666666666667 1 0  0.2333333333333333 1 0  0.2 1 0  0.1666666666666666 1 0  0.1333333333333333 1 0  0.09999999999999998 1 0  0.06666666666666665 1 0  0.03333333333333333 1 0  0.6247072676344306 0.2689501343248463 0  0.6239274716502419 0.2788583817523955 0  0.6226301867455355 0.2887122389026952 0  0.6208189686880621 0.2984846970382296 0  0.6184987819006211 0.3081489705305245 0  0.6156759858539226 0.317678570277693 0  0.6123583176357204 0.3270473763092224 0  0.6085548707439923 0.3362297093789981 0  0.6042760701622942 0.3452004013503318 0  0.5995336437856049 0.3539348641800754 0  0.5943405902749808 0.3624091573127375 0  0.5887111434291297 0.3706000532998825 0  0.582660733170558 0.3784851014649517 0  0.5762059432532257 0.3860426894390078 0  0.5693644658076293 0.3932521023987353 0  0.5621550528479018 0.4000935798443317 0  0.5545974648738458 0.4065483697616639 0  0.5467124167087765 0.4125987800202355 0  0.5385215207216315 0.4182282268660866 0  0.5300472275889694 0.4234212803767108 0  0.5213127647592257 0.4281637067534002 0  0.512342072787892 0.4324425073350981 0  0.5031597397181163 0.4362459542268262 0  0.493790933686587 0.4395636224450283 0  0.4842613339394185 0.4423864184917269 0  0.4745970604471235 0.4447066052791678 0  0.4648246023115891 0.4465178233366412 0  0.4549707451612894 0.4478151082413475 0  0.4450624977337403 0.4485949042255363 0  0.4351270178464268 0.4488550739226177 0  0.4251915379591132 0.4485949042255363 0  0.4152832905315641 0.4478151082413475 0  0.4054294333812644 0.4465178233366411 0  0.39565697524573 0.4447066052791677 0  0.385992701753435 0.4423864184917267 0  0.3764631020062665 0.4395636224450281 0  0.3670942959747371 0.4362459542268259 0  0.3579119629049616 0.4324425073350978 0  0.3489412709336278 0.4281637067533998 0  0.3402068081038843 0.4234212803767103 0  0.3317325149712221 0.4182282268660862 0  0.3235416189840771 0.412598780020235 0  0.3156565708190078 0.4065483697616634 0  0.3080989828449519 0.4000935798443311 0  0.3008895698852244 0.3932521023987346 0  0.2940480924396279 0.3860426894390071 0  0.2875933025222958 0.3784851014649511 0  0.2815428922637242 0.3706000532998818 0  0.2759134454178731 0.3624091573127368 0  0.2707203919072489 0.3539348641800746 0  0.2659779655305596 0.3452004013503309 0  0.2616991649488616 0.3362297093789972 0  0.2578957180571336 0.3270473763092215 0  0.2545780498389315 0.3176785702776921 0  0.251755253792233 0.3081489705305236 0  0.249435067004792 0.2984846970382286 0  0.2476238489473186 0.2887122389026941 0  0.2463265640426123 0.2788583817523945 0  0.2455467680584236 0.2689501343248454 0  0.2452865983613423 0.2590146544375318 0  0.2455467680584237 0.2490791745502182 0  0.2463265640426126 0.2391709271226692 0  0.247623848947319 0.2293170699723696 0  0.2494350670047924 0.2195446118368351 0  0.2517552537922335 0.2098803383445402 0  0.2545780498389321 0.2003507385973717 0  0.2578957180571343 0.1909819325658423 0  0.2616991649488624 0.1817995994960667 0  0.2659779655305604 0.172828907524733 0  0.2707203919072498 0.1640944446949895 0  0.2759134454178741 0.1556201515623273 0  0.2815428922637251 0.1474292555751825 0  0.2875933025222969 0.1395442074101132 0  0.2940480924396291 0.1319866194360571 0  0.3008895698852256 0.1247772064763297 0  0.3080989828449531 0.1179357290307334 0  0.3156565708190092 0.1114809391134012 0  0.3235416189840785 0.1054305288548295 0  0.3317325149712236 0.09980108200897844 0  0.3402068081038856 0.0946080284983544 0  0.3489412709336291 0.08986560212166514 0  0.357911962904963 0.08558680153996717 0  0.3670942959747386 0.08178335464823916 0  0.3764631020062678 0.07846568643003712 0  0.3859927017534364 0.0756428903833386 0  0.3956569752457313 0.0733227035958976 0  0.4054294333812659 0.07151148553842429 0  0.4152832905315654 0.07021420063371797 0  0.4251915379591144 0.0694344046495293 0  0.435127017846428 0.0691742349524479 0  0.4450624977337415 0.06943440464952938 0  0.4549707451612905 0.07021420063371814 0  0.4648246023115901 0.07151148553842454 0  0.4745970604471245 0.07332270359589793 0  0.4842613339394195 0.07564289038333902 0  0.4937909336865879 0.07846568643003757 0  0.5031597397181173 0.0817833546482398 0  0.5123420727878929 0.08558680153996781 0  0.5213127647592265 0.08986560212166581 0  0.53004722758897 0.0946080284983552 0  0.5385215207216321 0.09980108200897933 0  0.5467124167087771 0.1054305288548305 0  0.5545974648738462 0.1114809391134021 0  0.5621550528479023 0.1179357290307343 0  0.5693644658076298 0.1247772064763308 0  0.576205943253226 0.1319866194360582 0  0.5826607331705582 0.1395442074101142 0  0.5887111434291299 0.1474292555751835 0  0.594340590274981 0.1556201515623285 0  0.5995336437856051 0.1640944446949906 0  0.6042760701622945 0.172828907524734 0  0.6085548707439925 0.1817995994960678 0  0.6123583176357205 0.1909819325658435 0  0.6156759858539227 0.2003507385973728 0  0.6184987819006211 0.2098803383445412 0  0.6208189686880622 0.2195446118368362 0  0.6226301867455355 0.2293170699723706 0  0.6239274716502419 0.2391709271226702 0  0.6247072676344306 0.2490791745502192 0  0.203885768735257 0.3325402459548524 0  0.2015714905276826 0.3421799084407872 0  0.1977777294810124 0.3513388578120612 0  0.1925979005829864 0.3597915703383434 0  0.1861595484119405 0.3673299121842922 0  0.1786212065659918 0.373768264355338 0  0.1701684940397096 0.378948093253364 0  0.1610095446684356 0.3827418543000342 0  0.1513698821825007 0.3850561325076086 0  0.1414868670645144 0.3858339426659677 0  0.1316038519465281 0.3850561325076086 0  0.1219641894605933 0.3827418543000343 0  0.1128052400893193 0.378948093253364 0  0.1043525275630371 0.3737682643553381 0  0.09681418571708833 0.3673299121842922 0  0.09037583354604248 0.3597915703383434 0  0.08519600464801645 0.3513388578120612 0  0.08140224360134621 0.3421799084407872 0  0.07908796539377183 0.3325402459548523 0  0.07831015523541281 0.3226572308368659 0  0.07908796539377186 0.3127742157188796 0  0.08140224360134626 0.3031345532329447 0  0.08519600464801655 0.2939756038616707 0  0.0903758335460426 0.2855228913353884 0  0.0968141857
[...]
<PointData  Vectors="$u$"> 
<DataArray  type="Float64"  Name="$u$"  NumberOfComponents="3" format="ascii">4.0022270586861301e-04 7.5761226533874312e-04 0.0000000000000000e+00  0.0000000000000000e+00 0.0000000000000000e+00 0.0000000000000000e+00  -1.0403915560168609e-03 0.0000000000000000e+00 0.0000000000000000e+00  -1.4012645269856127e-04 8.7500000000000008e-03 0.0000000000000000e+00  -1.2078454731841175e-03 8.7500000000000008e-03 0.0000000000000000e+00  -1.6426941962181703e-03 2.2425791727867374e-03 0.0000000000000000e+00  1.7411527101274466e-03 1.2592329907734384e-03 0.0000000000000000e+00  1.4770685748386973e-03 2.1292409044912195e-03 0.0000000000000000e+00  -9.3649635020544438e-04 2.6828101965270962e-04 0.0000000000000000e+00  -1.3738990617421789e-03 7.6218875766046634e-06 0.0000000000000000e+00  -1.5600034351709435e-03 2.1547731211374628e-04 0.0000000000000000e+00  9.4234715931826551e-05 3.4984752149588719e-03 0.0000000000000000e+00  -3.9392597918880773e-03 2.2175090075736707e-03 0.0000000000000000e+00  -4.5784957427850450e-04 5.3192388132367856e-03 0.0000000000000000e+00  -3.1473581891781059e-04 4.7789109135151168e-03 0.0000000000000000e+00  1.4237708891533171e-03 8.4445287766484432e-03 0.0000000000000000e+00  6.2680186762500468e-04 6.8834788334587284e-03 0.0000000000000000e+00  -6.7330130802987608e-04 8.3821062512400984e-03 0.0000000000000000e+00  -4.2048908871953703e-03 4.1607905324879419e-03 0.0000000000000000e+00  -2.9944767764489874e-03 6.4212563813309644e-03 0.0000000000000000e+00  -2.1462553901333975e-03 7.9747748118153428e-03 0.0000000000000000e+00  -1.9729637136911417e-03 7.9538834743986785e-03 0.0000000000000000e+00  5.3783554820055176e-04 8.9771648408305859e-04 0.0000000000000000e+00  6.8455497734307212e-04 1.0224632533510792e-03 0.0000000000000000e+00  8.1535863180405880e-04 1.1315418551905993e-03 0.0000000000000000e+00  9.1791413899369723e-04 1.1786599472000544e-03 0.0000000000000000e+00  9.9885999479536690e-04 1.1573662234928479e-03 0.0000000000000000e+00  1.0146932893148851e-03 1.0298344248306258e-03 0.0000000000000000e+00  9.9284960037314103e-04 8.4325781061675334e-04 0.0000000000000000e+00  9.0327347441009076e-04 6.8144022642804771e-04 0.0000000000000000e+00  7.8577957775886539e-04 5.8737739819145402e-04 0.0000000000000000e+00  6.8062677834583606e-04 5.4614286748196745e-04 0.0000000000000000e+00  5.7070463719062991e-04 4.9168861996077239e-04 0.0000000000000000e+00  4.7288833483794142e-04 4.5128866941302463e-04 0.0000000000000000e+00  3.8456496302924115e-04 4.0095474975073553e-04 0.0000000000000000e+00  3.0971195976071204e-04 3.5718559959599800e-04 0.0000000000000000e+00  2.4219398578060700e-04 3.3067972005931839e-04 0.0000000000000000e+00  1.9767041025264660e-04 3.2187578887227859e-04 0.0000000000000000e+00  1.6624339963172181e-04 3.3525701141299890e-04 0.0000000000000000e+00  1.5628308456016815e-04 3.7212860674499951e-04 0.0000000000000000e+00  1.7540030322635980e-04 4.3332975171726329e-04 0.0000000000000000e+00  2.1372892551751299e-04 5.1484651761534209e-04 0.0000000000000000e+00  2.9381339993402999e-04 6.2485839462887607e-04 0.0000000000000000e+00  0.0000000000000000e+00 0.0000000000000000e+00 0.0000000000000000e+00  -8.0549847985228196e-05 0.0000000000000000e+00 0.0000000000000000e+00  -1.0681112669044635e-04 0.0000000000000000e+00 0.0000000000000000e+00  -1.4261906928189492e-04 0.0000000000000000e+00 0.0000000000000000e+00  -1.6568786783538136e-04 0.0000000000000000e+00 0.0000000000000000e+00  -1.9052974474458476e-04 0.0000000000000000e+00 0.0000000000000000e+00  -2.1165224858435248e-04 0.0000000000000000e+00 0.0000000000000000e+00  -2.3305502745054316e-04 0.0000000000000000e+00 0.0000000000000000e+00  -2.5041733886603052e-04 0.0000000000000000e+00 0.0000000000000000e+00  -2.6446757412682833e-04 0.0000000000000000e+00 0.0000000000000000e+00  -2.7810215772517912e-04 0.0000000000000000e+00 0.0000000000000000e+00  -2.9569195185743694e-04 0.0000000000000000e+00 0.0000000000000000e+00  -3.1640627026359452e-04 0.0000000000000000e+00 0.0000000000000000e+00  -3.4048904063299390e-04 0.0000000000000000e+00 0.0000000000000000e+00  -3.6992372274771414e-04 0.0000000000000000e+00 0.0000000000000000e+00  -4.1492372251780653e-04 0.0000000000000000e+00 0.0000000000000000e+00  -4.8481419218339460e-04 0.0000000000000000e+00 0.0000000000000000e+00  -5.7720902568094085e-04 0.0000000000000000e+00 0.0000000000000000e+00  -6.4519145432308071e-04 0.0000000000000000e+00 0.0000000000000000e+00  -7.0291935861511057e-04 0.0000000000000000e+00 0.0000000000000000e+00  -7.7975413565777160e-04 0.0000000000000000e+00 0.0000000000000000e+00  -8.3334073608062713e-04 0.0000000000000000e+00 0.0000000000000000e+00  -8.5194394125466489e-04 0.0000000000000000e+00 0.0000000000000000e+00  -8.5752545976139263e-04 0.0000000000000000e+00 0.0000000000000000e+00  -8.5948455511786789e-04 0.0000000000000000e+00 0.0000000000000000e+00  -8.7307355730191429e-04 0.0000000000000000e+00 0.0000000000000000e+00  -8.9135658419644864e-04 0.0000000000000000e+00 0.0000000000000000e+00  -9.2855931754779744e-04 0.0000000000000000e+00 0.0000000000000000e+00  -9.7831765651032942e-04 0.0000000000000000e+00 0.0000000000000000e+00  -1.2414400509125088e-04 8.5076194499484926e-03 0.0000000000000000e+00  -6.9814390260646003e-05 8.2641709600267520e-03 0.0000000000000000e+00  2.0720030513830271e-05 8.0113265383196016e-03 0.0000000000000000e+00  1.5823753354980027e-04 7.7529300903603979e-03 0.0000000000000000e+00  3.4127437570131492e-04 7.4870623960365777e-03 0.0000000000000000e+00  5.7579600912369816e-04 7.2098592223868241e-03 0.0000000000000000e+00  8.6438335167429812e-04 6.9240334480823434e-03 0.0000000000000000e+00  1.2121673808953572e-03 6.6062200394218836e-03 0.0000000000000000e+00  1.6530269906136700e-03 6.2594017111279416e-03 0.0000000000000000e+00  2.2123830463456019e-03 5.8777307509173182e-03 0.0000000000000000e+00  2.9196402404989556e-03 5.4884587133552940e-03 0.0000000000000000e+00  3.7487653263555214e-03 5.1524335280298782e-03 0.0000000000000000e+00  4.5538430051424716e-03 4.9761802685780281e-03 0.0000000000000000e+00  4.4906456770429622e-03 5.0660201354194856e-03 0.0000000000000000e+00  3.7258290087233605e-03 4.8107751604311759e-03 0.0000000000000000e+00  3.1005748223319586e-03 4.3996177213162712e-03 0.0000000000000000e+00  2.8842609143585481e-03 3.6024808296931106e-03 0.0000000000000000e+00  2.6183315664389862e-03 3.1412470654061495e-03 0.0000000000000000e+00  2.1038009214016593e-03 2.8489343525015731e-03 0.0000000000000000e+00  1.6512227325394052e-03 2.4086455469063705e-03 0.0000000000000000e+00  1.3663262170085055e-03 2.1088185802200714e-03 0.0000000000000000e+00  1.0875622591768133e-03 1.8482936904325004e-03 0.0000000000000000e+00  8.3541045215351566e-04 1.6056503893944101e-03 0.0000000000000000e+00  6.1158633734894751e-04 1.3668192024699102e-03 0.0000000000000000e+00  4.2425118696760947e-04 1.1327762799751596e-03 0.0000000000000000e+00  2.7574261545324001e-04 8.9431670894049770e-04 0.0000000000000000e+00  1.6690847935177231e-04 6.6860331508784864e-04 0.0000000000000000e+00  9.2022405382807381e-05 4.3259800375769659e-04 0.0000000000000000e+00  6.0282977387189788e-05 2.2565697332261800e-04 0.0000000000000000e+00  -1.0551906179703946e-03 2.2980224562579060e-04 0.0000000000000000e+00  -1.1079690514953760e-03 4.6403923901286150e-04 0.0000000000000000e+00  -1.1966340281215492e-03 7.0347647143464238e-04 0.0000000000000000e+00  -1.3285641070800156e-03 9.5387595814811854e-04 0.0000000000000000e+00  -1.5110669075574473e-03 1.2176786582320004e-03 0.0000000000000000e+00  -1.7560042266168321e-03 1.4949012307896002e-03 0.0000000000000000e+00  -2.0685770481369196e-03 1.7789286310537689e-03 0.0000000000000000e+00  -2.4631468138389396e-03 2.0758334329199751e-03 0.0000000000000000e+00  -2.9392068161329787e-03 2.3522361322159428e-03 0.0000000000000000e+00  -3.4596777230919249e-03 2.5799794237262828e-03 0.0000000000000000e+00  -3.9319370402325143e-03 2.7255327520405138e-03 0.0000000000000000e+00  -4.2217729869019694e-03 2.8110987180361090e-03 0.0000000000000000e+00  -4.2880693552792542e-03 2.9284210856484780e-03 0.0000000000000000e+00  -4.2558688859067597e-03 3.2133576422153729e-03 0.0000000000000000e+00  -4.7419809227424578e-03 3.9050414856993138e-03 0.0000000000000000e+00  -4.6328887589006723e-03 3.9282848022985069e-03 0.0000000000000000e+00  -2.9458243408765974e-03 6.0319742198076962e-03 0.0000000000000000e+00  -3.1260726597198444e-03 6.3137951587650494e-03 0.0000000000000000e+00  -3.1115232536743382e-03 6.4144289374950987e-03 0.0000000000000000e+00  -2.8245377272375161e-03 6.5543787936792235e-03 0.0000000000000000e+00  -2.4779098250114766e-03 6.7635519692575453e-03 0.0000000000000000e+00  -2.1722418578430445e-03 7.0025900858139006e-03 0.0000000000000000e+00  -1.9135167489481180e-03 7.2352814814952175e-03 0.0000000000000000e+00  -1.6985526706918672e-03 7.4681657704800649e-03 0.0000000000000000e+00  -1.5325372591737689e-03 7.6988873342139184e-03 0.0000000000000000e+00  -1.4095975356477894e-03 7.9193586144369107e-03 0.0000000000000000e+00  -1.3192550282084571e-03 8.1324450360924557e-03 0.0000000000000000e+00  -1.2571808237463731e-03 8.3395276512058299e-03 0.0000000000000000e+00  -1.2190015666951048e-03 8.5452789927902405e-03 0.0000000000000000e+00  -1.1517544064983763e-03 8.7500000000000008e-03 0.0000000000000000e+00  -1.1009696525546284e-03 8.7500000000000008e-03 0.0000000000000000e+00  -1.0590313937844701e-03 8.7500000000000008e-03 0.0000000000000000e+00  -1.0225322919839633e-03 8.7500000000000008e-03 0.0000000000000000e+00  -9.8999341874748525e-04 8.7500000000000008e-03 0.0000000000000000e+00  -9.5933170834479971e-04 8.7500000000000008e-03 0.0000000000000000e+00  -9.3255941376948451e-04 8.7500000000000008e-03 0.0000000000000000e+00  -9.1173502105278462e-04 8.7500000000000008e-03 0.0000000000000000e+00  -8.9364625621666464e-04 8.7500000000000008e-03 0.0000000000000000e+00  -8.8061557863030747e-04 8.7500000000000008e-03 0.0000000000000000e+00  -8.6309540129863042e-04 8.7500000000000008e-03 0.0000000000000000e+00  -8.4272715663057443e-04 8.7500000000000008e-03 0.0000000000000000e+00  -8.1750487498790606e-04 8.7500000000000008e-03 0.0000000000000000e+00  -7.9016387267225572e-04 8.7500000000000008e-03 0.0000000000000000e+00  -7.6249531024458683e-04 8.7500000000000008e-03 0.0000000000000000e+00  -7.2898779316124345e-04 8.7500000000000008e-03 0.0000000000000000e+00  -6.8576878186102559e-04 8.7500000000000008e-03 0.0000000000000000e+00  -6.2469255433991689e-04 8.7500000000000008e-03 0.0000000000000000e+00  -5.5285430845315134e-04 8.7500000000000008e-03 0.0000000000000000e+00  -4.9065725717234866e-04 8.7500000000000008e-03 0.0000000000000000e+00  -4.5231655758648048e-04 8.7500000000000008e-03 0.0000000000000000e+00  -4.1917643973111578e-04 8.7500000000000008e-03 0.0000000000000000e+00  -3.7968666803074287e-04 8.7500000000000008e-03 0.0000000000000000e+00  -3.4959349512910594e-04 8.7500000000000008e-03 0.0000000000000000e+00  -3.3534525421002149e-04 8.7500000000000008e-03 0.0000000000000000e+00  -3.1737990469323288e-04 8.7500000000000008e-03 0.0000000000000000e+00  -2.9556379051562387e-04 8.7500000000000008e-03 0.0000000000000000e+00  -2.5822340367933310e-04 8.7500000000000008e-03 0.0000000000000000e+00  -2.0463353467799233e-04 8.7500000000000008e-03 0.0000000000000000e+00  -1.5460438597524352e-03 2.3714880623007689e-03 0.0000000000000000e+00  -1.4361504878151795e-03 2.4967501766068002e-03 0.0000000000000000e+00  -1.3141699151951120e-03 2.6245028721721239e-03 0.0000000000000000e+00  -1.1851535181137056e-03 2.7460050034742484e-03 0.0000000000000000e+00  -1.0503646767187121e-03 2.8695446101322910e-03 0.0000000000000000e+00  -9.1249428451074116e-04 2.9844706859861684e-03 0.0000000000000000e+00  -7.7679477255069521e-04 3.0894319977832108e-03 0.0000000000000000e+00  -6.5036466063500878e-04 3.1838170351384644e-03 0.0000000000000000e+00  -5.3415030688394583e-04 3.2635703884938195e-03 0.0000000000000000e+00  -4.3604631238576612e-04 3.3269156084516764e-03 0.0000000000000000e+00  -3.5756846753468518e-04 3.3768914020341984e-03 0.0000000000000000e+00  -3.0074955366388834e-04 3.4118487412937975e-03 0.0000000000000000e+00  -2.6838658107416075e-04 3.4357704883021547e-03 0.0000000000000000e+00  -2.5875544387705647e-04 3.4508443312497566e-03 0.0000000000000000e+00  -2.7343812549041882e-04 3.4586614131024052e-03 0.0000000000000000e+00  -3.1078813161202639e-04 3.4705659385671776e-03 0.0000000000000000e+00  -3.6106455063695170e-04 3.4929999504332314e-03 0.0000000000000000e+00  -4.1568089227324805e-04 3.5308821172235884e-03 0.0000000000000000e+00  -4.6780385593064253e-04 3.5863059329815602e-03 0.0000000000000000e+00  -5.1236087153934211e-04 3.6541727422010101e-03 0.0000000000000000e+00  -5.5040580282514860e-04 3.7362419925002139e-03 0.0000000000000000e+00  -5.7990718809327777e-04 3.8281246695185778e-03 0.0000000000000000e+00  -6.0086783039903853e-04 3.9285336627027569e-03 0.0000000000000000e+00  -6.1376233639955113e-04 4.0347051174549836e-03 0.0000000000000000e+00  -6.1836595880356189e-04 4.1431192917648369e-03 0.0000000000000000e+00  -6.1611272774165268e-04 4.2506713453551326e-03 0.0000000000000000e+00  -6.0614027114618723e-04 4.3539230780789903e-03 0.0000000000000000e+00  -5.9286035504436973e-04 4.4500089853454251e-03 0.0000000000000000e+00  -5.7551128958211329e-04 4.5383796840183501e-03 0.0000000000000000e+00  -5.5541859512773779e-04 4.6183974503621154e-03 0.0000000000000000e+00  -5.3316855113989098e-04 4.6904895444418778e-03 0.0000000000000000e+00  -5.0549086713424227e-04 4.7570062233596062e-03 0.0000000000000000e+00  -4.6894774526209384e-04 4.8152387499102245e-03 0.0000000000000000e+00  -4.1768764282840143e-04 4.8632004806689931e-03 0.0000000000000000e+00  -3.4248831554644775e-04 4.8904583141426558e-03 0.0000000000000000e+00  -2.4396166183705270e-04 4.8859867851518525e-03 0.0000000000000000e+00  -1.2261587670248146e-04 4.8449948278588145e-03 0.0000000000000000e+00  1.9788938353128480e-05 4.7655601503348690e-03 0.0000000000000000e+00  1.8212108443131707e-04 4.6481697784462282e-03 0.0000000000000000e+00  3.6212329189149145e-04 4.4907828577762489e-03 0.0000000000000000e+00  5.5495439843485507e-04 4.2961020852261139e-03 0.0000000000000000e+00  7.5521568546639561e-04 4.0652568593839361e-03 0.0000000000000000e+00  9.5126284791707415e-04 3.8069360782008559e-03 0.0000000000000000e+00  1.1388311316151733e-03 3.5294978013618227e-03 0.0000000000000000e+00  1.3101154632006687e-03 3.2446955164256138e-03 0.0000000000000000e+00  1.4542613969365757e-03 2.9591716861998331e-03 0.0000000000000000e+00  1.5743264594638661e-03 2.6953509155991278e-03 0.0000000000000000e+00  1.6517289727735365e-03 2.4408892200575324e-03 0.0000000000000000e+00  1.6976921603231352e-03 2.1981701817048922e-03 0.0000000000000000e+00  1.7276846587786668e-03 1.9727930295959702e-03 0.0000000000000000e+00  1.7403751195043536e-03 1.7659684874286497e-03 0.0000000000000000e+00  1.7277493656641266e-03 1.5799896165720148e-03 0.0000000000000000e+00  1.6931752932505529e-03 1.3996726631508496e-03 0.0000000000000000e+00  1.6341776486884687e-03 1.2315802314848937e-03 0.0000000000000000e+00  1.5630277032973627e-03 1.0815186124070448e-03 0.0000000000000000e+00  1.4651126481650229e-03 9.6838875875415113e-04 0.0000000000000000e+00  1.3481346152034040e-03 8.7518627312938068e-04 0.0000000000000000e+00  1.2271612441152710e-03 7.9210376999701304e-04 0.0000000000000000e+00  1.1053621720520527e-03 7.1073196540708883e-04 0.0000000000000000e+00  9.8200337398626487e-04 6.3038122640137612e-04 0.0000000000000000e+00  8.5382079047969237e-04 5.4687072565371352e-04 0.0000000000000000e+00  7.1617185585532870e-04 4.6221119606478683e-04 0.0000000000000000e+00  5.7282405090854169e-04 3.9242332361723022e-04 0.0000000000000000e+00  4.3978811589121073e-04 3.3553468871370566e-04 0.0000000000000000e+00  3.2736529198993482e-04 2.9651052724374844e-04 0.0000000000000000e+00  2.4160238126037396e-04 2.6403571418891946e-04 0.0000000000000000e+00  1.7820433391085361e-04 2.3663181791891939e-04 0.0000000000000000e+00  1.3067724330064775e-04 2.0696409425601976e-04 0.0000000000000000e+00  9.2245231448898928e-05 1.7785968758357704e-04 0.0000000000000000e+00  5.7977587624968437e-05 1.4783943030593108e-04 0.0000000000000000e+00  2.6414190721174274e-05 1.2064368940941922e-04 0.0000000000000000e+00  -3.7538018745093461e-06 9.4844924968367242e-05 0.0000000000000000e+00  -3.2870812271093210e-05 7.2989482914122592e-05 0.0000000000000000e+00  -6.0400135042172029e-05 5.3490532081193380e-05 0.0000000000000000e+00  -8.6919800864754449e-05 3.8233806752417662e-05 0.0000000000000000e+00  -1.1156718108314567e-04 2.5215934632605123e-05 0.0000000000000000e+00  -1.3476245030149159e-04 1.5879351222417999e-05 0.0000000000000000e+00  -1.5616018036323067e-04 8.6864446404333790e-06 0.0000000000000000e+00  -1.7565456265421708e-04 3.8424988843278583e-06 0.0000000000000000e+00  -1.9412383676799524e-04 9.7919955977818978e-07 0.0000000000000000e+00  -2.1056854452153963e-04 -3.0230258636342347e-07 0.0000000000000000e+00  -2.2610148158902263e-04 -5.0296635170113947e-07 0.0000000000000000e+00  -2.4015122527069473e-04 1.8788934014944690e-07 0.0000000000000000e+00  -2.5353635493479640e-04 1.3691436872122183e-06 0.0000000000000000e+00  -2.6593209616966021e-04 2.9057647514374306e-06 0.0000000000000000e+00  -2.7810191322028157e-04 4.4692223492209545e-06 0.0000000000000000e+00  -2.8974561285794766e-04 6.1363076063615525e-06 0.0000000000000000e+00  -3.0127323180785450e-04 7.6576756932231493e-06 0.0000000000000000e+00  -3.1282531948327276e-04 9.2399951774055782e-06 0.0000000000000000e+00  -3.2449594078746735e-04 1.0919672787787155e-05 0.0000000000000000e+00  -3.3635500279204837e-04 1.2988188050138724e-05 0.0000000000000000e+00  -3.4812012895166499e-04 1.5554282282052202e-05 0.0000000000000000e+00  -3.6028159421705507e-04 1.8988539844085984e-05 0.0000000000000000e+00  -3.7240573499539823e-04 2.4107099393068894e-05 0.0000000000000000e+00  -3.8357337453433433e-04 3.0518330876003159e-05 0.0000000000000000e+00  -3.9462414494659519e-04 3.9006256666091618e-05 0.0000000000000000e+00  -4.0368311854508516e-04 4.9411628714685021e-05 0.0000000000000000e+00  -4.1157941226855038e-04 6.1645323314524225e-05 0.0000000000000000e+00  -4.1789328501420383e-04 7.5430741475446364e-05 0.0000000000000000e+00  -4.2224438851067708e-04 9.0763615361402037e-05 0.0000000000000000e+00  -4.2735575749212884e-04 1.0605637499005199e-04 0.0000000000000000e+00  -4.3304654081255926e-04 1.2299365410151225e-04 0.0000000000000000e+00  -4.4964661366158856e-04 1.3837124886127000e-04 0.0000000000000000e+00  -4.7661499755299516e-04 1.6268659375919092e-04 0.0000000000000000e+00  -5.2810827506746295e-04 1.9308443928358842e-04 0.0000000000000000e+00  -5.9946904934678582e-04 2.4578295309840554e-04 0.0000000000000000e+00  -6.9284723099589625e-04 3.1917953358153649e-04 0.0000000000000000e+00  -7.9563963473658979e-04 4.1311009393603197e-04 0.0000000000000000e+00  -9.0479633644590524e-04 5.1826720693275759e-04 0.0000000000000000e+00  -1.0175099120759300e-03 6.2667176766185225e-04 0.0000000000000000e+00  -1.1437848200177947e-03 7.3552243551596331e-04 0.0000000000000000e+00  -1.2798177702833401e-03 8.5518726736740175e-04 0.0000000000000000e+00  -1.4243236040438880e-03 9.8655828212668379e-04 0.0000000000000000e+00  -1.5624673419995898e-03 1.1333124837665067e-03 0.0000000000000000e+00  -1.6805712498122953e-03 1.2920817176906940e-03 0.0000000000000000e+00  -1.7314751362170560e-03 1.4753327844538860e-03 0.0000000000000000e+00  -1.7475892207949512e-03 1.6885538248412237e-03 0.0000000000000000e+00  -1.7340372830701519e-03 1.9028653240269590e-03 0.0000000000000000e+00  -1.7058881304711610e-03 2.0882701522766450e-03 0.0000000000000000e+00  1.7780630436731565e-03 1.2466262186221703e-03 0.0000000000000000e+00  1.7679161114550997e-03 1.2136026004572931e-03 0.0000000000000000e+00  1.7154958498259618e-03 1.1660123879254985e-03 0.0000000000000000e+00  1.6314315397367538e-03 1.118169756