<?xml version="1.0"?>
<VTKFile type="UnstructuredGrid"  version="0.1"  >
<UnstructuredGrid>
<Piece  NumberOfPoints="3879" NumberOfCells="6881">
<Points>
<DataArray  type="Float64"  NumberOfComponents="3"  format="ascii">0.207524190028372 0.2122422770132111 0  0 0 0  1 0 0  0 1 0  1 1 0  0.6249674373315121 0.2590146544375328 0  0.204663578893616 0.322657230836866 0  0.09605577522599912 0.4018360776629776 0  0.671351124618251 0.08738059142081528 0  0.7842102907526436 0.1666439122351055 0  0.8512483166984784 0.1985391006160637 0  0.6418797837909295 0.4423157172830166 0  0.9292488447973215 0.3869277868069776 0  0.3197896119137055 0.5509935221980964 0  0.3979283685568406 0.5079871620336583 0  0.1572503457993085 0.7345153245035532 0  0.3032914287999163 0.7872981443735918 0  0.3549464687598876 0.8870324161721976 0  0.9691791685505482 0.5159450047798622 0  0.9447564590470373 0.6146164845729313 0  0.7687603548175107 0.7176858127488035 0  0.8926159261971183 0.7422924070424508 0  0.2061587782631535 0.2217389244366831 0  0.2021731605082994 0.2304662099646423 0  0.1958902278109265 0.2377171008267789 0  0.1878189860121365 0.2429041729681512 0  0.1786133191209442 0.2456072006525708 0  0.1690190155206647 0.2456072006525708 0  0.1598133486294724 0.2429041729681512 0  0.1517421068306824 0.2377171008267789 0  0.1454591741333096 0.2304662099646422 0  0.1414735563784554 0.221738924436683 0  0.1401081446132369 0.212242277013211 0  0.1414735563784555 0.202745629589739 0  0.1454591741333096 0.1940183440617798 0  0.1517421068306825 0.1867674531996431 0  0.1598133486294725 0.1815803810582709 0  0.1690190155206649 0.1788773533738513 0  0.1786133191209443 0.1788773533738514 0  0.1878189860121367 0.181580381058271 0  0.1958902278109266 0.1867674531996433 0  0.2021731605082994 0.19401834406178 0  0.2061587782631535 0.2027456295897391 0  0.03333333333333333 0 0  0.06666666666666667 0 0  0.1 0 0  0.1333333333333333 0 0  0.1666666666666667 0 0  0.2 0 0  0.2333333333333333 0 0  0.2666666666666667 0 0  0.3 0 0  0.3333333333333333 0 0  0.3666666666666666 0 0  0.4 0 0  0.4333333333333333 0 0  0.4666666666666667 0 0  0.5 0 0  0.5333333333333333 0 0  0.5666666666666667 0 0  0.6 0 0  0.6333333333333333 0 0  0.6666666666666666 0 0  0.7 0 0  0.7333333333333333 0 0  0.7666666666666667 0 0  0.8 0 0  0.8333333333333334 0 0  0.8666666666666667 0 0  0.9 0 0  0.9333333333333333 0 0  0.9666666666666667 0 0  0 0.9666666666666667 0  0 0.9333333333333333 0  0 0.9 0  0 0.8666666666666667 0  0 0.8333333333333334 0  0 0.8 0  0 0.7666666666666666 0  0 0.7333333333333334 0  0 0.7 0  0 0.6666666666666667 0  0 0.6333333333333333 0  0 0.6 0  0 0.5666666666666667 0  0 0.5333333333333333 0  0 0.5 0  0 0.4666666666666667 0  0 0.4333333333333333 0  0 0.4 0  0 0.3666666666666667 0  0 0.3333333333333334 0  0 0.3 0  0 0.2666666666666667 0  0 0.2333333333333333 0  0 0.2 0  0 0.1666666666666666 0  0 0.1333333333333333 0  0 0.09999999999999998 0  0 0.06666666666666665 0  0 0.03333333333333333 0  1 0.03333333333333333 0  1 0.06666666666666667 0  1 0.1 0  1 0.1333333333333333 0  1 0.1666666666666667 0  1 0.2 0  1 0.2333333333333333 0  1 0.2666666666666667 0  1 0.3 0  1 0.3333333333333333 0  1 0.3666666666666666 0  1 0.4 0  1 0.4333333333333333 0  1 0.4666666666666667 0  1 0.5 0  1 0.5333333333333333 0  1 0.5666666666666667 0  1 0.6 0  1 0.6333333333333333 0  1 0.6666666666666666 0  1 0.7 0  1 0.7333333333333333 0  1 0.7666666666666667 0  1 0.8 0  1 0.8333333333333334 0  1 0.8666666666666667 0  1 0.9 0  1 0.9333333333333333 0  1 0.9666666666666667 0  0.9666666666666667 1 0  0.9333333333333333 1 0  0.9 1 0  0.8666666666666667 1 0  0.8333333333333334 1 0  0.8 1 0  0.7666666666666666 1 0  0.7333333333333334 1 0  0.7 1 0  0.6666666666666667 1 0  0.6333333333333333 1 0  0.6 1 0  0.5666666666666667 1 0  0.5333333333333333 1 0  0.5 1 0  0.4666666666666667 1 0  0.4333333333333333 1 0  0.4 1 0  0.3666666666666667 1 0  0.3333333333333334 1 0  0.3 1 0  0.2666666666666667 1 0  0.2333333333333333 1 0  0.2 1 0  0.1666666666666666 1 0  0.1333333333333333 1 0  0.09999999999999998 1 0  0.06666666666666665 1 0  0.03333333333333333 1 0  0.6247072676344306 0.2689501343248463 0  0.6239274716502419 0.2788583817523955 0  0.6226301867455355 0.2887122389026952 0  0.6208189686880621 0.2984846970382296 0  0.6184987819006211 0.3081489705305245 0  0.6156759858539226 0.317678570277693 0  0.6123583176357204 0.3270473763092224 0  0.6085548707439923 0.3362297093789981 0  0.6042760701622942 0.3452004013503318 0  0.5995336437856049 0.3539348641800754 0  0.5943405902749808 0.3624091573127375 0  0.5887111434291297 0.3706000532998825 0  0.582660733170558 0.3784851014649517 0  0.5762059432532257 0.3860426894390078 0  0.5693644658076293 0.3932521023987353 0  0.5621550528479018 0.4000935798443317 0  0.5545974648738458 0.4065483697616639 0  0.5467124167087765 0.4125987800202355 0  0.5385215207216315 0.4182282268660866 0  0.5300472275889694 0.4234212803767108 0  0.5213127647592257 0.4281637067534002 0  0.512342072787892 0.4324425073350981 0  0.5031597397181163 0.4362459542268262 0  0.493790933686587 0.4395636224450283 0  0.4842613339394185 0.4423864184917269 0  0.4745970604471235 0.4447066052791678 0  0.4648246023115891 0.4465178233366412 0  0.4549707451612894 0.4478151082413475 0  0.4450624977337403 0.4485949042255363 0  0.4351270178464268 0.4488550739226177 0  0.4251915379591132 0.4485949042255363 0  0.4152832905315641 0.4478151082413475 0  0.4054294333812644 0.4465178233366411 0  0.39565697524573 0.4447066052791677 0  0.385992701753435 0.4423864184917267 0  0.3764631020062665 0.4395636224450281 0  0.3670942959747371 0.4362459542268259 0  0.3579119629049616 0.4324425073350978 0  0.3489412709336278 0.4281637067533998 0  0.3402068081038843 0.4234212803767103 0  0.3317325149712221 0.4182282268660862 0  0.3235416189840771 0.412598780020235 0  0.3156565708190078 0.4065483697616634 0  0.3080989828449519 0.4000935798443311 0  0.3008895698852244 0.3932521023987346 0  0.2940480924396279 0.3860426894390071 0  0.2875933025222958 0.3784851014649511 0  0.2815428922637242 0.3706000532998818 0  0.2759134454178731 0.3624091573127368 0  0.2707203919072489 0.3539348641800746 0  0.2659779655305596 0.3452004013503309 0  0.2616991649488616 0.3362297093789972 0  0.2578957180571336 0.3270473763092215 0  0.2545780498389315 0.3176785702776921 0  0.251755253792233 0.3081489705305236 0  0.249435067004792 0.2984846970382286 0  0.2476238489473186 0.2887122389026941 0  0.2463265640426123 0.2788583817523945 0  0.2455467680584236 0.2689501343248454 0  0.2452865983613423 0.2590146544375318 0  0.2455467680584237 0.2490791745502182 0  0.2463265640426126 0.2391709271226692 0  0.247623848947319 0.2293170699723696 0  0.2494350670047924 0.2195446118368351 0  0.2517552537922335 0.2098803383445402 0  0.2545780498389321 0.2003507385973717 0  0.2578957180571343 0.1909819325658423 0  0.2616991649488624 0.1817995994960667 0  0.2659779655305604 0.172828907524733 0  0.2707203919072498 0.1640944446949895 0  0.2759134454178741 0.1556201515623273 0  0.2815428922637251 0.1474292555751825 0  0.2875933025222969 0.1395442074101132 0  0.2940480924396291 0.1319866194360571 0  0.3008895698852256 0.1247772064763297 0  0.3080989828449531 0.1179357290307334 0  0.3156565708190092 0.1114809391134012 0  0.3235416189840785 0.1054305288548295 0  0.3317325149712236 0.09980108200897844 0  0.3402068081038856 0.0946080284983544 0  0.3489412709336291 0.08986560212166514 0  0.357911962904963 0.08558680153996717 0  0.3670942959747386 0.08178335464823916 0  0.3764631020062678 0.07846568643003712 0  0.3859927017534364 0.0756428903833386 0  0.3956569752457313 0.0733227035958976 0  0.4054294333812659 0.07151148553842429 0  0.4152832905315654 0.07021420063371797 0  0.4251915379591144 0.0694344046495293 0  0.435127017846428 0.0691742349524479 0  0.4450624977337415 0.06943440464952938 0  0.4549707451612905 0.07021420063371814 0  0.4648246023115901 0.07151148553842454 0  0.4745970604471245 0.07332270359589793 0  0.4842613339394195 0.07564289038333902 0  0.4937909336865879 0.07846568643003757 0  0.5031597397181173 0.0817833546482398 0  0.5123420727878929 0.08558680153996781 0  0.5213127647592265 0.08986560212166581 0  0.53004722758897 0.0946080284983552 0  0.5385215207216321 0.09980108200897933 0  0.5467124167087771 0.1054305288548305 0  0.5545974648738462 0.1114809391134021 0  0.5621550528479023 0.1179357290307343 0  0.5693644658076298 0.1247772064763308 0  0.576205943253226 0.1319866194360582 0  0.5826607331705582 0.1395442074101142 0  0.5887111434291299 0.1474292555751835 0  0.594340590274981 0.1556201515623285 0  0.5995336437856051 0.1640944446949906 0  0.6042760701622945 0.172828907524734 0  0.6085548707439925 0.1817995994960678 0  0.6123583176357205 0.1909819325658435 0  0.6156759858539227 0.2003507385973728 0  0.6184987819006211 0.2098803383445412 0  0.6208189686880622 0.2195446118368362 0  0.6226301867455355 0.2293170699723706 0  0.6239274716502419 0.2391709271226702 0  0.6247072676344306 0.2490791745502192 0  0.203885768735257 0.3325402459548524 0  0.2015714905276826 0.3421799084407872 0  0.1977777294810124 0.3513388578120612 0  0.1925979005829864 0.3597915703383434 0  0.1861595484119405 0.3673299121842922 0  0.1786212065659918 0.373768264355338 0  0.1701684940397096 0.378948093253364 0  0.1610095446684356 0.3827418543000342 0  0.1513698821825007 0.3850561325076086 0  0.1414868670645144 0.3858339426659677 0  0.1316038519465281 0.3850561325076086 0  0.1219641894605933 0.3827418543000343 0  0.1128052400893193 0.378948093253364 0  0.1043525275630371 0.3737682643553381 0  0.09681418571708833 0.3673299121842922 0  0.09037583354604248 0.3597915703383434 0  0.08519600464801645 0.3513388578120612 0  0.08140224360134621 0.3421799084407872 0  0.07908796539377183 0.3325402459548523 0  0.07831015523541281 0.3226572308368659 0  0.07908796539377186 0.3127742157188796 0  0.08140224360134626 0.3031345532329447 0  0.08519600464801655 0.2939756038616707 0  0.0903758335460426 0.2855228913353884 0  0.0968141857
[...]
<PointData  Vectors="$u$"> 
<DataArray  type="Float64"  Name="$u$"  NumberOfComponents="3" format="ascii">8.6553375719493247e-05 1.6110911048549531e-04 0.0000000000000000e+00  0.0000000000000000e+00 0.0000000000000000e+00 0.0000000000000000e+00  -1.9621951633248035e-04 0.0000000000000000e+00 0.0000000000000000e+00  -2.5656238110629273e-05 1.7500000000000000e-03 0.0000000000000000e+00  -2.2879665494713518e-04 1.7500000000000000e-03 0.0000000000000000e+00  -3.2433381249467901e-04 4.1739412396996452e-04 0.0000000000000000e+00  3.3733832664323591e-04 2.6324331074834061e-04 0.0000000000000000e+00  2.9269324430046518e-04 4.9513995809119451e-04 0.0000000000000000e+00  -1.7256105599459571e-04 6.1280757988597178e-05 0.0000000000000000e+00  -2.6432968111091869e-04 8.1799678562293290e-06 0.0000000000000000e+00  -3.0321547704610294e-04 6.4294678579692022e-05 0.0000000000000000e+00  -4.5039009495820553e-05 6.8279056017891764e-04 0.0000000000000000e+00  -7.9844866337502722e-04 5.4299852013294035e-04 0.0000000000000000e+00  -1.2729994656315329e-04 1.0731227025294688e-03 0.0000000000000000e+00  -1.0101505273119855e-04 9.6294335053082991e-04 0.0000000000000000e+00  2.4725856761479922e-04 1.6598625242894626e-03 0.0000000000000000e+00  9.4600223703931676e-05 1.4038421198503807e-03 0.0000000000000000e+00  -1.2969621361088321e-04 1.6767966313205400e-03 0.0000000000000000e+00  -8.3764539320653421e-04 9.2126735540420837e-04 0.0000000000000000e+00  -6.5305666778649651e-04 1.2105405584550571e-03 0.0000000000000000e+00  -4.4290912249865039e-04 1.5912866604819301e-03 0.0000000000000000e+00  -4.0166783156666495e-04 1.5519672806767323e-03 0.0000000000000000e+00  1.1493912036161209e-04 1.8922491770507213e-04 0.0000000000000000e+00  1.4499969100642803e-04 2.1462945908509343e-04 0.0000000000000000e+00  1.7134911360885477e-04 2.3509918788059545e-04 0.0000000000000000e+00  1.9140668101539981e-04 2.4480489603831933e-04 0.0000000000000000e+00  2.0417643368967866e-04 2.3959768047184492e-04 0.0000000000000000e+00  2.0681865656517343e-04 2.1612221650693577e-04 0.0000000000000000e+00  2.0131390366395058e-04 1.8152181539547805e-04 0.0000000000000000e+00  1.8501270492816000e-04 1.5271618451433226e-04 0.0000000000000000e+00  1.6177822158790282e-04 1.3659070138848678e-04 0.0000000000000000e+00  1.3964855223288768e-04 1.2723929485841700e-04 0.0000000000000000e+00  1.1753374645942017e-04 1.1665546637848272e-04 0.0000000000000000e+00  9.7780211106067186e-05 1.0617359322095940e-04 0.0000000000000000e+00  7.9783510707936341e-05 9.4535378165829870e-05 0.0000000000000000e+00  6.4291259110600135e-05 8.4081289528519144e-05 0.0000000000000000e+00  5.1172911246463192e-05 7.6884976380706515e-05 0.0000000000000000e+00  4.2171791288736629e-05 7.3725744367048160e-05 0.0000000000000000e+00  3.6054545438415493e-05 7.5688774478362787e-05 0.0000000000000000e+00  3.4726525313126731e-05 8.2754712085943936e-05 0.0000000000000000e+00  3.8534140772441054e-05 9.5316454620250862e-05 0.0000000000000000e+00  4.7912293498141458e-05 1.1233905663314531e-04 0.0000000000000000e+00  6.3255303065856092e-05 1.3472465523471714e-04 0.0000000000000000e+00  0.0000000000000000e+00 0.0000000000000000e+00 0.0000000000000000e+00  -1.6322799524327363e-05 0.0000000000000000e+00 0.0000000000000000e+00  -2.3936646812951509e-05 0.0000000000000000e+00 0.0000000000000000e+00  -3.0952806266533177e-05 0.0000000000000000e+00 0.0000000000000000e+00  -3.6516863167493130e-05 0.0000000000000000e+00 0.0000000000000000e+00  -4.1285419467057411e-05 0.0000000000000000e+00 0.0000000000000000e+00  -4.5377934989493329e-05 0.0000000000000000e+00 0.0000000000000000e+00  -4.9023473039586114e-05 0.0000000000000000e+00 0.0000000000000000e+00  -5.1863165923765553e-05 0.0000000000000000e+00 0.0000000000000000e+00  -5.3678214090320447e-05 0.0000000000000000e+00 0.0000000000000000e+00  -5.5359983242148754e-05 0.0000000000000000e+00 0.0000000000000000e+00  -5.7761908136247752e-05 0.0000000000000000e+00 0.0000000000000000e+00  -6.0788380922484204e-05 0.0000000000000000e+00 0.0000000000000000e+00  -6.4548574345815556e-05 0.0000000000000000e+00 0.0000000000000000e+00  -6.9209979672629648e-05 0.0000000000000000e+00 0.0000000000000000e+00  -7.7033405783819841e-05 0.0000000000000000e+00 0.0000000000000000e+00  -8.9238800125796377e-05 0.0000000000000000e+00 0.0000000000000000e+00  -1.0581912912476635e-04 0.0000000000000000e+00 0.0000000000000000e+00  -1.1774924431425448e-04 0.0000000000000000e+00 0.0000000000000000e+00  -1.2827979941317175e-04 0.0000000000000000e+00 0.0000000000000000e+00  -1.4244350528872589e-04 0.0000000000000000e+00 0.0000000000000000e+00  -1.5171159627923940e-04 0.0000000000000000e+00 0.0000000000000000e+00  -1.5422073943518116e-04 0.0000000000000000e+00 0.0000000000000000e+00  -1.5412683877441189e-04 0.0000000000000000e+00 0.0000000000000000e+00  -1.5415651565410055e-04 0.0000000000000000e+00 0.0000000000000000e+00  -1.5695907438158582e-04 0.0000000000000000e+00 0.0000000000000000e+00  -1.6136524336112388e-04 0.0000000000000000e+00 0.0000000000000000e+00  -1.7023146348827639e-04 0.0000000000000000e+00 0.0000000000000000e+00  -1.8194801366580587e-04 0.0000000000000000e+00 0.0000000000000000e+00  -2.2375914526338510e-05 1.6985004309419194e-03 0.0000000000000000e+00  -1.1992739572407547e-05 1.6466876836697928e-03 0.0000000000000000e+00  5.8931407212451696e-06 1.5927776658019425e-03 0.0000000000000000e+00  3.2719685441685205e-05 1.5379171299432027e-03 0.0000000000000000e+00  6.8781265369591824e-05 1.4810548016843919e-03 0.0000000000000000e+00  1.1462742843669941e-04 1.4227125801801509e-03 0.0000000000000000e+00  1.7031255089087905e-04 1.3623623206545888e-03 0.0000000000000000e+00  2.3602362178241768e-04 1.2969866065869729e-03 0.0000000000000000e+00  3.1739690073020430e-04 1.2253143203065290e-03 0.0000000000000000e+00  4.2121560477535432e-04 1.1481844541522237e-03 0.0000000000000000e+00  5.4843124508580315e-04 1.0764536543570354e-03 0.0000000000000000e+00  6.8115933229744496e-04 1.0216144214357163e-03 0.0000000000000000e+00  7.7244152726013986e-04 9.9446377490075262e-04 0.0000000000000000e+00  7.7701981928651699e-04 9.7644184230980522e-04 0.0000000000000000e+00  7.0416927563584828e-04 9.3748326679631011e-04 0.0000000000000000e+00  6.0755573524600315e-04 8.6320348833636407e-04 0.0000000000000000e+00  5.4726959303378025e-04 7.6378902934428369e-04 0.0000000000000000e+00  5.1203517865905249e-04 6.8867272127472439e-04 0.0000000000000000e+00  4.2205515009804143e-04 6.2087546351918225e-04 0.0000000000000000e+00  3.4291459053406652e-04 5.3493146155467544e-04 0.0000000000000000e+00  2.8657471587349075e-04 4.6954142133614248e-04 0.0000000000000000e+00  2.3071469536007719e-04 4.1254072263825721e-04 0.0000000000000000e+00  1.7764246420478013e-04 3.5847690209610034e-04 0.0000000000000000e+00  1.3051485288820161e-04 3.0492459237984205e-04 0.0000000000000000e+00  9.0812427413605889e-05 2.5240070137715146e-04 0.0000000000000000e+00  5.9430783267609686e-05 1.9947551609413345e-04 0.0000000000000000e+00  3.6462670032632327e-05 1.4830631530703080e-04 0.0000000000000000e+00  2.0693873271923449e-05 9.7157793654048140e-05 0.0000000000000000e+00  1.3281540328660865e-05 4.9635236896320399e-05 0.0000000000000000e+00  -1.9963927646408778e-04 5.3364391818841362e-05 0.0000000000000000e+00  -2.1094039529270125e-04 1.0720093999303082e-04 0.0000000000000000e+00  -2.3009096066743033e-04 1.6276441326348125e-04 0.0000000000000000e+00  -2.5862941369649158e-04 2.2088833924757876e-04 0.0000000000000000e+00  -2.9797440436837500e-04 2.8148698121094762e-04 0.0000000000000000e+00  -3.5049667190062769e-04 3.4570541200801410e-04 0.0000000000000000e+00  -4.1809126273483209e-04 4.1171971483221215e-04 0.0000000000000000e+00  -5.0283117779426751e-04 4.7969793681672951e-04 0.0000000000000000e+00  -6.0383508022418921e-04 5.4263203170851009e-04 0.0000000000000000e+00  -7.1048533925308966e-04 5.9433172492249250e-04 0.0000000000000000e+00  -8.0006880174935497e-04 6.2976590446677211e-04 0.0000000000000000e+00  -8.5121505587372969e-04 6.6043577596998479e-04 0.0000000000000000e+00  -8.6103733688443955e-04 6.9913652029216877e-04 0.0000000000000000e+00  -8.5792540276873139e-04 7.6749794266823114e-04 0.0000000000000000e+00  -8.8283012388612719e-04 8.4338089643151931e-04 0.0000000000000000e+00  -8.0340732295016380e-04 9.0171882781122530e-04 0.0000000000000000e+00  -7.0358156287563033e-04 1.0242958828849643e-03 0.0000000000000000e+00  -6.9109429511847638e-04 1.1163329023447181e-03 0.0000000000000000e+00  -6.6299404777005460e-04 1.1669424927521722e-03 0.0000000000000000e+00  -5.9590830795887501e-04 1.2145121376568241e-03 0.0000000000000000e+00  -5.1861130597561538e-04 1.2703837972542166e-03 0.0000000000000000e+00  -4.4993160389886558e-04 1.3290207570136642e-03 0.0000000000000000e+00  -3.9122556931430721e-04 1.3862513358570965e-03 0.0000000000000000e+00  -3.4234010560047390e-04 1.4427750167361727e-03 0.0000000000000000e+00  -3.0414880028053549e-04 1.4981699904303839e-03 0.0000000000000000e+00  -2.7551491913978271e-04 1.5510958946722316e-03 0.0000000000000000e+00  -2.5450497249562566e-04 1.6023489312433027e-03 0.0000000000000000e+00  -2.4021864969127977e-04 1.6522527253978138e-03 0.0000000000000000e+00  -2.3156278953351251e-04 1.7010825894449985e-03 0.0000000000000000e+00  -2.1547931521949225e-04 1.7500000000000000e-03 0.0000000000000000e+00  -2.0352672844407415e-04 1.7500000000000000e-03 0.0000000000000000e+00  -1.9373958170897660e-04 1.7500000000000000e-03 0.0000000000000000e+00  -1.8577870136884014e-04 1.7500000000000000e-03 0.0000000000000000e+00  -1.7899957224321429e-04 1.7500000000000000e-03 0.0000000000000000e+00  -1.7323438085196989e-04 1.7500000000000000e-03 0.0000000000000000e+00  -1.6864572983114052e-04 1.7500000000000000e-03 0.0000000000000000e+00  -1.6543974601617703e-04 1.7500000000000000e-03 0.0000000000000000e+00  -1.6325529421163404e-04 1.7500000000000000e-03 0.0000000000000000e+00  -1.6196061217230823e-04 1.7500000000000000e-03 0.0000000000000000e+00  -1.5995701559088434e-04 1.7500000000000000e-03 0.0000000000000000e+00  -1.5719199163886319e-04 1.7500000000000000e-03 0.0000000000000000e+00  -1.5351242779646014e-04 1.7500000000000000e-03 0.0000000000000000e+00  -1.4937140821250406e-04 1.7500000000000000e-03 0.0000000000000000e+00  -1.4515033645453354e-04 1.7500000000000000e-03 0.0000000000000000e+00  -1.3967346772615809e-04 1.7500000000000000e-03 0.0000000000000000e+00  -1.3223009490412986e-04 1.7500000000000000e-03 0.0000000000000000e+00  -1.2125648297909033e-04 1.7500000000000000e-03 0.0000000000000000e+00  -1.0824640259899450e-04 1.7500000000000000e-03 0.0000000000000000e+00  -9.7102148156966790e-05 1.7500000000000000e-03 0.0000000000000000e+00  -9.0334046048284102e-05 1.7500000000000000e-03 0.0000000000000000e+00  -8.4193061673349192e-05 1.7500000000000000e-03 0.0000000000000000e+00  -7.6457427527453560e-05 1.7500000000000000e-03 0.0000000000000000e+00  -7.0776000747329757e-05 1.7500000000000000e-03 0.0000000000000000e+00  -6.7854129577592584e-05 1.7500000000000000e-03 0.0000000000000000e+00  -6.4117903872663168e-05 1.7500000000000000e-03 0.0000000000000000e+00  -5.9148635967192845e-05 1.7500000000000000e-03 0.0000000000000000e+00  -5.1036925610441501e-05 1.7500000000000000e-03 0.0000000000000000e+00  -3.9409448209242780e-05 1.7500000000000000e-03 0.0000000000000000e+00  -3.0862807611883164e-04 4.4557707823423068e-04 0.0000000000000000e+00  -2.9041019806849385e-04 4.7216033643433276e-04 0.0000000000000000e+00  -2.6966934757719928e-04 4.9850392138293823e-04 0.0000000000000000e+00  -2.4742011445120333e-04 5.2345855796539738e-04 0.0000000000000000e+00  -2.2405737528051760e-04 5.4816959276879644e-04 0.0000000000000000e+00  -2.0001625109410850e-04 5.7122070506191672e-04 0.0000000000000000e+00  -1.7639622225815835e-04 5.9206263129539744e-04 0.0000000000000000e+00  -1.5441325588819990e-04 6.1046956436434712e-04 0.0000000000000000e+00  -1.3449444796750641e-04 6.2581107582091128e-04 0.0000000000000000e+00  -1.1817749015051801e-04 6.3785101579568696e-04 0.0000000000000000e+00  -1.0566631107056391e-04 6.4686615620849553e-04 0.0000000000000000e+00  -9.7564097693402307e-05 6.5315384008213934e-04 0.0000000000000000e+00  -9.4139221318446874e-05 6.5705548418599742e-04 0.0000000000000000e+00  -9.5273974710530774e-05 6.5954649806232901e-04 0.0000000000000000e+00  -1.0096346198458266e-04 6.6090122715237903e-04 0.0000000000000000e+00  -1.1067829042210752e-04 6.6319051730146482e-04 0.0000000000000000e+00  -1.2283237151525486e-04 6.6790300307244970e-04 0.0000000000000000e+00  -1.3548787645502504e-04 6.7588724670298380e-04 0.0000000000000000e+00  -1.4755664415182449e-04 6.8769308814478820e-04 0.0000000000000000e+00  -1.5756927125123006e-04 7.0242372564432965e-04 0.0000000000000000e+00  -1.6624205550997884e-04 7.2033501694393639e-04 0.0000000000000000e+00  -1.7277046618405814e-04 7.4083065401959515e-04 0.0000000000000000e+00  -1.7716913652844165e-04 7.6339137000212256e-04 0.0000000000000000e+00  -1.7951368671433721e-04 7.8742738319802620e-04 0.0000000000000000e+00  -1.7988805071974983e-04 8.1222620888879947e-04 0.0000000000000000e+00  -1.7837403413366261e-04 8.3692169770348875e-04 0.0000000000000000e+00  -1.7515965183941251e-04 8.6081372291619402e-04 0.0000000000000000e+00  -1.7089546198441970e-04 8.8308725115379032e-04 0.0000000000000000e+00  -1.6571530893339903e-04 9.0366285152312302e-04 0.0000000000000000e+00  -1.5982130302220283e-04 9.2225263561542122e-04 0.0000000000000000e+00  -1.5334472626119642e-04 9.3897644440206691e-04 0.0000000000000000e+00  -1.4593001386110918e-04 9.5412973901538303e-04 0.0000000000000000e+00  -1.3694552791407920e-04 9.6753827950544255e-04 0.0000000000000000e+00  -1.2507150445291345e-04 9.7867157536323120e-04 0.0000000000000000e+00  -1.0905379956190799e-04 9.8578882859496090e-04 0.0000000000000000e+00  -8.8499410166994805e-05 9.8701658474502894e-04 0.0000000000000000e+00  -6.3632958056657286e-05 9.8128990897575273e-04 0.0000000000000000e+00  -3.4404371643069907e-05 9.6821296825241486e-04 0.0000000000000000e+00  -9.9576255937209044e-07 9.4744463040593229e-04 0.0000000000000000e+00  3.6267138977103192e-05 9.1866839710831572e-04 0.0000000000000000e+00  7.6628871430552703e-05 8.8184452309162851e-04 0.0000000000000000e+00  1.1877655624023054e-04 8.3697867932519977e-04 0.0000000000000000e+00  1.6025426431644360e-04 7.8581402774284635e-04 0.0000000000000000e+00  2.0025159052073477e-04 7.2986541587356476e-04 0.0000000000000000e+00  2.3638634990930769e-04 6.7140071930175092e-04 0.0000000000000000e+00  2.6616536386146858e-04 6.1196714061014597e-04 0.0000000000000000e+00  2.9073737800988143e-04 5.5635294214626809e-04 0.0000000000000000e+00  3.0940315588296840e-04 5.0377143517945928e-04 0.0000000000000000e+00  3.2250404785110994e-04 4.5569775039391625e-04 0.0000000000000000e+00  3.3099114766737268e-04 4.1240698918812104e-04 0.0000000000000000e+00  3.3528330689288716e-04 3.7305045848345019e-04 0.0000000000000000e+00  3.3567396756353427e-04 3.3727727738280951e-04 0.0000000000000000e+00  3.3172303929184031e-04 3.0399784296422921e-04 0.0000000000000000e+00  3.2299967483732911e-04 2.7344919635807329e-04 0.0000000000000000e+00  3.0953197004599014e-04 2.4553127164886221e-04 0.0000000000000000e+00  2.9162142336354707e-04 2.2031728585827375e-04 0.0000000000000000e+00  2.7070226453457848e-04 1.9829480502059490e-04 0.0000000000000000e+00  2.4851167358202992e-04 1.7872615884739518e-04 0.0000000000000000e+00  2.2568616353348309e-04 1.6008022660325837e-04 0.0000000000000000e+00  2.0218817332715884e-04 1.4173794904217302e-04 0.0000000000000000e+00  1.7711325995235888e-04 1.2273665110614477e-04 0.0000000000000000e+00  1.4970478421754321e-04 1.0431020985784566e-04 0.0000000000000000e+00  1.2104518503709475e-04 8.8320526520074794e-05 0.0000000000000000e+00  9.3985028789490854e-05 7.5497794379950951e-05 0.0000000000000000e+00  7.0730406089987709e-05 6.6026850720473350e-05 0.0000000000000000e+00  5.2672711774972519e-05 5.8508805823450098e-05 0.0000000000000000e+00  3.9127159051599636e-05 5.1797797270686447e-05 0.0000000000000000e+00  2.8761493081950363e-05 4.5171772995423691e-05 0.0000000000000000e+00  2.0282509459115834e-05 3.8532402491826844e-05 0.0000000000000000e+00  1.2811019665221559e-05 3.2029734132295591e-05 0.0000000000000000e+00  5.8987879948916780e-06 2.5912294203191186e-05 0.0000000000000000e+00  -6.3623956477392627e-07 2.0410347776226738e-05 0.0000000000000000e+00  -6.8089704575153283e-06 1.5495383425610482e-05 0.0000000000000000e+00  -1.2714435520963691e-05 1.1338575381488720e-05 0.0000000000000000e+00  -1.8210688880297986e-05 7.9350548825313006e-06 0.0000000000000000e+00  -2.3314712762407327e-05 5.1295605849737484e-06 0.0000000000000000e+00  -2.8037131793784524e-05 3.0358647143963700e-06 0.0000000000000000e+00  -3.2302857522800500e-05 1.4494721341888125e-06 0.0000000000000000e+00  -3.6205754493413774e-05 3.8159475355583774e-07 0.0000000000000000e+00  -3.9737754320277630e-05 -2.6786910174548132e-07 0.0000000000000000e+00  -4.2865069730376242e-05 -5.9766083119016728e-07 0.0000000000000000e+00  -4.5726320149659681e-05 -6.6017061868574991e-07 0.0000000000000000e+00  -4.8281265616249672e-05 -5.2703310689893597e-07 0.0000000000000000e+00  -5.0603729332394394e-05 -2.9326759087312206e-07 0.0000000000000000e+00  -5.2747590771588972e-05 9.2256070948361082e-09 0.0000000000000000e+00  -5.4779903433394174e-05 3.3414246279200438e-07 0.0000000000000000e+00  -5.6699971311054584e-05 6.7588422497483827e-07 0.0000000000000000e+00  -5.8569004832805320e-05 9.6908147580985074e-07 0.0000000000000000e+00  -6.0447516817113532e-05 1.2880114814053457e-06 0.0000000000000000e+00  -6.2300913809173523e-05 1.6193357332414582e-06 0.0000000000000000e+00  -6.4220673840202880e-05 2.0102819798513443e-06 0.0000000000000000e+00  -6.6153449775788352e-05 2.5050074283504878e-06 0.0000000000000000e+00  -6.8086251994301292e-05 3.1542753311821519e-06 0.0000000000000000e+00  -7.0084266961853220e-05 4.0867005231954322e-06 0.0000000000000000e+00  -7.1962346546290917e-05 5.2985928764152015e-06 0.0000000000000000e+00  -7.3750972890417103e-05 6.8903822525533977e-06 0.0000000000000000e+00  -7.5303369293929265e-05 8.8611353237054023e-06 0.0000000000000000e+00  -7.6607111871490756e-05 1.1169334166866258e-05 0.0000000000000000e+00  -7.7700331024410782e-05 1.3804763833393188e-05 0.0000000000000000e+00  -7.8511665461897305e-05 1.6756059409841315e-05 0.0000000000000000e+00  -7.9380079811303334e-05 1.9792513966335298e-05 0.0000000000000000e+00  -8.0799754610313536e-05 2.3039410299503283e-05 0.0000000000000000e+00  -8.3713570746094893e-05 2.6570518229500479e-05 0.0000000000000000e+00  -8.9128814665329802e-05 3.1226959720822286e-05 0.0000000000000000e+00  -9.8564441639773065e-05 3.7897260094265718e-05 0.0000000000000000e+00  -1.1166990476070957e-04 4.8333257812213777e-05 0.0000000000000000e+00  -1.2853776361448454e-04 6.2664683811928273e-05 0.0000000000000000e+00  -1.4693980551782612e-04 8.0724099801805378e-05 0.0000000000000000e+00  -1.6611722567161331e-04 1.0049146763944672e-04 0.0000000000000000e+00  -1.8647738585776682e-04 1.2057187725275330e-04 0.0000000000000000e+00  -2.0918666985072346e-04 1.4095905154981622e-04 0.0000000000000000e+00  -2.3501593255800850e-04 1.6297160377811614e-04 0.0000000000000000e+00  -2.6291929987334037e-04 1.8831505559980388e-04 0.0000000000000000e+00  -2.9029222559430018e-04 2.1756835002395764e-04 0.0000000000000000e+00  -3.1397711153534862e-04 2.5056113135062661e-04 0.0000000000000000e+00  -3.3115514238674695e-04 2.8551807659620801e-04 0.0000000000000000e+00  -3.4052185218601028e-04 3.2076244617328207e-04 0.0000000000000000e+00  -3.4156421593243424e-04 3.5522903609481690e-04 0.0000000000000000e+00  -3.3572668236176020e-04 3.8710006008223728e-04 0.0000000000000000e+00  3.4073730934978041e-04 2.6231853336675212e-04 0.0000000000000000e+00  3.3594847041723444e-04 2.5737924098989044e-04 0.0000000000000000e+00  3.2346035556948929e-04 2.4981351010339847e-04 0.0000000000000000e+00  3.0552998325010083e-04 2.422