<?xml version="1.0"?>
<VTKFile type="UnstructuredGrid"  version="0.1"  >
<UnstructuredGrid>
<Piece  NumberOfPoints="3879" NumberOfCells="6881">
<Points>
<DataArray  type="Float64"  NumberOfComponents="3"  format="ascii">0.207524190028372 0.2122422770132111 0  0 0 0  1 0 0  0 1 0  1 1 0  0.6249674373315121 0.2590146544375328 0  0.204663578893616 0.322657230836866 0  0.09605577522599912 0.4018360776629776 0  0.671351124618251 0.08738059142081528 0  0.7842102907526436 0.1666439122351055 0  0.8512483166984784 0.1985391006160637 0  0.6418797837909295 0.4423157172830166 0  0.9292488447973215 0.3869277868069776 0  0.3197896119137055 0.5509935221980964 0  0.3979283685568406 0.5079871620336583 0  0.1572503457993085 0.7345153245035532 0  0.3032914287999163 0.7872981443735918 0  0.3549464687598876 0.8870324161721976 0  0.9691791685505482 0.5159450047798622 0  0.9447564590470373 0.6146164845729313 0  0.7687603548175107 0.7176858127488035 0  0.8926159261971183 0.7422924070424508 0  0.2061587782631535 0.2217389244366831 0  0.2021731605082994 0.2304662099646423 0  0.1958902278109265 0.2377171008267789 0  0.1878189860121365 0.2429041729681512 0  0.1786133191209442 0.2456072006525708 0  0.1690190155206647 0.2456072006525708 0  0.1598133486294724 0.2429041729681512 0  0.1517421068306824 0.2377171008267789 0  0.1454591741333096 0.2304662099646422 0  0.1414735563784554 0.221738924436683 0  0.1401081446132369 0.212242277013211 0  0.1414735563784555 0.202745629589739 0  0.1454591741333096 0.1940183440617798 0  0.1517421068306825 0.1867674531996431 0  0.1598133486294725 0.1815803810582709 0  0.1690190155206649 0.1788773533738513 0  0.1786133191209443 0.1788773533738514 0  0.1878189860121367 0.181580381058271 0  0.1958902278109266 0.1867674531996433 0  0.2021731605082994 0.19401834406178 0  0.2061587782631535 0.2027456295897391 0  0.03333333333333333 0 0  0.06666666666666667 0 0  0.1 0 0  0.1333333333333333 0 0  0.1666666666666667 0 0  0.2 0 0  0.2333333333333333 0 0  0.2666666666666667 0 0  0.3 0 0  0.3333333333333333 0 0  0.3666666666666666 0 0  0.4 0 0  0.4333333333333333 0 0  0.4666666666666667 0 0  0.5 0 0  0.5333333333333333 0 0  0.5666666666666667 0 0  0.6 0 0  0.6333333333333333 0 0  0.6666666666666666 0 0  0.7 0 0  0.7333333333333333 0 0  0.7666666666666667 0 0  0.8 0 0  0.8333333333333334 0 0  0.8666666666666667 0 0  0.9 0 0  0.9333333333333333 0 0  0.9666666666666667 0 0  0 0.9666666666666667 0  0 0.9333333333333333 0  0 0.9 0  0 0.8666666666666667 0  0 0.8333333333333334 0  0 0.8 0  0 0.7666666666666666 0  0 0.7333333333333334 0  0 0.7 0  0 0.6666666666666667 0  0 0.6333333333333333 0  0 0.6 0  0 0.5666666666666667 0  0 0.5333333333333333 0  0 0.5 0  0 0.4666666666666667 0  0 0.4333333333333333 0  0 0.4 0  0 0.3666666666666667 0  0 0.3333333333333334 0  0 0.3 0  0 0.2666666666666667 0  0 0.2333333333333333 0  0 0.2 0  0 0.1666666666666666 0  0 0.1333333333333333 0  0 0.09999999999999998 0  0 0.06666666666666665 0  0 0.03333333333333333 0  1 0.03333333333333333 0  1 0.06666666666666667 0  1 0.1 0  1 0.1333333333333333 0  1 0.1666666666666667 0  1 0.2 0  1 0.2333333333333333 0  1 0.2666666666666667 0  1 0.3 0  1 0.3333333333333333 0  1 0.3666666666666666 0  1 0.4 0  1 0.4333333333333333 0  1 0.4666666666666667 0  1 0.5 0  1 0.5333333333333333 0  1 0.5666666666666667 0  1 0.6 0  1 0.6333333333333333 0  1 0.6666666666666666 0  1 0.7 0  1 0.7333333333333333 0  1 0.7666666666666667 0  1 0.8 0  1 0.8333333333333334 0  1 0.8666666666666667 0  1 0.9 0  1 0.9333333333333333 0  1 0.9666666666666667 0  0.9666666666666667 1 0  0.9333333333333333 1 0  0.9 1 0  0.8666666666666667 1 0  0.8333333333333334 1 0  0.8 1 0  0.7666666666666666 1 0  0.7333333333333334 1 0  0.7 1 0  0.6666666666666667 1 0  0.6333333333333333 1 0  0.6 1 0  0.5666666666666667 1 0  0.5333333333333333 1 0  0.5 1 0  0.4666666666666667 1 0  0.4333333333333333 1 0  0.4 1 0  0.3666666666666667 1 0  0.3333333333333334 1 0  0.3 1 0  0.2666666666666667 1 0  0.2333333333333333 1 0  0.2 1 0  0.1666666666666666 1 0  0.1333333333333333 1 0  0.09999999999999998 1 0  0.06666666666666665 1 0  0.03333333333333333 1 0  0.6247072676344306 0.2689501343248463 0  0.6239274716502419 0.2788583817523955 0  0.6226301867455355 0.2887122389026952 0  0.6208189686880621 0.2984846970382296 0  0.6184987819006211 0.3081489705305245 0  0.6156759858539226 0.317678570277693 0  0.6123583176357204 0.3270473763092224 0  0.6085548707439923 0.3362297093789981 0  0.6042760701622942 0.3452004013503318 0  0.5995336437856049 0.3539348641800754 0  0.5943405902749808 0.3624091573127375 0  0.5887111434291297 0.3706000532998825 0  0.582660733170558 0.3784851014649517 0  0.5762059432532257 0.3860426894390078 0  0.5693644658076293 0.3932521023987353 0  0.5621550528479018 0.4000935798443317 0  0.5545974648738458 0.4065483697616639 0  0.5467124167087765 0.4125987800202355 0  0.5385215207216315 0.4182282268660866 0  0.5300472275889694 0.4234212803767108 0  0.5213127647592257 0.4281637067534002 0  0.512342072787892 0.4324425073350981 0  0.5031597397181163 0.4362459542268262 0  0.493790933686587 0.4395636224450283 0  0.4842613339394185 0.4423864184917269 0  0.4745970604471235 0.4447066052791678 0  0.4648246023115891 0.4465178233366412 0  0.4549707451612894 0.4478151082413475 0  0.4450624977337403 0.4485949042255363 0  0.4351270178464268 0.4488550739226177 0  0.4251915379591132 0.4485949042255363 0  0.4152832905315641 0.4478151082413475 0  0.4054294333812644 0.4465178233366411 0  0.39565697524573 0.4447066052791677 0  0.385992701753435 0.4423864184917267 0  0.3764631020062665 0.4395636224450281 0  0.3670942959747371 0.4362459542268259 0  0.3579119629049616 0.4324425073350978 0  0.3489412709336278 0.4281637067533998 0  0.3402068081038843 0.4234212803767103 0  0.3317325149712221 0.4182282268660862 0  0.3235416189840771 0.412598780020235 0  0.3156565708190078 0.4065483697616634 0  0.3080989828449519 0.4000935798443311 0  0.3008895698852244 0.3932521023987346 0  0.2940480924396279 0.3860426894390071 0  0.2875933025222958 0.3784851014649511 0  0.2815428922637242 0.3706000532998818 0  0.2759134454178731 0.3624091573127368 0  0.2707203919072489 0.3539348641800746 0  0.2659779655305596 0.3452004013503309 0  0.2616991649488616 0.3362297093789972 0  0.2578957180571336 0.3270473763092215 0  0.2545780498389315 0.3176785702776921 0  0.251755253792233 0.3081489705305236 0  0.249435067004792 0.2984846970382286 0  0.2476238489473186 0.2887122389026941 0  0.2463265640426123 0.2788583817523945 0  0.2455467680584236 0.2689501343248454 0  0.2452865983613423 0.2590146544375318 0  0.2455467680584237 0.2490791745502182 0  0.2463265640426126 0.2391709271226692 0  0.247623848947319 0.2293170699723696 0  0.2494350670047924 0.2195446118368351 0  0.2517552537922335 0.2098803383445402 0  0.2545780498389321 0.2003507385973717 0  0.2578957180571343 0.1909819325658423 0  0.2616991649488624 0.1817995994960667 0  0.2659779655305604 0.172828907524733 0  0.2707203919072498 0.1640944446949895 0  0.2759134454178741 0.1556201515623273 0  0.2815428922637251 0.1474292555751825 0  0.2875933025222969 0.1395442074101132 0  0.2940480924396291 0.1319866194360571 0  0.3008895698852256 0.1247772064763297 0  0.3080989828449531 0.1179357290307334 0  0.3156565708190092 0.1114809391134012 0  0.3235416189840785 0.1054305288548295 0  0.3317325149712236 0.09980108200897844 0  0.3402068081038856 0.0946080284983544 0  0.3489412709336291 0.08986560212166514 0  0.357911962904963 0.08558680153996717 0  0.3670942959747386 0.08178335464823916 0  0.3764631020062678 0.07846568643003712 0  0.3859927017534364 0.0756428903833386 0  0.3956569752457313 0.0733227035958976 0  0.4054294333812659 0.07151148553842429 0  0.4152832905315654 0.07021420063371797 0  0.4251915379591144 0.0694344046495293 0  0.435127017846428 0.0691742349524479 0  0.4450624977337415 0.06943440464952938 0  0.4549707451612905 0.07021420063371814 0  0.4648246023115901 0.07151148553842454 0  0.4745970604471245 0.07332270359589793 0  0.4842613339394195 0.07564289038333902 0  0.4937909336865879 0.07846568643003757 0  0.5031597397181173 0.0817833546482398 0  0.5123420727878929 0.08558680153996781 0  0.5213127647592265 0.08986560212166581 0  0.53004722758897 0.0946080284983552 0  0.5385215207216321 0.09980108200897933 0  0.5467124167087771 0.1054305288548305 0  0.5545974648738462 0.1114809391134021 0  0.5621550528479023 0.1179357290307343 0  0.5693644658076298 0.1247772064763308 0  0.576205943253226 0.1319866194360582 0  0.5826607331705582 0.1395442074101142 0  0.5887111434291299 0.1474292555751835 0  0.594340590274981 0.1556201515623285 0  0.5995336437856051 0.1640944446949906 0  0.6042760701622945 0.172828907524734 0  0.6085548707439925 0.1817995994960678 0  0.6123583176357205 0.1909819325658435 0  0.6156759858539227 0.2003507385973728 0  0.6184987819006211 0.2098803383445412 0  0.6208189686880622 0.2195446118368362 0  0.6226301867455355 0.2293170699723706 0  0.6239274716502419 0.2391709271226702 0  0.6247072676344306 0.2490791745502192 0  0.203885768735257 0.3325402459548524 0  0.2015714905276826 0.3421799084407872 0  0.1977777294810124 0.3513388578120612 0  0.1925979005829864 0.3597915703383434 0  0.1861595484119405 0.3673299121842922 0  0.1786212065659918 0.373768264355338 0  0.1701684940397096 0.378948093253364 0  0.1610095446684356 0.3827418543000342 0  0.1513698821825007 0.3850561325076086 0  0.1414868670645144 0.3858339426659677 0  0.1316038519465281 0.3850561325076086 0  0.1219641894605933 0.3827418543000343 0  0.1128052400893193 0.378948093253364 0  0.1043525275630371 0.3737682643553381 0  0.09681418571708833 0.3673299121842922 0  0.09037583354604248 0.3597915703383434 0  0.08519600464801645 0.3513388578120612 0  0.08140224360134621 0.3421799084407872 0  0.07908796539377183 0.3325402459548523 0  0.07831015523541281 0.3226572308368659 0  0.07908796539377186 0.3127742157188796 0  0.08140224360134626 0.3031345532329447 0  0.08519600464801655 0.2939756038616707 0  0.0903758335460426 0.2855228913353884 0  0.0968141857
[...]
<PointData  Vectors="$u$"> 
<DataArray  type="Float64"  Name="$u$"  NumberOfComponents="3" format="ascii">9.8745508265266657e-05 1.8417614838431623e-04 0.0000000000000000e+00  0.0000000000000000e+00 0.0000000000000000e+00 0.0000000000000000e+00  -2.2429559654283537e-04 0.0000000000000000e+00 0.0000000000000000e+00  -2.9613244364358046e-05 2.0000000000000000e-03 0.0000000000000000e+00  -2.6173440888981167e-04 2.0000000000000000e-03 0.0000000000000000e+00  -3.7088340346749939e-04 4.7724762466493391e-04 0.0000000000000000e+00  3.8576425959899608e-04 3.0078647798888940e-04 0.0000000000000000e+00  3.3456745866570212e-04 5.6614643382411098e-04 0.0000000000000000e+00  -1.9734118783637755e-04 6.9860852775043599e-05 0.0000000000000000e+00  -3.0211255694744356e-04 9.2526369989648119e-06 0.0000000000000000e+00  -3.4662299200168993e-04 7.3276193956625345e-05 0.0000000000000000e+00  -5.1555203650065151e-05 7.8054671810393853e-04 0.0000000000000000e+00  -9.1325103982139880e-04 6.2009554282272793e-04 0.0000000000000000e+00  -1.4565657916932117e-04 1.2264480162747571e-03 0.0000000000000000e+00  -1.1550017366627077e-04 1.1005137577677381e-03 0.0000000000000000e+00  2.8263612136593158e-04 1.8971962897786920e-03 0.0000000000000000e+00  1.0789289995541991e-04 1.6041293536904900e-03 0.0000000000000000e+00  -1.4865346690678784e-04 1.9164319406414661e-03 0.0000000000000000e+00  -9.5967091022511428e-04 1.0531128694822034e-03 0.0000000000000000e+00  -7.4708642756672182e-04 1.3837698707319483e-03 0.0000000000000000e+00  -5.0649599602493856e-04 1.8188416532615025e-03 0.0000000000000000e+00  -4.5934445602190967e-04 1.7739426758862642e-03 0.0000000000000000e+00  1.3124723554646327e-04 2.1638615421124561e-04 0.0000000000000000e+00  1.6561958509197516e-04 2.4542487873386660e-04 0.0000000000000000e+00  1.9577158519163399e-04 2.6890615613046551e-04 0.0000000000000000e+00  2.1875143965075232e-04 2.7989641979282991e-04 0.0000000000000000e+00  2.3360561031963452e-04 2.7402208288306371e-04 0.0000000000000000e+00  2.3663262492402086e-04 2.4704848860174233e-04 0.0000000000000000e+00  2.3035300583644061e-04 2.0737485176307340e-04 0.0000000000000000e+00  2.1169745538385357e-04 1.7427287850194182e-04 0.0000000000000000e+00  1.8495922306069958e-04 1.5578199590172772e-04 0.0000000000000000e+00  1.5967645664924135e-04 1.4518135075937627e-04 0.0000000000000000e+00  1.3436687377738649e-04 1.3303840944791560e-04 0.0000000000000000e+00  1.1176207851104184e-04 1.2113060381065913e-04 0.0000000000000000e+00  9.1190543782741803e-05 1.0784517314093038e-04 0.0000000000000000e+00  7.3489511706723571e-05 9.5897493323073506e-05 0.0000000000000000e+00  5.8437837423921619e-05 8.7704380237023114e-05 0.0000000000000000e+00  4.8126154664381298e-05 8.4114173911813879e-05 0.0000000000000000e+00  4.1079822613383143e-05 8.6358840468997976e-05 0.0000000000000000e+00  3.9525646838772979e-05 9.4453080613722442e-05 0.0000000000000000e+00  4.3907750089412110e-05 1.0879188680200539e-04 0.0000000000000000e+00  5.4551024036903164e-05 1.2826847558657843e-04 0.0000000000000000e+00  7.2226034573104385e-05 1.5392005040949384e-04 0.0000000000000000e+00  0.0000000000000000e+00 0.0000000000000000e+00 0.0000000000000000e+00  -1.8841276564335348e-05 0.0000000000000000e+00 0.0000000000000000e+00  -2.7386493157998228e-05 0.0000000000000000e+00 0.0000000000000000e+00  -3.5444135664835819e-05 0.0000000000000000e+00 0.0000000000000000e+00  -4.1756731382092982e-05 0.0000000000000000e+00 0.0000000000000000e+00  -4.7201617987040269e-05 0.0000000000000000e+00 0.0000000000000000e+00  -5.1870879062335880e-05 0.0000000000000000e+00 0.0000000000000000e+00  -5.6039066428058295e-05 0.0000000000000000e+00 0.0000000000000000e+00  -5.9268890762784703e-05 0.0000000000000000e+00 0.0000000000000000e+00  -6.1343593419031726e-05 0.0000000000000000e+00 0.0000000000000000e+00  -6.3260810547056056e-05 0.0000000000000000e+00 0.0000000000000000e+00  -6.6006935316647135e-05 0.0000000000000000e+00 0.0000000000000000e+00  -6.9461833725087684e-05 0.0000000000000000e+00 0.0000000000000000e+00  -7.3753986923157154e-05 0.0000000000000000e+00 0.0000000000000000e+00  -7.9078195002949651e-05 0.0000000000000000e+00 0.0000000000000000e+00  -8.8014083325849856e-05 0.0000000000000000e+00 0.0000000000000000e+00  -1.0198407159782834e-04 0.0000000000000000e+00 0.0000000000000000e+00  -1.2095851295861119e-04 0.0000000000000000e+00 0.0000000000000000e+00  -1.3460631617366782e-04 0.0000000000000000e+00 0.0000000000000000e+00  -1.4661842748607201e-04 0.0000000000000000e+00 0.0000000000000000e+00  -1.6283879132971820e-04 0.0000000000000000e+00 0.0000000000000000e+00  -1.7344791231825303e-04 0.0000000000000000e+00 0.0000000000000000e+00  -1.7630666573285422e-04 0.0000000000000000e+00 0.0000000000000000e+00  -1.7622054001193964e-04 0.0000000000000000e+00 0.0000000000000000e+00  -1.7623840282253569e-04 0.0000000000000000e+00 0.0000000000000000e+00  -1.7945118674202203e-04 0.0000000000000000e+00 0.0000000000000000e+00  -1.8446984401642171e-04 0.0000000000000000e+00 0.0000000000000000e+00  -1.9458653139160193e-04 0.0000000000000000e+00 0.0000000000000000e+00  -2.0796721331777196e-04 0.0000000000000000e+00 0.0000000000000000e+00  -2.5889593453765776e-05 1.9411547051567729e-03 0.0000000000000000e+00  -1.3998175744766771e-05 1.8819476120181212e-03 0.0000000000000000e+00  6.4248928511627274e-06 1.8203525333359595e-03 0.0000000000000000e+00  3.7100128409731111e-05 1.7576508307068431e-03 0.0000000000000000e+00  7.8307057489754406e-05 1.6926767293419136e-03 0.0000000000000000e+00  1.3074229444891134e-04 1.6259785428931282e-03 0.0000000000000000e+00  1.9440367823897456e-04 1.5570546504891202e-03 0.0000000000000000e+00  2.6950444389689461e-04 1.4822939166830875e-03 0.0000000000000000e+00  3.6257978108281342e-04 1.4004213084707255e-03 0.0000000000000000e+00  4.8122832390582793e-04 1.3121715182485879e-03 0.0000000000000000e+00  6.2684419222833567e-04 1.2300221431447837e-03 0.0000000000000000e+00  7.7873538157882162e-04 1.1675827435429535e-03 0.0000000000000000e+00  8.8328828903741149e-04 1.1364577537175576e-03 0.0000000000000000e+00  8.8856443260243304e-04 1.1161651402744593e-03 0.0000000000000000e+00  8.0524168553913766e-04 1.0717715728380194e-03 0.0000000000000000e+00  6.9458021283614669e-04 9.8687855506355421e-04 0.0000000000000000e+00  6.2606853083491218e-04 8.7252149054896215e-04 0.0000000000000000e+00  5.8632163482907158e-04 7.8715795730527848e-04 0.0000000000000000e+00  4.8302909741260104e-04 7.0999806674316871e-04 0.0000000000000000e+00  3.9224934029860386e-04 6.1139892591409082e-04 0.0000000000000000e+00  3.2782683509303983e-04 5.3668423615542795e-04 0.0000000000000000e+00  2.6383625563767253e-04 4.7153700644229414e-04 0.0000000000000000e+00  2.0309927185299960e-04 4.0975071315018567e-04 0.0000000000000000e+00  1.4916148339701385e-04 3.4852159231203039e-04 0.0000000000000000e+00  1.0374740737866637e-04 2.8847719593205935e-04 0.0000000000000000e+00  6.7855328489681887e-05 2.2794462681315403e-04 0.0000000000000000e+00  4.1600312828768201e-05 1.6951495172244242e-04 0.0000000000000000e+00  2.3549571130238752e-05 1.1095264695915920e-04 0.0000000000000000e+00  1.5189076921277676e-05 5.6776751190929169e-05 0.0000000000000000e+00  -2.2817403047998791e-04 6.0945174070049180e-05 0.0000000000000000e+00  -2.4110468337275437e-04 1.2248755800690691e-04 0.0000000000000000e+00  -2.6298415055070571e-04 1.8596317975974085e-04 0.0000000000000000e+00  -2.9559740345670596e-04 2.5235223811903373e-04 0.0000000000000000e+00  -3.4056555739373352e-04 3.2164181338403125e-04 0.0000000000000000e+00  -4.0064662396084154e-04 3.9504739795621880e-04 0.0000000000000000e+00  -4.7788708377154935e-04 4.7045136467810823e-04 0.0000000000000000e+00  -5.7480814039559890e-04 5.4822324478756221e-04 0.0000000000000000e+00  -6.9032675648328303e-04 6.2018608397145457e-04 0.0000000000000000e+00  -8.1235858029583927e-04 6.7934025383873330e-04 0.0000000000000000e+00  -9.1503339363068251e-04 7.1982272362792316e-04 0.0000000000000000e+00  -9.7367532309531246e-04 7.5462107232936225e-04 0.0000000000000000e+00  -9.8497939289809294e-04 7.9878680546887151e-04 0.0000000000000000e+00  -9.8155539598496948e-04 8.7733058674409965e-04 0.0000000000000000e+00  -1.0111425898550897e-03 9.6415442986192291e-04 0.0000000000000000e+00  -9.1973810129700184e-04 1.0298091085489422e-03 0.0000000000000000e+00  -8.0473675830012312e-04 1.1706800652599998e-03 0.0000000000000000e+00  -7.9060353588072539e-04 1.2761070387423950e-03 0.0000000000000000e+00  -7.5835700210094147e-04 1.3337368455727126e-03 0.0000000000000000e+00  -6.8155368978672665e-04 1.3880383060544473e-03 0.0000000000000000e+00  -5.9304917279382082e-04 1.4518548239088479e-03 0.0000000000000000e+00  -5.1446773821596785e-04 1.5189829232000300e-03 0.0000000000000000e+00  -4.4736360062466507e-04 1.5844001566646094e-03 0.0000000000000000e+00  -3.9146427454023007e-04 1.6489638009245093e-03 0.0000000000000000e+00  -3.4779227838346416e-04 1.7122893386282392e-03 0.0000000000000000e+00  -3.1508782436155214e-04 1.7727894271640059e-03 0.0000000000000000e+00  -2.9108832753937263e-04 1.8313402522041550e-03 0.0000000000000000e+00  -2.7476969522396375e-04 1.8883266764882071e-03 0.0000000000000000e+00  -2.6486493841444149e-04 1.9441341073734423e-03 0.0000000000000000e+00  -2.4651192931661513e-04 2.0000000000000000e-03 0.0000000000000000e+00  -2.3285176792061263e-04 2.0000000000000000e-03 0.0000000000000000e+00  -2.2168380609582607e-04 2.0000000000000000e-03 0.0000000000000000e+00  -2.1259090215972905e-04 2.0000000000000000e-03 0.0000000000000000e+00  -2.0485288019938383e-04 2.0000000000000000e-03 0.0000000000000000e+00  -1.9826735262426534e-04 2.0000000000000000e-03 0.0000000000000000e+00  -1.9302890526440828e-04 2.0000000000000000e-03 0.0000000000000000e+00  -1.8938012020760253e-04 2.0000000000000000e-03 0.0000000000000000e+00  -1.8687787528073944e-04 2.0000000000000000e-03 0.0000000000000000e+00  -1.8541195118934752e-04 2.0000000000000000e-03 0.0000000000000000e+00  -1.8311591127477859e-04 2.0000000000000000e-03 0.0000000000000000e+00  -1.7996451048230198e-04 2.0000000000000000e-03 0.0000000000000000e+00  -1.7576162485407400e-04 2.0000000000000000e-03 0.0000000000000000e+00  -1.7103036515039215e-04 2.0000000000000000e-03 0.0000000000000000e+00  -1.6621050256394873e-04 2.0000000000000000e-03 0.0000000000000000e+00  -1.5995233896371369e-04 2.0000000000000000e-03 0.0000000000000000e+00  -1.5144259756012980e-04 2.0000000000000000e-03 0.0000000000000000e+00  -1.3889306072235988e-04 2.0000000000000000e-03 0.0000000000000000e+00  -1.2400887455455361e-04 2.0000000000000000e-03 0.0000000000000000e+00  -1.1127090236762184e-04 2.0000000000000000e-03 0.0000000000000000e+00  -1.0354174673999870e-04 2.0000000000000000e-03 0.0000000000000000e+00  -9.6527437083649228e-05 2.0000000000000000e-03 0.0000000000000000e+00  -8.7680474457411484e-05 2.0000000000000000e-03 0.0000000000000000e+00  -8.1166873460031911e-05 2.0000000000000000e-03 0.0000000000000000e+00  -7.7841036543193346e-05 2.0000000000000000e-03 0.0000000000000000e+00  -7.3567352987914786e-05 2.0000000000000000e-03 0.0000000000000000e+00  -6.7900831397293049e-05 2.0000000000000000e-03 0.0000000000000000e+00  -5.8626095928930087e-05 2.0000000000000000e-03 0.0000000000000000e+00  -4.5342006738666625e-05 2.0000000000000000e-03 0.0000000000000000e+00  -3.5292763134740492e-04 5.0943170913112044e-04 0.0000000000000000e+00  -3.3209543444297034e-04 5.3981469161007781e-04 0.0000000000000000e+00  -3.0838267647502026e-04 5.6993832077177186e-04 0.0000000000000000e+00  -2.8295313918038696e-04 5.9843687510185214e-04 0.0000000000000000e+00  -2.5623901060175500e-04 6.2669263938772818e-04 0.0000000000000000e+00  -2.2875064898567719e-04 6.5302317745752477e-04 0.0000000000000000e+00  -2.0173554598593152e-04 6.7682947375031068e-04 0.0000000000000000e+00  -1.7660619602396450e-04 6.9785826167408191e-04 0.0000000000000000e+00  -1.5383295660266127e-04 7.1538588850906344e-04 0.0000000000000000e+00  -1.3516894726744614e-04 7.2913296867126837e-04 0.0000000000000000e+00  -1.2085994916850889e-04 7.3942232835170997e-04 0.0000000000000000e+00  -1.1159243472888719e-04 7.4659732924161303e-04 0.0000000000000000e+00  -1.0767526058237797e-04 7.5104799942086109e-04 0.0000000000000000e+00  -1.0895278643292285e-04 7.5387431839525414e-04 0.0000000000000000e+00  -1.1545325267304740e-04 7.5538494034236908e-04 0.0000000000000000e+00  -1.2657982590007352e-04 7.5797426377315611e-04 0.0000000000000000e+00  -1.4049905416589376e-04 7.6334530895520345e-04 0.0000000000000000e+00  -1.5497974849455298e-04 7.7245888345795464e-04 0.0000000000000000e+00  -1.6879168772092443e-04 7.8596291513767817e-04 0.0000000000000000e+00  -1.8025244466915577e-04 8.0279713466451799e-04 0.0000000000000000e+00  -1.9016677988165366e-04 8.2328074901843464e-04 0.0000000000000000e+00  -1.9762874321583944e-04 8.4670910841733562e-04 0.0000000000000000e+00  -2.0265190557499057e-04 8.7249345358195022e-04 0.0000000000000000e+00  -2.0533128748012925e-04 8.9997386691613023e-04 0.0000000000000000e+00  -2.0575414520813208e-04 9.2832091008403499e-04 0.0000000000000000e+00  -2.0401862131784124e-04 9.5655129722809493e-04 0.0000000000000000e+00  -2.0032923087594389e-04 9.8385460894371939e-04 0.0000000000000000e+00  -1.9545196022737761e-04 1.0093104288732867e-03 0.0000000000000000e+00  -1.8952641783245958e-04 1.0328241089314679e-03 0.0000000000000000e+00  -1.8278688260473707e-04 1.0540678493885782e-03 0.0000000000000000e+00  -1.7539174413428991e-04 1.0731779420503126e-03 0.0000000000000000e+00  -1.6692750545484029e-04 1.0905060759413109e-03 0.0000000000000000e+00  -1.5666731130301083e-04 1.1058403269127322e-03 0.0000000000000000e+00  -1.4311177073463656e-04 1.1185887121416889e-03 0.0000000000000000e+00  -1.2479464289940717e-04 1.1267552569885159e-03 0.0000000000000000e+00  -1.0127906881821585e-04 1.1281689734090245e-03 0.0000000000000000e+00  -7.2838702243448988e-05 1.1216231558407849e-03 0.0000000000000000e+00  -3.9405381886222257e-05 1.1066708899486626e-03 0.0000000000000000e+00  -1.1974255740400746e-06 1.0829313245034771e-03 0.0000000000000000e+00  4.1404369187788487e-05 1.0500314458030322e-03 0.0000000000000000e+00  8.7578649071614795e-05 1.0079473111858513e-03 0.0000000000000000e+00  1.3577963569915327e-04 9.5665167197526990e-04 0.0000000000000000e+00  1.8320961898700305e-04 8.9815403964364337e-04 0.0000000000000000e+00  2.2894972017650737e-04 8.3419566286617995e-04 0.0000000000000000e+00  2.7029220142305851e-04 7.6736135809505669e-04 0.0000000000000000e+00  3.0434069513750773e-04 6.9941028715849764e-04 0.0000000000000000e+00  3.3244132008543965e-04 6.3583028280667661e-04 0.0000000000000000e+00  3.5378419215805845e-04 5.7569799876614012e-04 0.0000000000000000e+00  3.6876231422790050e-04 5.2073826731190403e-04 0.0000000000000000e+00  3.7848480006211872e-04 4.7125962363640274e-04 0.0000000000000000e+00  3.8339509319530810e-04 4.2625559727858087e-04 0.0000000000000000e+00  3.8386505882343196e-04 3.8538094891133173e-04 0.0000000000000000e+00  3.7935785234975234e-04 3.4732304194793408e-04 0.0000000000000000e+00  3.6938766008150301e-04 3.1238040879925358e-04 0.0000000000000000e+00  3.5398115327392855e-04 2.8046912114314753e-04 0.0000000000000000e+00  3.3348838476733524e-04 2.5165111101147658e-04 0.0000000000000000e+00  3.0955737711460692e-04 2.2649192232098342e-04 0.0000000000000000e+00  2.8416223177776400e-04 2.0413611386532995e-04 0.0000000000000000e+00  2.5803690819004341e-04 1.8281953096380263e-04 0.0000000000000000e+00  2.3114423349966057e-04 1.6186717938066638e-04 0.0000000000000000e+00  2.0245893943684784e-04 1.4015113693493841e-04 0.0000000000000000e+00  1.7108888973948382e-04 1.1906621991503985e-04 0.0000000000000000e+00  1.3827906827706580e-04 1.0081097547779390e-04 0.0000000000000000e+00  1.0730681706093965e-04 8.6172457048230643e-05 0.0000000000000000e+00  8.0710293566884457e-05 7.5381885909522840e-05 0.0000000000000000e+00  6.0069271729215087e-05 6.6817412637793151e-05 0.0000000000000000e+00  4.4600165399708368e-05 5.9174773952009041e-05 0.0000000000000000e+00  3.2770610654948685e-05 5.1608215206541685e-05 0.0000000000000000e+00  2.3096559234282018e-05 4.4027770362496745e-05 0.0000000000000000e+00  1.4570742564073720e-05 3.6594992161210261e-05 0.0000000000000000e+00  6.6832394758562647e-06 2.9603726924511397e-05 0.0000000000000000e+00  -7.7830608543566523e-07 2.3317214024986228e-05 0.0000000000000000e+00  -7.8251331212581409e-06 1.7701167287809756e-05 0.0000000000000000e+00  -1.4564590698728907e-05 1.2948931670690876e-05 0.0000000000000000e+00  -2.0842335807240597e-05 9.0610371491952649e-06 0.0000000000000000e+00  -2.6672867071587182e-05 5.8519330852251654e-06 0.0000000000000000e+00  -3.2066732657910802e-05 3.4653424268463507e-06 0.0000000000000000e+00  -3.6939462227131292e-05 1.6515759019789246e-06 0.0000000000000000e+00  -4.1392897819144807e-05 4.3102747190195763e-07 0.0000000000000000e+00  -4.5429548117367596e-05 -3.0964043528249888e-07 0.0000000000000000e+00  -4.8999971621112000e-05 -6.8261313728386323e-07 0.0000000000000000e+00  -5.2267283258302989e-05 -7.5486695399176001e-07 0.0000000000000000e+00  -5.5183111592533008e-05 -6.0313922454598916e-07 0.0000000000000000e+00  -5.7836552278761860e-05 -3.3698617491414723e-07 0.0000000000000000e+00  -6.0282575493556682e-05 1.0477514189576965e-08 0.0000000000000000e+00  -6.2603193286733797e-05 3.8032052355010904e-07 0.0000000000000000e+00  -6.4794302327325667e-05 7.7051312253694089e-07 0.0000000000000000e+00  -6.6927352239206029e-05 1.1070793648351000e-06 0.0000000000000000e+00  -6.9072240346388291e-05 1.4715480907900666e-06 0.0000000000000000e+00  -7.1189314142015907e-05 1.8489830695726100e-06 0.0000000000000000e+00  -7.3381265362008091e-05 2.2967883905015161e-06 0.0000000000000000e+00  -7.5585216865456178e-05 2.8613770950073822e-06 0.0000000000000000e+00  -7.7795884221211126e-05 3.6058607196762427e-06 0.0000000000000000e+00  -8.0077571467476678e-05 4.6750572678412278e-06 0.0000000000000000e+00  -8.2217043551893390e-05 6.0618434443209863e-06 0.0000000000000000e+00  -8.4259604481813923e-05 7.8844609206721005e-06 0.0000000000000000e+00  -8.6026835200988237e-05 1.0139261145878824e-05 0.0000000000000000e+00  -8.7511412942396229e-05 1.2784492617544689e-05 0.0000000000000000e+00  -8.8750821699313289e-05 1.5799057633467710e-05 0.0000000000000000e+00  -8.9663802902753179e-05 1.9181267107909658e-05 0.0000000000000000e+00  -9.0637899110074228e-05 2.2653198412762408e-05 0.0000000000000000e+00  -9.2234508193017695e-05 2.6366640551122348e-05 0.0000000000000000e+00  -9.5553367358164868e-05 3.0383839627594146e-05 0.0000000000000000e+00  -1.0171205289801830e-04 3.5709178913615219e-05 0.0000000000000000e+00  -1.1250198188193222e-04 4.3291243756588112e-05 0.0000000000000000e+00  -1.2749428292107136e-04 5.5206946057652302e-05 0.0000000000000000e+00  -1.4680936805935941e-04 7.1581093390250887e-05 0.0000000000000000e+00  -1.6787089783491905e-04 9.2238522930591441e-05 0.0000000000000000e+00  -1.8983239602828522e-04 1.1485514874912615e-04 0.0000000000000000e+00  -2.1312794339943211e-04 1.3782594568868427e-04 0.0000000000000000e+00  -2.3913511116016760e-04 1.6113354394161058e-04 0.0000000000000000e+00  -2.6869503563882138e-04 1.8631658366678497e-04 0.0000000000000000e+00  -3.0063202914418474e-04 2.1529538154646687e-04 0.0000000000000000e+00  -3.3196143829634163e-04 2.4874337913207605e-04 0.0000000000000000e+00  -3.5906429315347434e-04 2.8648538698405830e-04 0.0000000000000000e+00  -3.7871874592899262e-04 3.2645045552780124e-04 0.0000000000000000e+00  -3.8942435554122551e-04 3.6677062074002713e-04 0.0000000000000000e+00  -3.9060280933925733e-04 4.0620298215024198e-04 0.0000000000000000e+00  -3.8392002110099123e-04 4.4260580526727706e-04 0.0000000000000000e+00  3.8967648822661890e-04 2.9968061637828541e-04 0.0000000000000000e+00  3.8418960415895892e-04 2.9398064079180449e-04 0.0000000000000000e+00  3.6990058693022989e-04 2.8527880029530082e-04 0.0000000000000000e+00  3.4936726634796810e-04 2.766