<?xml version="1.0"?>
<VTKFile type="UnstructuredGrid"  version="0.1"  >
<UnstructuredGrid>
<Piece  NumberOfPoints="3879" NumberOfCells="6881">
<Points>
<DataArray  type="Float64"  NumberOfComponents="3"  format="ascii">0.207524190028372 0.2122422770132111 0  0 0 0  1 0 0  0 1 0  1 1 0  0.6249674373315121 0.2590146544375328 0  0.204663578893616 0.322657230836866 0  0.09605577522599912 0.4018360776629776 0  0.671351124618251 0.08738059142081528 0  0.7842102907526436 0.1666439122351055 0  0.8512483166984784 0.1985391006160637 0  0.6418797837909295 0.4423157172830166 0  0.9292488447973215 0.3869277868069776 0  0.3197896119137055 0.5509935221980964 0  0.3979283685568406 0.5079871620336583 0  0.1572503457993085 0.7345153245035532 0  0.3032914287999163 0.7872981443735918 0  0.3549464687598876 0.8870324161721976 0  0.9691791685505482 0.5159450047798622 0  0.9447564590470373 0.6146164845729313 0  0.7687603548175107 0.7176858127488035 0  0.8926159261971183 0.7422924070424508 0  0.2061587782631535 0.2217389244366831 0  0.2021731605082994 0.2304662099646423 0  0.1958902278109265 0.2377171008267789 0  0.1878189860121365 0.2429041729681512 0  0.1786133191209442 0.2456072006525708 0  0.1690190155206647 0.2456072006525708 0  0.1598133486294724 0.2429041729681512 0  0.1517421068306824 0.2377171008267789 0  0.1454591741333096 0.2304662099646422 0  0.1414735563784554 0.221738924436683 0  0.1401081446132369 0.212242277013211 0  0.1414735563784555 0.202745629589739 0  0.1454591741333096 0.1940183440617798 0  0.1517421068306825 0.1867674531996431 0  0.1598133486294725 0.1815803810582709 0  0.1690190155206649 0.1788773533738513 0  0.1786133191209443 0.1788773533738514 0  0.1878189860121367 0.181580381058271 0  0.1958902278109266 0.1867674531996433 0  0.2021731605082994 0.19401834406178 0  0.2061587782631535 0.2027456295897391 0  0.03333333333333333 0 0  0.06666666666666667 0 0  0.1 0 0  0.1333333333333333 0 0  0.1666666666666667 0 0  0.2 0 0  0.2333333333333333 0 0  0.2666666666666667 0 0  0.3 0 0  0.3333333333333333 0 0  0.3666666666666666 0 0  0.4 0 0  0.4333333333333333 0 0  0.4666666666666667 0 0  0.5 0 0  0.5333333333333333 0 0  0.5666666666666667 0 0  0.6 0 0  0.6333333333333333 0 0  0.6666666666666666 0 0  0.7 0 0  0.7333333333333333 0 0  0.7666666666666667 0 0  0.8 0 0  0.8333333333333334 0 0  0.8666666666666667 0 0  0.9 0 0  0.9333333333333333 0 0  0.9666666666666667 0 0  0 0.9666666666666667 0  0 0.9333333333333333 0  0 0.9 0  0 0.8666666666666667 0  0 0.8333333333333334 0  0 0.8 0  0 0.7666666666666666 0  0 0.7333333333333334 0  0 0.7 0  0 0.6666666666666667 0  0 0.6333333333333333 0  0 0.6 0  0 0.5666666666666667 0  0 0.5333333333333333 0  0 0.5 0  0 0.4666666666666667 0  0 0.4333333333333333 0  0 0.4 0  0 0.3666666666666667 0  0 0.3333333333333334 0  0 0.3 0  0 0.2666666666666667 0  0 0.2333333333333333 0  0 0.2 0  0 0.1666666666666666 0  0 0.1333333333333333 0  0 0.09999999999999998 0  0 0.06666666666666665 0  0 0.03333333333333333 0  1 0.03333333333333333 0  1 0.06666666666666667 0  1 0.1 0  1 0.1333333333333333 0  1 0.1666666666666667 0  1 0.2 0  1 0.2333333333333333 0  1 0.2666666666666667 0  1 0.3 0  1 0.3333333333333333 0  1 0.3666666666666666 0  1 0.4 0  1 0.4333333333333333 0  1 0.4666666666666667 0  1 0.5 0  1 0.5333333333333333 0  1 0.5666666666666667 0  1 0.6 0  1 0.6333333333333333 0  1 0.6666666666666666 0  1 0.7 0  1 0.7333333333333333 0  1 0.7666666666666667 0  1 0.8 0  1 0.8333333333333334 0  1 0.8666666666666667 0  1 0.9 0  1 0.9333333333333333 0  1 0.9666666666666667 0  0.9666666666666667 1 0  0.9333333333333333 1 0  0.9 1 0  0.8666666666666667 1 0  0.8333333333333334 1 0  0.8 1 0  0.7666666666666666 1 0  0.7333333333333334 1 0  0.7 1 0  0.6666666666666667 1 0  0.6333333333333333 1 0  0.6 1 0  0.5666666666666667 1 0  0.5333333333333333 1 0  0.5 1 0  0.4666666666666667 1 0  0.4333333333333333 1 0  0.4 1 0  0.3666666666666667 1 0  0.3333333333333334 1 0  0.3 1 0  0.2666666666666667 1 0  0.2333333333333333 1 0  0.2 1 0  0.1666666666666666 1 0  0.1333333333333333 1 0  0.09999999999999998 1 0  0.06666666666666665 1 0  0.03333333333333333 1 0  0.6247072676344306 0.2689501343248463 0  0.6239274716502419 0.2788583817523955 0  0.6226301867455355 0.2887122389026952 0  0.6208189686880621 0.2984846970382296 0  0.6184987819006211 0.3081489705305245 0  0.6156759858539226 0.317678570277693 0  0.6123583176357204 0.3270473763092224 0  0.6085548707439923 0.3362297093789981 0  0.6042760701622942 0.3452004013503318 0  0.5995336437856049 0.3539348641800754 0  0.5943405902749808 0.3624091573127375 0  0.5887111434291297 0.3706000532998825 0  0.582660733170558 0.3784851014649517 0  0.5762059432532257 0.3860426894390078 0  0.5693644658076293 0.3932521023987353 0  0.5621550528479018 0.4000935798443317 0  0.5545974648738458 0.4065483697616639 0  0.5467124167087765 0.4125987800202355 0  0.5385215207216315 0.4182282268660866 0  0.5300472275889694 0.4234212803767108 0  0.5213127647592257 0.4281637067534002 0  0.512342072787892 0.4324425073350981 0  0.5031597397181163 0.4362459542268262 0  0.493790933686587 0.4395636224450283 0  0.4842613339394185 0.4423864184917269 0  0.4745970604471235 0.4447066052791678 0  0.4648246023115891 0.4465178233366412 0  0.4549707451612894 0.4478151082413475 0  0.4450624977337403 0.4485949042255363 0  0.4351270178464268 0.4488550739226177 0  0.4251915379591132 0.4485949042255363 0  0.4152832905315641 0.4478151082413475 0  0.4054294333812644 0.4465178233366411 0  0.39565697524573 0.4447066052791677 0  0.385992701753435 0.4423864184917267 0  0.3764631020062665 0.4395636224450281 0  0.3670942959747371 0.4362459542268259 0  0.3579119629049616 0.4324425073350978 0  0.3489412709336278 0.4281637067533998 0  0.3402068081038843 0.4234212803767103 0  0.3317325149712221 0.4182282268660862 0  0.3235416189840771 0.412598780020235 0  0.3156565708190078 0.4065483697616634 0  0.3080989828449519 0.4000935798443311 0  0.3008895698852244 0.3932521023987346 0  0.2940480924396279 0.3860426894390071 0  0.2875933025222958 0.3784851014649511 0  0.2815428922637242 0.3706000532998818 0  0.2759134454178731 0.3624091573127368 0  0.2707203919072489 0.3539348641800746 0  0.2659779655305596 0.3452004013503309 0  0.2616991649488616 0.3362297093789972 0  0.2578957180571336 0.3270473763092215 0  0.2545780498389315 0.3176785702776921 0  0.251755253792233 0.3081489705305236 0  0.249435067004792 0.2984846970382286 0  0.2476238489473186 0.2887122389026941 0  0.2463265640426123 0.2788583817523945 0  0.2455467680584236 0.2689501343248454 0  0.2452865983613423 0.2590146544375318 0  0.2455467680584237 0.2490791745502182 0  0.2463265640426126 0.2391709271226692 0  0.247623848947319 0.2293170699723696 0  0.2494350670047924 0.2195446118368351 0  0.2517552537922335 0.2098803383445402 0  0.2545780498389321 0.2003507385973717 0  0.2578957180571343 0.1909819325658423 0  0.2616991649488624 0.1817995994960667 0  0.2659779655305604 0.172828907524733 0  0.2707203919072498 0.1640944446949895 0  0.2759134454178741 0.1556201515623273 0  0.2815428922637251 0.1474292555751825 0  0.2875933025222969 0.1395442074101132 0  0.2940480924396291 0.1319866194360571 0  0.3008895698852256 0.1247772064763297 0  0.3080989828449531 0.1179357290307334 0  0.3156565708190092 0.1114809391134012 0  0.3235416189840785 0.1054305288548295 0  0.3317325149712236 0.09980108200897844 0  0.3402068081038856 0.0946080284983544 0  0.3489412709336291 0.08986560212166514 0  0.357911962904963 0.08558680153996717 0  0.3670942959747386 0.08178335464823916 0  0.3764631020062678 0.07846568643003712 0  0.3859927017534364 0.0756428903833386 0  0.3956569752457313 0.0733227035958976 0  0.4054294333812659 0.07151148553842429 0  0.4152832905315654 0.07021420063371797 0  0.4251915379591144 0.0694344046495293 0  0.435127017846428 0.0691742349524479 0  0.4450624977337415 0.06943440464952938 0  0.4549707451612905 0.07021420063371814 0  0.4648246023115901 0.07151148553842454 0  0.4745970604471245 0.07332270359589793 0  0.4842613339394195 0.07564289038333902 0  0.4937909336865879 0.07846568643003757 0  0.5031597397181173 0.0817833546482398 0  0.5123420727878929 0.08558680153996781 0  0.5213127647592265 0.08986560212166581 0  0.53004722758897 0.0946080284983552 0  0.5385215207216321 0.09980108200897933 0  0.5467124167087771 0.1054305288548305 0  0.5545974648738462 0.1114809391134021 0  0.5621550528479023 0.1179357290307343 0  0.5693644658076298 0.1247772064763308 0  0.576205943253226 0.1319866194360582 0  0.5826607331705582 0.1395442074101142 0  0.5887111434291299 0.1474292555751835 0  0.594340590274981 0.1556201515623285 0  0.5995336437856051 0.1640944446949906 0  0.6042760701622945 0.172828907524734 0  0.6085548707439925 0.1817995994960678 0  0.6123583176357205 0.1909819325658435 0  0.6156759858539227 0.2003507385973728 0  0.6184987819006211 0.2098803383445412 0  0.6208189686880622 0.2195446118368362 0  0.6226301867455355 0.2293170699723706 0  0.6239274716502419 0.2391709271226702 0  0.6247072676344306 0.2490791745502192 0  0.203885768735257 0.3325402459548524 0  0.2015714905276826 0.3421799084407872 0  0.1977777294810124 0.3513388578120612 0  0.1925979005829864 0.3597915703383434 0  0.1861595484119405 0.3673299121842922 0  0.1786212065659918 0.373768264355338 0  0.1701684940397096 0.378948093253364 0  0.1610095446684356 0.3827418543000342 0  0.1513698821825007 0.3850561325076086 0  0.1414868670645144 0.3858339426659677 0  0.1316038519465281 0.3850561325076086 0  0.1219641894605933 0.3827418543000343 0  0.1128052400893193 0.378948093253364 0  0.1043525275630371 0.3737682643553381 0  0.09681418571708833 0.3673299121842922 0  0.09037583354604248 0.3597915703383434 0  0.08519600464801645 0.3513388578120612 0  0.08140224360134621 0.3421799084407872 0  0.07908796539377183 0.3325402459548523 0  0.07831015523541281 0.3226572308368659 0  0.07908796539377186 0.3127742157188796 0  0.08140224360134626 0.3031345532329447 0  0.08519600464801655 0.2939756038616707 0  0.0903758335460426 0.2855228913353884 0  0.0968141857
[...]
<PointData  Tensors="$\sigma$"> 
<DataArray  type="Float64"  Name="$\sigma$"  NumberOfComponents="9" format="ascii">1.5598388918730393e+02 3.2242021522016898e+01 0.0000000000000000e+00 3.2242021522017531e+01 1.2096843950105895e+04 0.0000000000000000e+00 0.0000000000000000e+00 0.0000000000000000e+00 0.0000000000000000e+00  1.4275477719837791e+03 1.1185733967654933e+02 0.0000000000000000e+00 1.1185733967654951e+02 5.9370798914448369e+03 0.0000000000000000e+00 0.0000000000000000e+00 0.0000000000000000e+00 0.0000000000000000e+00  -3.0161237552336676e+01 -2.5189773622675812e+01 0.0000000000000000e+00 -2.5189773622675805e+01 6.0913216572838519e+03 0.0000000000000000e+00 0.0000000000000000e+00 0.0000000000000000e+00 0.0000000000000000e+00  8.1853595825580410e+00 -5.2444627959408772e+00 0.0000000000000000e+00 -5.2444627959409083e+00 6.2109496718036762e+03 0.0000000000000000e+00 0.0000000000000000e+00 0.0000000000000000e+00 0.0000000000000000e+00  8.1401898358456322e+00 1.2399340930965497e+01 0.0000000000000000e+00 1.2399340930965522e+01 5.4792924877675314e+03 0.0000000000000000e+00 0.0000000000000000e+00 0.0000000000000000e+00 0.0000000000000000e+00  4.9261664928239085e+01 -2.1400931957947282e+00 0.0000000000000000e+00 -2.1400931957941496e+00 1.1963344979483560e+04 0.0000000000000000e+00 0.0000000000000000e+00 0.0000000000000000e+00 0.0000000000000000e+00  -1.1026457899732398e+02 3.2056525005178952e+02 0.0000000000000000e+00 3.2056525005178952e+02 2.7831837295758394e+01 0.0000000000000000e+00 0.0000000000000000e+00 0.0000000000000000e+00 0.0000000000000000e+00  6.6271920196334736e+02 3.6868792417946281e+02 0.0000000000000000e+00 3.6868792417946293e+02 1.2500177919086182e+04 0.0000000000000000e+00 0.0000000000000000e+00 0.0000000000000000e+00 0.0000000000000000e+00  5.9214088624637100e+01 -3.1461770210476573e+02 0.0000000000000000e+00 -3.1461770210476584e+02 1.2079695931319460e+04 0.0000000000000000e+00 0.0000000000000000e+00 0.0000000000000000e+00 0.0000000000000000e+00  -3.7046018513835281e+02 1.4620659581741572e+02 0.0000000000000000e+00 1.4620659581741597e+02 -3.2801761680827195e+02 0.0000000000000000e+00 0.0000000000000000e+00 0.0000000000000000e+00 0.0000000000000000e+00  -1.2876281481611388e+01 -7.1038149426588760e+01 0.0000000000000000e+00 -7.1038149426588788e+01 -5.0871086729655150e+02 0.0000000000000000e+00 0.0000000000000000e+00 0.0000000000000000e+00 0.0000000000000000e+00  1.7231289675287209e+02 4.8709754384646749e+02 0.0000000000000000e+00 4.8709754384646789e+02 6.6890480372235552e+03 0.0000000000000000e+00 0.0000000000000000e+00 0.0000000000000000e+00 0.0000000000000000e+00  4.3439182820428778e+02 -4.6205444580831035e+01 0.0000000000000000e+00 -4.6205444580831220e+01 1.2041269496993684e+04 0.0000000000000000e+00 0.0000000000000000e+00 0.0000000000000000e+00 0.0000000000000000e+00  7.5365005770599282e+01 8.2831710217643888e+01 0.0000000000000000e+00 8.2831710217643788e+01 1.1931600709556051e+04 0.0000000000000000e+00 0.0000000000000000e+00 0.0000000000000000e+00 0.0000000000000000e+00  -1.1783683708926235e+02 -2.2742352933640726e+02 0.0000000000000000e+00 -2.2742352933640629e+02 -1.4868480993644635e+03 0.0000000000000000e+00 0.0000000000000000e+00 0.0000000000000000e+00 0.0000000000000000e+00  -3.4373891727758411e+02 -2.3563188904278178e+02 0.0000000000000000e+00 -2.3563188904278235e+02 -1.5572659291427301e+03 0.0000000000000000e+00 0.0000000000000000e+00 0.0000000000000000e+00 0.0000000000000000e+00  3.0747134511397313e+01 -1.3109378207347140e+02 0.0000000000000000e+00 -1.3109378207347237e+02 7.6525784754385268e+03 0.0000000000000000e+00 0.0000000000000000e+00 0.0000000000000000e+00 0.0000000000000000e+00  1.2917367777047343e+02 1.1269129688509113e+02 0.0000000000000000e+00 1.1269129688509098e+02 9.5089772004481529e+03 0.0000000000000000e+00 0.0000000000000000e+00 0.0000000000000000e+00 0.0000000000000000e+00  5.9396956900456980e+03 5.1119853694286491e+02 0.0000000000000000e+00 5.1119853694286559e+02 1.8188182647665653e+04 0.0000000000000000e+00 0.0000000000000000e+00 0.0000000000000000e+00 0.0000000000000000e+00  1.0854178920062145e+03 1.5830204058383112e+01 0.0000000000000000e+00 1.5830204058383412e+01 1.3158969135575051e+04 0.0000000000000000e+00 0.0000000000000000e+00 0.0000000000000000e+00 0.0000000000000000e+00  4.6464998857554242e+01 1.8247331903926079e+02 0.0000000000000000e+00 1.8247331903925937e+02 9.4508272902660228e+03 0.0000000000000000e+00 0.0000000000000000e+00 0.0000000000000000e+00 0.0000000000000000e+00  1.1797438465738561e+02 4.0023742886915493e+01 0.0000000000000000e+00 4.0023742886915450e+01 4.5122614043188969e+03 0.0000000000000000e+00 0.0000000000000000e+00 0.0000000000000000e+00 0.0000000000000000e+00  6.2276264625569661e+02 -1.7002374175486511e+03 0.0000000000000000e+00 -1.7002374175486505e+03 7.6048038895023392e+03 0.0000000000000000e+00 0.0000000000000000e+00 0.0000000000000000e+00 0.0000000000000000e+00  -2.6627743400654646e+02 -5.5708205780255128e+02 0.0000000000000000e+00 -5.5708205780255173e+02 2.0323153967387693e+03 0.0000000000000000e+00 0.0000000000000000e+00 0.0000000000000000e+00 0.0000000000000000e+00  -2.1857699807856070e+03 1.4097687843850752e+03 0.0000000000000000e+00 1.4097687843850779e+03 -9.7290570544505454e+02 0.0000000000000000e+00 0.0000000000000000e+00 0.0000000000000000e+00 0.0000000000000000e+00  -4.8347406749786851e+03 1.7380933487829832e+03 0.0000000000000000e+00 1.7380933487829873e+03 -9.3060226948979050e+02 0.0000000000000000e+00 0.0000000000000000e+00 0.0000000000000000e+00 0.0000000000000000e+00  -3.6796628637508124e+03 9.5111476014390587e+02 0.0000000000000000e+00 9.5111476014390337e+02 -6.2099451644600060e+02 0.0000000000000000e+00 0.0000000000000000e+00 0.0000000000000000e+00 0.0000000000000000e+00  1.5293319739812744e+03 2.5195052849157410e+03 0.0000000000000000e+00 2.5195052849157432e+03 1.5911899372904752e+03 0.0000000000000000e+00 0.0000000000000000e+00 0.0000000000000000e+00 0.0000000000000000e+00  8.1409664465093947e+03 5.2352200776778318e+03 0.0000000000000000e+00 5.2352200776778309e+03 2.8983723837640923e+03 0.0000000000000000e+00 0.0000000000000000e+00 0.0000000000000000e+00 0.0000000000000000e+00  8.0469266942384784e+03 6.2619930789961845e+03 0.0000000000000000e+00 6.2619930789961936e+03 5.9415845888008025e+03 0.0000000000000000e+00 0.0000000000000000e+00 0.0000000000000000e+00 0.0000000000000000e+00  3.5590019323181341e+03 4.8697902170374846e+03 0.0000000000000000e+00 4.8697902170374909e+03 6.8017764482637967e+03 0.0000000000000000e+00 0.0000000000000000e+00 0.0000000000000000e+00 0.0000000000000000e+00  1.2676555438378159e+03 2.1322730433355659e+03 0.0000000000000000e+00 2.1322730433355673e+03 5.6362389076592763e+03 0.0000000000000000e+00 0.0000000000000000e+00 0.0000000000000000e+00 0.0000000000000000e+00  5.8155744830614381e+01 3.4079351072192270e+02 0.0000000000000000e+00 3.4079351072192276e+02 4.7196323522223820e+03 0.0000000000000000e+00 0.0000000000000000e+00 0.0000000000000000e+00 0.0000000000000000e+00  1.9439055949526991e+02 -3.5360447121728629e+02 0.0000000000000000e+00 -3.5360447121728623e+02 2.1471526395234473e+03 0.0000000000000000e+00 0.0000000000000000e+00 0.0000000000000000e+00 0.0000000000000000e+00  -2.6260396697955787e+02 2.2610917577247830e+02 0.0000000000000000e+00 2.2610917577247773e+02 7.8446704981371767e+01 0.0000000000000000e+00 0.0000000000000000e+00 0.0000000000000000e+00 0.0000000000000000e+00  -1.5727357486254461e+03 1.1722441260652258e+03 0.0000000000000000e+00 1.1722441260652283e+03 -8.9993936669178504e+02 0.0000000000000000e+00 0.0000000000000000e+00 0.0000000000000000e+00 0.0000000000000000e+00  -3.0230039104132265e+03 1.2277904199781974e+03 0.0000000000000000e+00 1.2277904199781958e+03 -7.7367014895355510e+02 0.0000000000000000e+00 0.0000000000000000e+00 0.0000000000000000e+00 0.0000000000000000e+00  -3.1049568300763658e+03 6.3779797938255069e+02 0.0000000000000000e+00 6.3779797938255001e+02 -3.9397137894389550e+02 0.0000000000000000e+00 0.0000000000000000e+00 0.0000000000000000e+00 0.0000000000000000e+00  -1.4138956046786857e+03 1.2256016570792502e+01 0.0000000000000000e+00 1.2256016570791633e+01 9.3561996595015486e+01 0.0000000000000000e+00 0.0000000000000000e+00 0.0000000000000000e+00 0.0000000000000000e+00  1.5895721048134881e+03 1.0894644047585673e+03 0.0000000000000000e+00 1.0894644047585653e+03 6.0211868662602296e+02 0.0000000000000000e+00 0.0000000000000000e+00 0.0000000000000000e+00 0.0000000000000000e+00  3.2427404983549445e+03 2.8458206312757061e+03 0.0000000000000000e+00 2.8458206312757065e+03 3.2250328475275155e+03 0.0000000000000000e+00 0.0000000000000000e+00 0.0000000000000000e+00 0.0000000000000000e+00  2.7270617732836304e+03 4.3818529339470815e+03 0.0000000000000000e+00 4.3818529339470897e+03 7.3243563361915285e+03 0.0000000000000000e+00 0.0000000000000000e+00 0.0000000000000000e+00 0.0000000000000000e+00  1.6412673944076382e+03 2.8075750405533126e+03 0.0000000000000000e+00 2.8075750405533126e+03 1.1084033781605327e+04 0.0000000000000000e+00 0.0000000000000000e+00 0.0000000000000000e+00 0.0000000000000000e+00  4.7999500766862514e+02 -3.5273216303423720e+02 0.0000000000000000e+00 -3.5273216303423760e+02 4.9818847988399284e+03 0.0000000000000000e+00 0.0000000000000000e+00 0.0000000000000000e+00 0.0000000000000000e+00  -9.6829145734456574e+01 5.8165446768268346e+01 0.0000000000000000e+00 5.8165446768268282e+01 4.3587581888588647e+03 0.0000000000000000e+00 0.0000000000000000e+00 0.0000000000000000e+00 0.0000000000000000e+00  2.9689026214769939e+02 -1.0507610809478932e+01 0.0000000000000000e+00 -1.0507610809478912e+01 3.3325535842535160e+03 0.0000000000000000e+00 0.0000000000000000e+00 0.0000000000000000e+00 0.0000000000000000e+00  -3.1902669879024650e+01 4.9258443443756811e+01 0.0000000000000000e+00 4.9258443443756768e+01 2.7988560003041262e+03 0.0000000000000000e+00 0.0000000000000000e+00 0.0000000000000000e+00 0.0000000000000000e+00  8.7701195954142165e+01 4.1293870236501135e+01 0.0000000000000000e+00 4.1293870236501121e+01 2.2099683876979238e+03 0.0000000000000000e+00 0.0000000000000000e+00 0.0000000000000000e+00 0.0000000000000000e+00  -9.1153908642030700e+01 2.9712945385216468e+01 0.0000000000000000e+00 2.9712945385216493e+01 1.6774542959269475e+03 0.0000000000000000e+00 0.0000000000000000e+00 0.0000000000000000e+00 0.0000000000000000e+00  -1.3315489992547481e+02 1.1578820238824250e+01 0.0000000000000000e+00 1.1578820238824274e+01 1.2138478901214164e+03 0.0000000000000000e+00 0.0000000000000000e+00 0.0000000000000000e+00 0.0000000000000000e+00  -2.3391057286650346e+02 9.0286769492914996e+00 0.0000000000000000e+00 9.0286769492915138e+00 7.5418096432888115e+02 0.0000000000000000e+00 0.0000000000000000e+00 0.0000000000000000e+00 0.0000000000000000e+00  -2.3542741743355211e+02 1.0571768672534878e+01 0.0000000000000000e+00 1.0571768672534869e+01 3.0064781220138872e+02 0.0000000000000000e+00 0.0000000000000000e+00 0.0000000000000000e+00 0.0000000000000000e+00  -2.8094412597469835e+02 1.6704425418069945e+01 0.0000000000000000e+00 1.6704425418069871e+01 -5.3120048499777091e+01 0.0000000000000000e+00 0.0000000000000000e+00 0.0000000000000000e+00 0.0000000000000000e+00  -3.7829270029441074e+02 1.3651883185535562e+01 0.0000000000000000e+00 1.3651883185535560e+01 -1.9445437957569970e+02 0.0000000000000000e+00 0.0000000000000000e+00 0.0000000000000000e+00 0.0000000000000000e+00  -4.5826409969195515e+02 1.1688157346290612e-01 0.0000000000000000e+00 1.1688157346291726e-01 -1.9462406021808115e+02 0.0000000000000000e+00 0.0000000000000000e+00 0.0000000000000000e+00 0.0000000000000000e+00  -5.2118697968695017e+02 4.1128420114442559e+00 0.0000000000000000e+00 4.1128420114442470e+00 -1.0280758161040204e+02 0.0000000000000000e+00 0.0000000000000000e+00 0.0000000000000000e+00 0.0000000000000000e+00  -5.6524332386082619e+02 -8.5003703000314701e+00 0.0000000000000000e+00 -8.5003703000314452e+00 8.1033517219655465e+01 0.0000000000000000e+00 0.0000000000000000e+00 0.0000000000000000e+00 0.0000000000000000e+00  -6.8917761716512041e+02 6.5068790288038274e+00 0.0000000000000000e+00 6.5068790288036649e+00 4.9019700568635034e+02 0.0000000000000000e+00 0.0000000000000000e+00 0.0000000000000000e+00 0.0000000000000000e+00  -1.0148385414380464e+03 2.4627657360664106e+01 0.0000000000000000e+00 2.4627657360664326e+01 1.0665803786981749e+03 0.0000000000000000e+00 0.0000000000000000e+00 0.0000000000000000e+00 0.0000000000000000e+00  -1.5290751713347013e+03 6.9105099828756622e+01 0.0000000000000000e+00 6.9105099828756693e+01 1.5607076473183665e+03 0.0000000000000000e+00 0.0000000000000000e+00 0.0000000000000000e+00 0.0000000000000000e+00  -1.7509899054921696e+03 -7.0976240753651936e+01 0.0000000000000000e+00 -7.0976240753651908e+01 1.0234017736887827e+03 0.0000000000000000e+00 0.0000000000000000e+00 0.0000000000000000e+00 0.0000000000000000e+00  -1.3540380719798984e+03 1.3004605763972963e+01 0.0000000000000000e+00 1.3004605763972975e+01 -1.6438545163914546e+02 0.0000000000000000e+00 0.0000000000000000e+00 0.0000000000000000e+00 0.0000000000000000e+00  -1.5442944850383942e+03 5.9070584949322971e+01 0.0000000000000000e+00 5.9070584949323056e+01 6.0242486831305689e+02 0.0000000000000000e+00 0.0000000000000000e+00 0.0000000000000000e+00 0.0000000000000000e+00  -1.2830658756543439e+03 -4.9972429863058309e+01 0.0000000000000000e+00 -4.9972429863058167e+01 1.3254611357375429e+03 0.0000000000000000e+00 0.0000000000000000e+00 0.0000000000000000e+00 0.0000000000000000e+00  -6.2686065138465483e+02 -5.5809223423098146e+01 0.0000000000000000e+00 -5.5809223423098551e+01 7.8899196074457518e+02 0.0000000000000000e+00 0.0000000000000000e+00 0.0000000000000000e+00 0.0000000000000000e+00  6.9147381401150540e+01 -3.0348171765434650e+01 0.0000000000000000e+00 -3.0348171765434451e+01 5.6378403105663949e+02 0.0000000000000000e+00 0.0000000000000000e+00 0.0000000000000000e+00 0.0000000000000000e+00  2.0964878683627390e+02 -1.7408994142210076e+01 0.0000000000000000e+00 -1.7408994142210251e+01 7.4591749828409138e+02 0.0000000000000000e+00 0.0000000000000000e+00 0.0000000000000000e+00 0.0000000000000000e+00  2.7057772613143442e+02 -1.5173998373215404e+01 0.0000000000000000e+00 -1.5173998373215349e+01 1.3847888947704696e+03 0.0000000000000000e+00 0.0000000000000000e+00 0.0000000000000000e+00 0.0000000000000000e+00  2.1351380920630245e+02 -2.9862718223570141e+01 0.0000000000000000e+00 -2.9862718223570184e+01 2.1928110209819974e+03 0.0000000000000000e+00 0.0000000000000000e+00 0.0000000000000000e+00 0.0000000000000000e+00  2.4005397278178859e+02 -2.8086108522333305e+01 0.0000000000000000e+00 -2.8086108522333273e+01 3.1573305877910193e+03 0.0000000000000000e+00 0.0000000000000000e+00 0.0000000000000000e+00 0.0000000000000000e+00  4.9126395059463000e+01 -1.8846497228583132e+01 0.0000000000000000e+00 -1.8846497228583239e+01 4.2307153942288296e+03 0.0000000000000000e+00 0.0000000000000000e+00 0.0000000000000000e+00 0.0000000000000000e+00  9.2539802353370632e+01 -2.9939320642013087e+01 0.0000000000000000e+00 -2.9939320642013122e+01 5.1868125876799404e+03 0.0000000000000000e+00 0.0000000000000000e+00 0.0000000000000000e+00 0.0000000000000000e+00  5.4861034056838216e+00 4.3441501725766173e+01 0.0000000000000000e+00 4.3441501725766202e+01 6.2590923558794466e+03 0.0000000000000000e+00 0.0000000000000000e+00 0.0000000000000000e+00 0.0000000000000000e+00  7.8952024666614928e-01 1.7661766275033198e+01 0.0000000000000000e+00 1.7661766275033312e+01 6.4805400878888404e+03 0.0000000000000000e+00 0.0000000000000000e+00 0.0000000000000000e+00 0.0000000000000000e+00  -3.1334168417736548e+00 3.3488200789377480e+01 0.0000000000000000e+00 3.3488200789377785e+01 6.6077699388140500e+03 0.0000000000000000e+00 0.0000000000000000e+00 0.0000000000000000e+00 0.0000000000000000e+00  -1.3252360264957122e+01 1.5635516290090159e+01 0.0000000000000000e+00 1.5635516290090193e+01 6.8006571572382736e+03 0.0000000000000000e+00 0.0000000000000000e+00 0.0000000000000000e+00 0.0000000000000000e+00  2.4289394974327372e+01 8.8619622504798645e+00 0.0000000000000000e+00 8.8619622504797846e+00 7.0697262123518667e+03 0.0000000000000000e+00 0.0000000000000000e+00 0.0000000000000000e+00 0.0000000000000000e+00  -5.7053515614543562e+00 7.0338411456119047e+01 0.0000000000000000e+00 7.0338411456118735e+01 7.1775175829152549e+03 0.0000000000000000e+00 0.0000000000000000e+00 0.0000000000000000e+00 0.0000000000000000e+00  -4.4785296473132405e+01 8.3129970702415875e+01 0.0000000000000000e+00 8.3129970702415676e+01 7.7995748356542927e+03 0.0000000000000000e+00 0.0000000000000000e+00 0.0000000000000000e+00 0.0000000000000000e+00  -3.6943359262502717e+00 1.5140494457420229e+02 0.0000000000000000e+00 1.5140494457420232e+02 8.5596553981764100e+03 0.0000000000000000e+00 0.0000000000000000e+00 0.0000000000000000e+00 0.0000000000000000e+00  -2.0014464890889055e+01 7.5357181203003336e+01 0.0000000000000000e+00 7.5357181203002966e+01 9.5728762579598369e+03 0.0000000000000000e+00 0.0000000000000000e+00 0.0000000000000000e+00 0.0000000000000000e+00  -4.5958302184478974e+01 -5.4738770561799420e+01 0.0000000000000000e+00 -5.4738770561799647e+01 9.7900023535965502e+03 0.0000000000000000e+00 0.0000000000000000e+00 0.0000000000000000e+00 0.0000000000000000e+00  -1.0444085573134880e+02 -3.6442156458631945e+02 0.0000000000000000e+00 -3.6442156458631865e+02 8.8066822157800871e+03 0.0000000000000000e+00 0.0000000000000000e+00 0.0000000000000000e+00 0.0000000000000000e+00  -2.8180009295527208e+02 -8.9265096408621048e+02 0.0000000000000000e+00 -8.9265096408621025e+02 6.6738837566099082e+03 0.0000000000000000e+00 0.0000000000000000e+00 0.0000000000000000e+00 0.0000000000000000e+00  4.4161481221839119e+02 1.1756661218636759e+02 0.0000000000000000e+00 1.1756661218636783e+02 2.2687599405205315e+03 0.0000000000000000e+00 0.0000000000000000e+00 0.0000000000000000e+00 0.0000000000000000e+00  4.0513099994370799e+02 8.4179246452690290e+02 0.0000000000000000e+00 8.4179246452690097e+02 2.7526854126406174e+03 0.0000000000000000e+00 0.0000000000000000e+00 0.0000000000000000e+00 0.0000000000000000e+00  3.7347367997843911e+01 5.5637422382754914e+02 0.0000000000000000e+00 5.5637422382754755e+02 8.4992220144147977e+03 0.0000000000000000e+00 0.0000000000000000e+00 0.0000000000000000e+00 0.0000000000000000e+00  3.4596887593896476e+01 2.9242727865162044e+02 0.0000000000000000e+00 2.9242727865161868e+02 1.1659392899458642e+04 0.0000000000000000e+00 0.0000000000000000e+00 0.0000000000000000e+00 0.0000000000000000e+00  2.6908763093887205e+02 -6.0810737256204004e+02 0.0000000000000000e+00 -6.0810737256204152e+02 1.2221793508348075e+04 0.0000000000000000e+00 0.0000000000000000e+00 0.0000000000000000e+00 0.0000000000000000e+00  -5.0134449188871764e+02 -2.6410715163604664e+02 0.0000000000000000e+00 -2.6410715163604658e+02 7.4320545304201678e+03 0.0000000000000000e+00 0.0000000000000000e+00 0.0000000000000000e+00 0.0000000000000000e+00  -3.0043763738989702e+02 4.0652939822884372e+02 0.0000000000000000e+00 4.0652939822884389e+02 1.0064071433885561e+04 0.0000000000000000e+00 0.0000000000000000e+00 0.0000000000000000e+00 0.0000000000000000e+00  5.8113439640017603e+01 -2.6224972993220530e+02 0.0000000000000000e+00 -2.6224972993220473e+02 9.5248373330576032e+03 0.0000000000000000e+00 0.0000000000000000e+00 0.0000000000000000e+00 0.0000000000000000e+00  -9.4155496048743231e+01 -3.0288619038277704e+02 0.0000000000000000e+00 -3.0288619038277756e+02 7.2252104366015546e+03 0.0000000000000000e+00 0.0000000000000000e+00 0.0000000000000000e+00 0.0000000000000000e+00  7.8809433635198090e+01 -7.8034385163852518e+00 0.0000000000000000e+00 -7.8034385163855697e+00 6.6607326404478827e+03 0.0000000000000000e+00 0.0000000000000000e+00 0.0000000000000000e+00 0.0000000000000000e+00  -5.8702733544612038e+01 -2.0925827241997300e+01 0.0000000000000000e+00 -2.0925827241997212e+01 6.4355334539166652e+03 0.0000000000000000e+00 0.0000000000000000e+00 0.0000000000000000e+00 0.0000000000000000