<?xml version="1.0"?>
<VTKFile type="UnstructuredGrid"  version="0.1"  >
<UnstructuredGrid>
<Piece  NumberOfPoints="3879" NumberOfCells="6881">
<Points>
<DataArray  type="Float64"  NumberOfComponents="3"  format="ascii">0.207524190028372 0.2122422770132111 0  0 0 0  1 0 0  0 1 0  1 1 0  0.6249674373315121 0.2590146544375328 0  0.204663578893616 0.322657230836866 0  0.09605577522599912 0.4018360776629776 0  0.671351124618251 0.08738059142081528 0  0.7842102907526436 0.1666439122351055 0  0.8512483166984784 0.1985391006160637 0  0.6418797837909295 0.4423157172830166 0  0.9292488447973215 0.3869277868069776 0  0.3197896119137055 0.5509935221980964 0  0.3979283685568406 0.5079871620336583 0  0.1572503457993085 0.7345153245035532 0  0.3032914287999163 0.7872981443735918 0  0.3549464687598876 0.8870324161721976 0  0.9691791685505482 0.5159450047798622 0  0.9447564590470373 0.6146164845729313 0  0.7687603548175107 0.7176858127488035 0  0.8926159261971183 0.7422924070424508 0  0.2061587782631535 0.2217389244366831 0  0.2021731605082994 0.2304662099646423 0  0.1958902278109265 0.2377171008267789 0  0.1878189860121365 0.2429041729681512 0  0.1786133191209442 0.2456072006525708 0  0.1690190155206647 0.2456072006525708 0  0.1598133486294724 0.2429041729681512 0  0.1517421068306824 0.2377171008267789 0  0.1454591741333096 0.2304662099646422 0  0.1414735563784554 0.221738924436683 0  0.1401081446132369 0.212242277013211 0  0.1414735563784555 0.202745629589739 0  0.1454591741333096 0.1940183440617798 0  0.1517421068306825 0.1867674531996431 0  0.1598133486294725 0.1815803810582709 0  0.1690190155206649 0.1788773533738513 0  0.1786133191209443 0.1788773533738514 0  0.1878189860121367 0.181580381058271 0  0.1958902278109266 0.1867674531996433 0  0.2021731605082994 0.19401834406178 0  0.2061587782631535 0.2027456295897391 0  0.03333333333333333 0 0  0.06666666666666667 0 0  0.1 0 0  0.1333333333333333 0 0  0.1666666666666667 0 0  0.2 0 0  0.2333333333333333 0 0  0.2666666666666667 0 0  0.3 0 0  0.3333333333333333 0 0  0.3666666666666666 0 0  0.4 0 0  0.4333333333333333 0 0  0.4666666666666667 0 0  0.5 0 0  0.5333333333333333 0 0  0.5666666666666667 0 0  0.6 0 0  0.6333333333333333 0 0  0.6666666666666666 0 0  0.7 0 0  0.7333333333333333 0 0  0.7666666666666667 0 0  0.8 0 0  0.8333333333333334 0 0  0.8666666666666667 0 0  0.9 0 0  0.9333333333333333 0 0  0.9666666666666667 0 0  0 0.9666666666666667 0  0 0.9333333333333333 0  0 0.9 0  0 0.8666666666666667 0  0 0.8333333333333334 0  0 0.8 0  0 0.7666666666666666 0  0 0.7333333333333334 0  0 0.7 0  0 0.6666666666666667 0  0 0.6333333333333333 0  0 0.6 0  0 0.5666666666666667 0  0 0.5333333333333333 0  0 0.5 0  0 0.4666666666666667 0  0 0.4333333333333333 0  0 0.4 0  0 0.3666666666666667 0  0 0.3333333333333334 0  0 0.3 0  0 0.2666666666666667 0  0 0.2333333333333333 0  0 0.2 0  0 0.1666666666666666 0  0 0.1333333333333333 0  0 0.09999999999999998 0  0 0.06666666666666665 0  0 0.03333333333333333 0  1 0.03333333333333333 0  1 0.06666666666666667 0  1 0.1 0  1 0.1333333333333333 0  1 0.1666666666666667 0  1 0.2 0  1 0.2333333333333333 0  1 0.2666666666666667 0  1 0.3 0  1 0.3333333333333333 0  1 0.3666666666666666 0  1 0.4 0  1 0.4333333333333333 0  1 0.4666666666666667 0  1 0.5 0  1 0.5333333333333333 0  1 0.5666666666666667 0  1 0.6 0  1 0.6333333333333333 0  1 0.6666666666666666 0  1 0.7 0  1 0.7333333333333333 0  1 0.7666666666666667 0  1 0.8 0  1 0.8333333333333334 0  1 0.8666666666666667 0  1 0.9 0  1 0.9333333333333333 0  1 0.9666666666666667 0  0.9666666666666667 1 0  0.9333333333333333 1 0  0.9 1 0  0.8666666666666667 1 0  0.8333333333333334 1 0  0.8 1 0  0.7666666666666666 1 0  0.7333333333333334 1 0  0.7 1 0  0.6666666666666667 1 0  0.6333333333333333 1 0  0.6 1 0  0.5666666666666667 1 0  0.5333333333333333 1 0  0.5 1 0  0.4666666666666667 1 0  0.4333333333333333 1 0  0.4 1 0  0.3666666666666667 1 0  0.3333333333333334 1 0  0.3 1 0  0.2666666666666667 1 0  0.2333333333333333 1 0  0.2 1 0  0.1666666666666666 1 0  0.1333333333333333 1 0  0.09999999999999998 1 0  0.06666666666666665 1 0  0.03333333333333333 1 0  0.6247072676344306 0.2689501343248463 0  0.6239274716502419 0.2788583817523955 0  0.6226301867455355 0.2887122389026952 0  0.6208189686880621 0.2984846970382296 0  0.6184987819006211 0.3081489705305245 0  0.6156759858539226 0.317678570277693 0  0.6123583176357204 0.3270473763092224 0  0.6085548707439923 0.3362297093789981 0  0.6042760701622942 0.3452004013503318 0  0.5995336437856049 0.3539348641800754 0  0.5943405902749808 0.3624091573127375 0  0.5887111434291297 0.3706000532998825 0  0.582660733170558 0.3784851014649517 0  0.5762059432532257 0.3860426894390078 0  0.5693644658076293 0.3932521023987353 0  0.5621550528479018 0.4000935798443317 0  0.5545974648738458 0.4065483697616639 0  0.5467124167087765 0.4125987800202355 0  0.5385215207216315 0.4182282268660866 0  0.5300472275889694 0.4234212803767108 0  0.5213127647592257 0.4281637067534002 0  0.512342072787892 0.4324425073350981 0  0.5031597397181163 0.4362459542268262 0  0.493790933686587 0.4395636224450283 0  0.4842613339394185 0.4423864184917269 0  0.4745970604471235 0.4447066052791678 0  0.4648246023115891 0.4465178233366412 0  0.4549707451612894 0.4478151082413475 0  0.4450624977337403 0.4485949042255363 0  0.4351270178464268 0.4488550739226177 0  0.4251915379591132 0.4485949042255363 0  0.4152832905315641 0.4478151082413475 0  0.4054294333812644 0.4465178233366411 0  0.39565697524573 0.4447066052791677 0  0.385992701753435 0.4423864184917267 0  0.3764631020062665 0.4395636224450281 0  0.3670942959747371 0.4362459542268259 0  0.3579119629049616 0.4324425073350978 0  0.3489412709336278 0.4281637067533998 0  0.3402068081038843 0.4234212803767103 0  0.3317325149712221 0.4182282268660862 0  0.3235416189840771 0.412598780020235 0  0.3156565708190078 0.4065483697616634 0  0.3080989828449519 0.4000935798443311 0  0.3008895698852244 0.3932521023987346 0  0.2940480924396279 0.3860426894390071 0  0.2875933025222958 0.3784851014649511 0  0.2815428922637242 0.3706000532998818 0  0.2759134454178731 0.3624091573127368 0  0.2707203919072489 0.3539348641800746 0  0.2659779655305596 0.3452004013503309 0  0.2616991649488616 0.3362297093789972 0  0.2578957180571336 0.3270473763092215 0  0.2545780498389315 0.3176785702776921 0  0.251755253792233 0.3081489705305236 0  0.249435067004792 0.2984846970382286 0  0.2476238489473186 0.2887122389026941 0  0.2463265640426123 0.2788583817523945 0  0.2455467680584236 0.2689501343248454 0  0.2452865983613423 0.2590146544375318 0  0.2455467680584237 0.2490791745502182 0  0.2463265640426126 0.2391709271226692 0  0.247623848947319 0.2293170699723696 0  0.2494350670047924 0.2195446118368351 0  0.2517552537922335 0.2098803383445402 0  0.2545780498389321 0.2003507385973717 0  0.2578957180571343 0.1909819325658423 0  0.2616991649488624 0.1817995994960667 0  0.2659779655305604 0.172828907524733 0  0.2707203919072498 0.1640944446949895 0  0.2759134454178741 0.1556201515623273 0  0.2815428922637251 0.1474292555751825 0  0.2875933025222969 0.1395442074101132 0  0.2940480924396291 0.1319866194360571 0  0.3008895698852256 0.1247772064763297 0  0.3080989828449531 0.1179357290307334 0  0.3156565708190092 0.1114809391134012 0  0.3235416189840785 0.1054305288548295 0  0.3317325149712236 0.09980108200897844 0  0.3402068081038856 0.0946080284983544 0  0.3489412709336291 0.08986560212166514 0  0.357911962904963 0.08558680153996717 0  0.3670942959747386 0.08178335464823916 0  0.3764631020062678 0.07846568643003712 0  0.3859927017534364 0.0756428903833386 0  0.3956569752457313 0.0733227035958976 0  0.4054294333812659 0.07151148553842429 0  0.4152832905315654 0.07021420063371797 0  0.4251915379591144 0.0694344046495293 0  0.435127017846428 0.0691742349524479 0  0.4450624977337415 0.06943440464952938 0  0.4549707451612905 0.07021420063371814 0  0.4648246023115901 0.07151148553842454 0  0.4745970604471245 0.07332270359589793 0  0.4842613339394195 0.07564289038333902 0  0.4937909336865879 0.07846568643003757 0  0.5031597397181173 0.0817833546482398 0  0.5123420727878929 0.08558680153996781 0  0.5213127647592265 0.08986560212166581 0  0.53004722758897 0.0946080284983552 0  0.5385215207216321 0.09980108200897933 0  0.5467124167087771 0.1054305288548305 0  0.5545974648738462 0.1114809391134021 0  0.5621550528479023 0.1179357290307343 0  0.5693644658076298 0.1247772064763308 0  0.576205943253226 0.1319866194360582 0  0.5826607331705582 0.1395442074101142 0  0.5887111434291299 0.1474292555751835 0  0.594340590274981 0.1556201515623285 0  0.5995336437856051 0.1640944446949906 0  0.6042760701622945 0.172828907524734 0  0.6085548707439925 0.1817995994960678 0  0.6123583176357205 0.1909819325658435 0  0.6156759858539227 0.2003507385973728 0  0.6184987819006211 0.2098803383445412 0  0.6208189686880622 0.2195446118368362 0  0.6226301867455355 0.2293170699723706 0  0.6239274716502419 0.2391709271226702 0  0.6247072676344306 0.2490791745502192 0  0.203885768735257 0.3325402459548524 0  0.2015714905276826 0.3421799084407872 0  0.1977777294810124 0.3513388578120612 0  0.1925979005829864 0.3597915703383434 0  0.1861595484119405 0.3673299121842922 0  0.1786212065659918 0.373768264355338 0  0.1701684940397096 0.378948093253364 0  0.1610095446684356 0.3827418543000342 0  0.1513698821825007 0.3850561325076086 0  0.1414868670645144 0.3858339426659677 0  0.1316038519465281 0.3850561325076086 0  0.1219641894605933 0.3827418543000343 0  0.1128052400893193 0.378948093253364 0  0.1043525275630371 0.3737682643553381 0  0.09681418571708833 0.3673299121842922 0  0.09037583354604248 0.3597915703383434 0  0.08519600464801645 0.3513388578120612 0  0.08140224360134621 0.3421799084407872 0  0.07908796539377183 0.3325402459548523 0  0.07831015523541281 0.3226572308368659 0  0.07908796539377186 0.3127742157188796 0  0.08140224360134626 0.3031345532329447 0  0.08519600464801655 0.2939756038616707 0  0.0903758335460426 0.2855228913353884 0  0.0968141857
[...]
<PointData  Tensors="$\sigma$"> 
<DataArray  type="Float64"  Name="$\sigma$"  NumberOfComponents="9" format="ascii">1.5002789106214436e+02 3.5433668856660944e+01 0.0000000000000000e+00 3.5433668856661711e+01 1.1331942903497133e+04 0.0000000000000000e+00 0.0000000000000000e+00 0.0000000000000000e+00 0.0000000000000000e+00  1.3460427856213037e+03 1.0914471856939834e+02 0.0000000000000000e+00 1.0914471856939846e+02 5.5892297708410451e+03 0.0000000000000000e+00 0.0000000000000000e+00 0.0000000000000000e+00 0.0000000000000000e+00  -2.7884982449564827e+01 -2.3484154317594566e+01 0.0000000000000000e+00 -2.3484154317594534e+01 5.7984097772918985e+03 0.0000000000000000e+00 0.0000000000000000e+00 0.0000000000000000e+00 0.0000000000000000e+00  7.9148156222572696e+00 -4.9896546695530697e+00 0.0000000000000000e+00 -4.9896546695531079e+00 5.8163781134900619e+03 0.0000000000000000e+00 0.0000000000000000e+00 0.0000000000000000e+00 0.0000000000000000e+00  8.0646692366436845e+00 1.1653506498119024e+01 0.0000000000000000e+00 1.1653506498119047e+01 5.2419641474242935e+03 0.0000000000000000e+00 0.0000000000000000e+00 0.0000000000000000e+00 0.0000000000000000e+00  6.1809049257813861e+01 6.5238598857312326e+01 0.0000000000000000e+00 6.5238598857313519e+01 1.1331434559813066e+04 0.0000000000000000e+00 0.0000000000000000e+00 0.0000000000000000e+00 0.0000000000000000e+00  -1.0075801663510040e+02 2.8811564774234535e+02 0.0000000000000000e+00 2.8811564774234569e+02 1.3587072786471560e+02 0.0000000000000000e+00 0.0000000000000000e+00 0.0000000000000000e+00 0.0000000000000000e+00  6.5114134349886956e+02 3.8461585335758753e+02 0.0000000000000000e+00 3.8461585335758753e+02 1.1844183496234911e+04 0.0000000000000000e+00 0.0000000000000000e+00 0.0000000000000000e+00 0.0000000000000000e+00  1.3997405864397837e+02 -3.3611518497814387e+02 0.0000000000000000e+00 -3.3611518497814467e+02 1.1359525799178866e+04 0.0000000000000000e+00 0.0000000000000000e+00 0.0000000000000000e+00 0.0000000000000000e+00  -3.3174215474218875e+02 1.2502554596818446e+02 0.0000000000000000e+00 1.2502554596818526e+02 -2.5269078165327576e+02 0.0000000000000000e+00 0.0000000000000000e+00 0.0000000000000000e+00 0.0000000000000000e+00  -8.0738911503618542e+00 -5.9161212498462689e+01 0.0000000000000000e+00 -5.9161212498462667e+01 -3.5513847279313444e+02 0.0000000000000000e+00 0.0000000000000000e+00 0.0000000000000000e+00 0.0000000000000000e+00  1.3469676303030053e+02 4.5912755404240477e+02 0.0000000000000000e+00 4.5912755404240590e+02 6.2561769135263567e+03 0.0000000000000000e+00 0.0000000000000000e+00 0.0000000000000000e+00 0.0000000000000000e+00  5.2308906264066172e+02 -2.1708585089730967e+01 0.0000000000000000e+00 -2.1708585089731550e+01 1.2415396554416371e+04 0.0000000000000000e+00 0.0000000000000000e+00 0.0000000000000000e+00 0.0000000000000000e+00  5.6107448746231633e+01 1.0699382754016092e+02 0.0000000000000000e+00 1.0699382754016123e+02 1.1435377002834035e+04 0.0000000000000000e+00 0.0000000000000000e+00 0.0000000000000000e+00 0.0000000000000000e+00  -1.0705518740697883e+02 -2.1805960942011035e+02 0.0000000000000000e+00 -2.1805960942010915e+02 -1.3785048235302847e+03 0.0000000000000000e+00 0.0000000000000000e+00 0.0000000000000000e+00 0.0000000000000000e+00  -2.8702395383710569e+02 -2.1588168091684130e+02 0.0000000000000000e+00 -2.1588168091684136e+02 -1.2029515171687824e+03 0.0000000000000000e+00 0.0000000000000000e+00 0.0000000000000000e+00 0.0000000000000000e+00  4.4586647111590658e+01 -1.2811890515550010e+02 0.0000000000000000e+00 -1.2811890515550010e+02 7.2283319872092716e+03 0.0000000000000000e+00 0.0000000000000000e+00 0.0000000000000000e+00 0.0000000000000000e+00  1.2736250561436000e+02 1.0588158709504714e+02 0.0000000000000000e+00 1.0588158709504698e+02 8.8398225069944892e+03 0.0000000000000000e+00 0.0000000000000000e+00 0.0000000000000000e+00 0.0000000000000000e+00  5.6001026423915773e+03 3.3031567537005571e+02 0.0000000000000000e+00 3.3031567537005606e+02 1.7885373151752519e+04 0.0000000000000000e+00 0.0000000000000000e+00 0.0000000000000000e+00 0.0000000000000000e+00  7.0507737683992650e+02 -1.6775885853313244e+02 0.0000000000000000e+00 -1.6775885853313218e+02 1.3058437041479709e+04 0.0000000000000000e+00 0.0000000000000000e+00 0.0000000000000000e+00 0.0000000000000000e+00  4.5254439953267841e+01 1.7411094592567886e+02 0.0000000000000000e+00 1.7411094592567798e+02 8.7766096710633192e+03 0.0000000000000000e+00 0.0000000000000000e+00 0.0000000000000000e+00 0.0000000000000000e+00  1.2192333654541032e+02 3.0433154936062131e+01 0.0000000000000000e+00 3.0433154936062248e+01 4.3539811709919522e+03 0.0000000000000000e+00 0.0000000000000000e+00 0.0000000000000000e+00 0.0000000000000000e+00  5.7327907431394726e+02 -1.5678227118850054e+03 0.0000000000000000e+00 -1.5678227118850050e+03 7.1146339718739910e+03 0.0000000000000000e+00 0.0000000000000000e+00 0.0000000000000000e+00 0.0000000000000000e+00  -2.6407042697969223e+02 -5.0624815238998832e+02 0.0000000000000000e+00 -5.0624815238998877e+02 1.9021109516515494e+03 0.0000000000000000e+00 0.0000000000000000e+00 0.0000000000000000e+00 0.0000000000000000e+00  -2.0583254793508390e+03 1.3293642698682720e+03 0.0000000000000000e+00 1.3293642698682750e+03 -9.1497137890721251e+02 0.0000000000000000e+00 0.0000000000000000e+00 0.0000000000000000e+00 0.0000000000000000e+00  -4.4725490158822913e+03 1.6124969282656093e+03 0.0000000000000000e+00 1.6124969282656127e+03 -8.7886899661533482e+02 0.0000000000000000e+00 0.0000000000000000e+00 0.0000000000000000e+00 0.0000000000000000e+00  -3.3938876787408262e+03 8.9582879206934592e+02 0.0000000000000000e+00 8.9582879206934342e+02 -5.7423292080384465e+02 0.0000000000000000e+00 0.0000000000000000e+00 0.0000000000000000e+00 0.0000000000000000e+00  1.4586296802598456e+03 2.3513906870533551e+03 0.0000000000000000e+00 2.3513906870533560e+03 1.4906013165049649e+03 0.0000000000000000e+00 0.0000000000000000e+00 0.0000000000000000e+00 0.0000000000000000e+00  7.5568122541944213e+03 4.8641557035146425e+03 0.0000000000000000e+00 4.8641557035146407e+03 2.7123462755248356e+03 0.0000000000000000e+00 0.0000000000000000e+00 0.0000000000000000e+00 0.0000000000000000e+00  7.4953122587262724e+03 5.9027207185277994e+03 0.0000000000000000e+00 5.9027207185278048e+03 5.4853988212729728e+03 0.0000000000000000e+00 0.0000000000000000e+00 0.0000000000000000e+00 0.0000000000000000e+00  3.3262355418485931e+03 4.5066334504234956e+03 0.0000000000000000e+00 4.5066334504234992e+03 6.3100551329238724e+03 0.0000000000000000e+00 0.0000000000000000e+00 0.0000000000000000e+00 0.0000000000000000e+00  1.1870749079160200e+03 1.9823344759129368e+03 0.0000000000000000e+00 1.9823344759129386e+03 5.2454246168046720e+03 0.0000000000000000e+00 0.0000000000000000e+00 0.0000000000000000e+00 0.0000000000000000e+00  6.4373527467066054e+01 3.1665720683583481e+02 0.0000000000000000e+00 3.1665720683583538e+02 4.4279270060697918e+03 0.0000000000000000e+00 0.0000000000000000e+00 0.0000000000000000e+00 0.0000000000000000e+00  1.8930686621805722e+02 -3.4593073975662196e+02 0.0000000000000000e+00 -3.4593073975662196e+02 2.0639308294811490e+03 0.0000000000000000e+00 0.0000000000000000e+00 0.0000000000000000e+00 0.0000000000000000e+00  -2.2184977762450507e+02 1.8101231840487961e+02 0.0000000000000000e+00 1.8101231840487927e+02 1.3058511005009794e+02 0.0000000000000000e+00 0.0000000000000000e+00 0.0000000000000000e+00 0.0000000000000000e+00  -1.4417818831844513e+03 1.0634275432609043e+03 0.0000000000000000e+00 1.0634275432609070e+03 -8.0503123761887150e+02 0.0000000000000000e+00 0.0000000000000000e+00 0.0000000000000000e+00 0.0000000000000000e+00  -2.7923487669079991e+03 1.1264197999289611e+03 0.0000000000000000e+00 1.1264197999289593e+03 -7.1072892397855730e+02 0.0000000000000000e+00 0.0000000000000000e+00 0.0000000000000000e+00 0.0000000000000000e+00  -2.8808919852089971e+03 5.9280816154132265e+02 0.0000000000000000e+00 5.9280816154132208e+02 -3.6978612426270195e+02 0.0000000000000000e+00 0.0000000000000000e+00 0.0000000000000000e+00 0.0000000000000000e+00  -1.3096892720997062e+03 1.8744591239845224e+01 0.0000000000000000e+00 1.8744591239845118e+01 8.7171694221754066e+01 0.0000000000000000e+00 0.0000000000000000e+00 0.0000000000000000e+00 0.0000000000000000e+00  1.4835313636864780e+03 1.0266082745740582e+03 0.0000000000000000e+00 1.0266082745740566e+03 5.7524954977536481e+02 0.0000000000000000e+00 0.0000000000000000e+00 0.0000000000000000e+00 0.0000000000000000e+00  3.0305849708747755e+03 2.6672859218683434e+03 0.0000000000000000e+00 2.6672859218683448e+03 3.0402318997835100e+03 0.0000000000000000e+00 0.0000000000000000e+00 0.0000000000000000e+00 0.0000000000000000e+00  2.5570286150436991e+03 4.1042737476590846e+03 0.0000000000000000e+00 4.1042737476590919e+03 6.8826299150612822e+03 0.0000000000000000e+00 0.0000000000000000e+00 0.0000000000000000e+00 0.0000000000000000e+00  1.5526201708167648e+03 2.6245814720118829e+03 0.0000000000000000e+00 2.6245814720118833e+03 1.0382015905030377e+04 0.0000000000000000e+00 0.0000000000000000e+00 0.0000000000000000e+00 0.0000000000000000e+00  4.5805346746160694e+02 -3.3095666015009272e+02 0.0000000000000000e+00 -3.3095666015009300e+02 4.6928551968551646e+03 0.0000000000000000e+00 0.0000000000000000e+00 0.0000000000000000e+00 0.0000000000000000e+00  -9.1976607219286151e+01 5.2831679266554758e+01 0.0000000000000000e+00 5.2831679266554708e+01 4.1087385420782948e+03 0.0000000000000000e+00 0.0000000000000000e+00 0.0000000000000000e+00 0.0000000000000000e+00  2.7915259442705911e+02 -7.8090401079711542e+00 0.0000000000000000e+00 -7.8090401079711329e+00 3.1482466070192695e+03 0.0000000000000000e+00 0.0000000000000000e+00 0.0000000000000000e+00 0.0000000000000000e+00  -2.2626973638451087e+01 4.4891414938669854e+01 0.0000000000000000e+00 4.4891414938669840e+01 2.6478805242448930e+03 0.0000000000000000e+00 0.0000000000000000e+00 0.0000000000000000e+00 0.0000000000000000e+00  8.7792448746966585e+01 3.9455267026533214e+01 0.0000000000000000e+00 3.9455267026533193e+01 2.0925868878981341e+03 0.0000000000000000e+00 0.0000000000000000e+00 0.0000000000000000e+00 0.0000000000000000e+00  -7.4746068942102653e+01 2.7780577748493009e+01 0.0000000000000000e+00 2.7780577748493052e+01 1.5899927301551402e+03 0.0000000000000000e+00 0.0000000000000000e+00 0.0000000000000000e+00 0.0000000000000000e+00  -1.1339197985691406e+02 1.1245410121760779e+01 0.0000000000000000e+00 1.1245410121760820e+01 1.1519579565252316e+03 0.0000000000000000e+00 0.0000000000000000e+00 0.0000000000000000e+00 0.0000000000000000e+00  -2.0493092084047262e+02 8.6959014999327042e+00 0.0000000000000000e+00 8.6959014999327202e+00 7.1948150082688619e+02 0.0000000000000000e+00 0.0000000000000000e+00 0.0000000000000000e+00 0.0000000000000000e+00  -2.0350108098036699e+02 9.9418094879404606e+00 0.0000000000000000e+00 9.9418094879404499e+00 2.9146359442846261e+02 0.0000000000000000e+00 0.0000000000000000e+00 0.0000000000000000e+00 0.0000000000000000e+00  -2.4324384813682161e+02 1.5698569944413544e+01 0.0000000000000000e+00 1.5698569944413487e+01 -4.3761981803230171e+01 0.0000000000000000e+00 0.0000000000000000e+00 0.0000000000000000e+00 0.0000000000000000e+00  -3.3235739678476511e+02 1.2769607474773808e+01 0.0000000000000000e+00 1.2769607474773798e+01 -1.7771225744672100e+02 0.0000000000000000e+00 0.0000000000000000e+00 0.0000000000000000e+00 0.0000000000000000e+00  -4.0598595275870133e+02 1.5699873770584893e-01 0.0000000000000000e+00 1.5699873770590325e-01 -1.7822837605242336e+02 0.0000000000000000e+00 0.0000000000000000e+00 0.0000000000000000e+00 0.0000000000000000e+00  -4.6426252758398209e+02 3.8456036044546016e+00 0.0000000000000000e+00 3.8456036044545940e+00 -9.2985322642502780e+01 0.0000000000000000e+00 0.0000000000000000e+00 0.0000000000000000e+00 0.0000000000000000e+00  -5.0504276219575826e+02 -7.8749318791840643e+00 0.0000000000000000e+00 -7.8749318791840475e+00 7.6231945225705616e+01 0.0000000000000000e+00 0.0000000000000000e+00 0.0000000000000000e+00 0.0000000000000000e+00  -6.2034491353542955e+02 6.1397063198693935e+00 0.0000000000000000e+00 6.1397063198692710e+00 4.5425155427966064e+02 0.0000000000000000e+00 0.0000000000000000e+00 0.0000000000000000e+00 0.0000000000000000e+00  -9.2004010066983631e+02 2.3487986056158654e+01 0.0000000000000000e+00 2.3487986056158807e+01 9.8706612602547023e+02 0.0000000000000000e+00 0.0000000000000000e+00 0.0000000000000000e+00 0.0000000000000000e+00  -1.3959840062698001e+03 6.3951417838869716e+01 0.0000000000000000e+00 6.3951417838869723e+01 1.4434452071046280e+03 0.0000000000000000e+00 0.0000000000000000e+00 0.0000000000000000e+00 0.0000000000000000e+00  -1.5990901325101031e+03 -6.6473204972799309e+01 0.0000000000000000e+00 -6.6473204972799309e+01 9.5036919159054958e+02 0.0000000000000000e+00 0.0000000000000000e+00 0.0000000000000000e+00 0.0000000000000000e+00  -1.2313498379067471e+03 1.1502855305831130e+01 0.0000000000000000e+00 1.1502855305831142e+01 -1.3928795969568571e+02 0.0000000000000000e+00 0.0000000000000000e+00 0.0000000000000000e+00 0.0000000000000000e+00  -1.4110263437184647e+03 5.5538662980258529e+01 0.0000000000000000e+00 5.5538662980258628e+01 5.8090371508004989e+02 0.0000000000000000e+00 0.0000000000000000e+00 0.0000000000000000e+00 0.0000000000000000e+00  -1.1692089562460105e+03 -4.5475473905394580e+01 0.0000000000000000e+00 -4.5475473905394480e+01 1.2484803213499590e+03 0.0000000000000000e+00 0.0000000000000000e+00 0.0000000000000000e+00 0.0000000000000000e+00  -5.5499049110725048e+02 -5.2876159626441087e+01 0.0000000000000000e+00 -5.2876159626441527e+01 7.4673718287427573e+02 0.0000000000000000e+00 0.0000000000000000e+00 0.0000000000000000e+00 0.0000000000000000e+00  9.0524181091731677e+01 -2.8507665183499935e+01 0.0000000000000000e+00 -2.8507665183499505e+01 5.4256611672770907e+02 0.0000000000000000e+00 0.0000000000000000e+00 0.0000000000000000e+00 0.0000000000000000e+00  2.1758512244330069e+02 -1.6813522223224751e+01 0.0000000000000000e+00 -1.6813522223224876e+01 7.2625635249573611e+02 0.0000000000000000e+00 0.0000000000000000e+00 0.0000000000000000e+00 0.0000000000000000e+00  2.6826898946272973e+02 -1.4053985790497611e+01 0.0000000000000000e+00 -1.4053985790497572e+01 1.3372696733859691e+03 0.0000000000000000e+00 0.0000000000000000e+00 0.0000000000000000e+00 0.0000000000000000e+00  2.1038900732946740e+02 -2.8851971954770288e+01 0.0000000000000000e+00 -2.8851971954770320e+01 2.1087013465547566e+03 0.0000000000000000e+00 0.0000000000000000e+00 0.0000000000000000e+00 0.0000000000000000e+00  2.3027817148256662e+02 -2.6433967081854195e+01 0.0000000000000000e+00 -2.6433967081854146e+01 3.0240822138614039e+03 0.0000000000000000e+00 0.0000000000000000e+00 0.0000000000000000e+00 0.0000000000000000e+00  4.8772889668423325e+01 -1.7886542094273100e+01 0.0000000000000000e+00 -1.7886542094273196e+01 4.0426025965584085e+03 0.0000000000000000e+00 0.0000000000000000e+00 0.0000000000000000e+00 0.0000000000000000e+00  8.7719410291580473e+01 -2.8370691385109229e+01 0.0000000000000000e+00 -2.8370691385109275e+01 4.9440828929530444e+03 0.0000000000000000e+00 0.0000000000000000e+00 0.0000000000000000e+00 0.0000000000000000e+00  4.7660066480850096e+00 4.0776307348639804e+01 0.0000000000000000e+00 4.0776307348639804e+01 5.8634977531127415e+03 0.0000000000000000e+00 0.0000000000000000e+00 0.0000000000000000e+00 0.0000000000000000e+00  1.1937193115589015e+00 1.6378984914059526e+01 0.0000000000000000e+00 1.6378984914059583e+01 6.0699265720625690e+03 0.0000000000000000e+00 0.0000000000000000e+00 0.0000000000000000e+00 0.0000000000000000e+00  -3.3605765573243649e+00 3.2435492640442597e+01 0.0000000000000000e+00 3.2435492640442902e+01 6.1898920385543606e+03 0.0000000000000000e+00 0.0000000000000000e+00 0.0000000000000000e+00 0.0000000000000000e+00  -1.1660236520944721e+01 1.4715338177917598e+01 0.0000000000000000e+00 1.4715338177917660e+01 6.3727470166515322e+03 0.0000000000000000e+00 0.0000000000000000e+00 0.0000000000000000e+00 0.0000000000000000e+00  2.1663344834719787e+01 8.9037002410651613e+00 0.0000000000000000e+00 8.9037002410651453e+00 6.6209050096295778e+03 0.0000000000000000e+00 0.0000000000000000e+00 0.0000000000000000e+00 0.0000000000000000e+00  -5.3932508946678590e+00 6.2952429992292544e+01 0.0000000000000000e+00 6.2952429992292217e+01 6.7166764921744079e+03 0.0000000000000000e+00 0.0000000000000000e+00 0.0000000000000000e+00 0.0000000000000000e+00  -4.0296698655771280e+01 7.6326169348452368e+01 0.0000000000000000e+00 7.6326169348452083e+01 7.2829115613033728e+03 0.0000000000000000e+00 0.0000000000000000e+00 0.0000000000000000e+00 0.0000000000000000e+00  -2.6111847381494093e+00 1.4178717631621458e+02 0.0000000000000000e+00 1.4178717631621447e+02 7.9761393017138553e+03 0.0000000000000000e+00 0.0000000000000000e+00 0.0000000000000000e+00 0.0000000000000000e+00  -2.4230359184600520e+01 6.3972536241918696e+01 0.0000000000000000e+00 6.3972536241918448e+01 8.9214803024483663e+03 0.0000000000000000e+00 0.0000000000000000e+00 0.0000000000000000e+00 0.0000000000000000e+00  -4.2575890725969408e+01 -7.3992063796970086e+01 0.0000000000000000e+00 -7.3992063796970328e+01 9.0209278566299508e+03 0.0000000000000000e+00 0.0000000000000000e+00 0.0000000000000000e+00 0.0000000000000000e+00  -1.4116747102663177e+02 -3.7791282523835645e+02 0.0000000000000000e+00 -3.7791282523835577e+02 8.0035556957980634e+03 0.0000000000000000e+00 0.0000000000000000e+00 0.0000000000000000e+00 0.0000000000000000e+00  -1.6520505868512197e+02 -8.3380218558736681e+02 0.0000000000000000e+00 -8.3380218558736635e+02 5.9375530001273573e+03 0.0000000000000000e+00 0.0000000000000000e+00 0.0000000000000000e+00 0.0000000000000000e+00  2.7559319764039543e+02 6.2601527744294494e+01 0.0000000000000000e+00 6.2601527744294593e+01 2.2526830383552897e+03 0.0000000000000000e+00 0.0000000000000000e+00 0.0000000000000000e+00 0.0000000000000000e+00  2.3516074458356590e+02 6.9566442352965419e+02 0.0000000000000000e+00 6.9566442352965339e+02 2.7316677564089869e+03 0.0000000000000000e+00 0.0000000000000000e+00 0.0000000000000000e+00 0.0000000000000000e+00  5.7057466803257405e+01 5.3353071257416718e+02 0.0000000000000000e+00 5.3353071257416582e+02 7.5717218571213543e+03 0.0000000000000000e+00 0.0000000000000000e+00 0.0000000000000000e+00 0.0000000000000000e+00  1.8688525912054377e+01 3.0657319910263635e+02 0.0000000000000000e+00 3.0657319910263493e+02 1.0740619590151915e+04 0.0000000000000000e+00 0.0000000000000000e+00 0.0000000000000000e+00 0.0000000000000000e+00  5.9877027064944656e+01 -5.3602074585599667e+02 0.0000000000000000e+00 -5.3602074585599757e+02 1.1404265590303841e+04 0.0000000000000000e+00 0.0000000000000000e+00 0.0000000000000000e+00 0.0000000000000000e+00  -4.6888365800000884e+02 -2.3940286664039522e+02 0.0000000000000000e+00 -2.3940286664039590e+02 7.0126142004572075e+03 0.0000000000000000e+00 0.0000000000000000e+00 0.0000000000000000e+00 0.0000000000000000e+00  -3.0366303007707444e+02 3.5966447022181114e+02 0.0000000000000000e+00 3.5966447022181160e+02 9.3482958333548740e+03 0.0000000000000000e+00 0.0000000000000000e+00 0.0000000000000000e+00 0.0000000000000000e+00  4.4430752223451627e+01 -2.3638761526015628e+02 0.0000000000000000e+00 -2.3638761526015574e+02 8.9076044903910024e+03 0.0000000000000000e+00 0.0000000000000000e+00 0.0000000000000000e+00 0.0000000000000000e+00  -8.1341112204941652e+01 -2.8145839150310218e+02 0.0000000000000000e+00 -2.8145839150310252e+02 6.7781403311303584e+03 0.0000000000000000e+00 0.0000000000000000e+00 0.0000000000000000e+00 0.0000000000000000e+00  7.2060845179033649e+01 -6.1012649730574502e+00 0.0000000000000000e+00 -6.1012649730575879e+00 6.2638710720313065e+03 0.0000000000000000e+00 0.0000000000000000e+00 0.0000000000000000e+00 0.0000000000000000e+00  -5.3456786516215800e+01 -1.6893143793555332e+01 0.0000000000000000e+00 -1.6893143793555300e+01 6.0662338686857183e+03 0.0000000000000000e+00 0.0000000000000000e+00 0.0000000000000000e+00 0.0000000000000000