<?xml version="1.0"?>
<VTKFile type="UnstructuredGrid"  version="0.1"  >
<UnstructuredGrid>
<Piece  NumberOfPoints="3879" NumberOfCells="6881">
<Points>
<DataArray  type="Float64"  NumberOfComponents="3"  format="ascii">0.207524190028372 0.2122422770132111 0  0 0 0  1 0 0  0 1 0  1 1 0  0.6249674373315121 0.2590146544375328 0  0.204663578893616 0.322657230836866 0  0.09605577522599912 0.4018360776629776 0  0.671351124618251 0.08738059142081528 0  0.7842102907526436 0.1666439122351055 0  0.8512483166984784 0.1985391006160637 0  0.6418797837909295 0.4423157172830166 0  0.9292488447973215 0.3869277868069776 0  0.3197896119137055 0.5509935221980964 0  0.3979283685568406 0.5079871620336583 0  0.1572503457993085 0.7345153245035532 0  0.3032914287999163 0.7872981443735918 0  0.3549464687598876 0.8870324161721976 0  0.9691791685505482 0.5159450047798622 0  0.9447564590470373 0.6146164845729313 0  0.7687603548175107 0.7176858127488035 0  0.8926159261971183 0.7422924070424508 0  0.2061587782631535 0.2217389244366831 0  0.2021731605082994 0.2304662099646423 0  0.1958902278109265 0.2377171008267789 0  0.1878189860121365 0.2429041729681512 0  0.1786133191209442 0.2456072006525708 0  0.1690190155206647 0.2456072006525708 0  0.1598133486294724 0.2429041729681512 0  0.1517421068306824 0.2377171008267789 0  0.1454591741333096 0.2304662099646422 0  0.1414735563784554 0.221738924436683 0  0.1401081446132369 0.212242277013211 0  0.1414735563784555 0.202745629589739 0  0.1454591741333096 0.1940183440617798 0  0.1517421068306825 0.1867674531996431 0  0.1598133486294725 0.1815803810582709 0  0.1690190155206649 0.1788773533738513 0  0.1786133191209443 0.1788773533738514 0  0.1878189860121367 0.181580381058271 0  0.1958902278109266 0.1867674531996433 0  0.2021731605082994 0.19401834406178 0  0.2061587782631535 0.2027456295897391 0  0.03333333333333333 0 0  0.06666666666666667 0 0  0.1 0 0  0.1333333333333333 0 0  0.1666666666666667 0 0  0.2 0 0  0.2333333333333333 0 0  0.2666666666666667 0 0  0.3 0 0  0.3333333333333333 0 0  0.3666666666666666 0 0  0.4 0 0  0.4333333333333333 0 0  0.4666666666666667 0 0  0.5 0 0  0.5333333333333333 0 0  0.5666666666666667 0 0  0.6 0 0  0.6333333333333333 0 0  0.6666666666666666 0 0  0.7 0 0  0.7333333333333333 0 0  0.7666666666666667 0 0  0.8 0 0  0.8333333333333334 0 0  0.8666666666666667 0 0  0.9 0 0  0.9333333333333333 0 0  0.9666666666666667 0 0  0 0.9666666666666667 0  0 0.9333333333333333 0  0 0.9 0  0 0.8666666666666667 0  0 0.8333333333333334 0  0 0.8 0  0 0.7666666666666666 0  0 0.7333333333333334 0  0 0.7 0  0 0.6666666666666667 0  0 0.6333333333333333 0  0 0.6 0  0 0.5666666666666667 0  0 0.5333333333333333 0  0 0.5 0  0 0.4666666666666667 0  0 0.4333333333333333 0  0 0.4 0  0 0.3666666666666667 0  0 0.3333333333333334 0  0 0.3 0  0 0.2666666666666667 0  0 0.2333333333333333 0  0 0.2 0  0 0.1666666666666666 0  0 0.1333333333333333 0  0 0.09999999999999998 0  0 0.06666666666666665 0  0 0.03333333333333333 0  1 0.03333333333333333 0  1 0.06666666666666667 0  1 0.1 0  1 0.1333333333333333 0  1 0.1666666666666667 0  1 0.2 0  1 0.2333333333333333 0  1 0.2666666666666667 0  1 0.3 0  1 0.3333333333333333 0  1 0.3666666666666666 0  1 0.4 0  1 0.4333333333333333 0  1 0.4666666666666667 0  1 0.5 0  1 0.5333333333333333 0  1 0.5666666666666667 0  1 0.6 0  1 0.6333333333333333 0  1 0.6666666666666666 0  1 0.7 0  1 0.7333333333333333 0  1 0.7666666666666667 0  1 0.8 0  1 0.8333333333333334 0  1 0.8666666666666667 0  1 0.9 0  1 0.9333333333333333 0  1 0.9666666666666667 0  0.9666666666666667 1 0  0.9333333333333333 1 0  0.9 1 0  0.8666666666666667 1 0  0.8333333333333334 1 0  0.8 1 0  0.7666666666666666 1 0  0.7333333333333334 1 0  0.7 1 0  0.6666666666666667 1 0  0.6333333333333333 1 0  0.6 1 0  0.5666666666666667 1 0  0.5333333333333333 1 0  0.5 1 0  0.4666666666666667 1 0  0.4333333333333333 1 0  0.4 1 0  0.3666666666666667 1 0  0.3333333333333334 1 0  0.3 1 0  0.2666666666666667 1 0  0.2333333333333333 1 0  0.2 1 0  0.1666666666666666 1 0  0.1333333333333333 1 0  0.09999999999999998 1 0  0.06666666666666665 1 0  0.03333333333333333 1 0  0.6247072676344306 0.2689501343248463 0  0.6239274716502419 0.2788583817523955 0  0.6226301867455355 0.2887122389026952 0  0.6208189686880621 0.2984846970382296 0  0.6184987819006211 0.3081489705305245 0  0.6156759858539226 0.317678570277693 0  0.6123583176357204 0.3270473763092224 0  0.6085548707439923 0.3362297093789981 0  0.6042760701622942 0.3452004013503318 0  0.5995336437856049 0.3539348641800754 0  0.5943405902749808 0.3624091573127375 0  0.5887111434291297 0.3706000532998825 0  0.582660733170558 0.3784851014649517 0  0.5762059432532257 0.3860426894390078 0  0.5693644658076293 0.3932521023987353 0  0.5621550528479018 0.4000935798443317 0  0.5545974648738458 0.4065483697616639 0  0.5467124167087765 0.4125987800202355 0  0.5385215207216315 0.4182282268660866 0  0.5300472275889694 0.4234212803767108 0  0.5213127647592257 0.4281637067534002 0  0.512342072787892 0.4324425073350981 0  0.5031597397181163 0.4362459542268262 0  0.493790933686587 0.4395636224450283 0  0.4842613339394185 0.4423864184917269 0  0.4745970604471235 0.4447066052791678 0  0.4648246023115891 0.4465178233366412 0  0.4549707451612894 0.4478151082413475 0  0.4450624977337403 0.4485949042255363 0  0.4351270178464268 0.4488550739226177 0  0.4251915379591132 0.4485949042255363 0  0.4152832905315641 0.4478151082413475 0  0.4054294333812644 0.4465178233366411 0  0.39565697524573 0.4447066052791677 0  0.385992701753435 0.4423864184917267 0  0.3764631020062665 0.4395636224450281 0  0.3670942959747371 0.4362459542268259 0  0.3579119629049616 0.4324425073350978 0  0.3489412709336278 0.4281637067533998 0  0.3402068081038843 0.4234212803767103 0  0.3317325149712221 0.4182282268660862 0  0.3235416189840771 0.412598780020235 0  0.3156565708190078 0.4065483697616634 0  0.3080989828449519 0.4000935798443311 0  0.3008895698852244 0.3932521023987346 0  0.2940480924396279 0.3860426894390071 0  0.2875933025222958 0.3784851014649511 0  0.2815428922637242 0.3706000532998818 0  0.2759134454178731 0.3624091573127368 0  0.2707203919072489 0.3539348641800746 0  0.2659779655305596 0.3452004013503309 0  0.2616991649488616 0.3362297093789972 0  0.2578957180571336 0.3270473763092215 0  0.2545780498389315 0.3176785702776921 0  0.251755253792233 0.3081489705305236 0  0.249435067004792 0.2984846970382286 0  0.2476238489473186 0.2887122389026941 0  0.2463265640426123 0.2788583817523945 0  0.2455467680584236 0.2689501343248454 0  0.2452865983613423 0.2590146544375318 0  0.2455467680584237 0.2490791745502182 0  0.2463265640426126 0.2391709271226692 0  0.247623848947319 0.2293170699723696 0  0.2494350670047924 0.2195446118368351 0  0.2517552537922335 0.2098803383445402 0  0.2545780498389321 0.2003507385973717 0  0.2578957180571343 0.1909819325658423 0  0.2616991649488624 0.1817995994960667 0  0.2659779655305604 0.172828907524733 0  0.2707203919072498 0.1640944446949895 0  0.2759134454178741 0.1556201515623273 0  0.2815428922637251 0.1474292555751825 0  0.2875933025222969 0.1395442074101132 0  0.2940480924396291 0.1319866194360571 0  0.3008895698852256 0.1247772064763297 0  0.3080989828449531 0.1179357290307334 0  0.3156565708190092 0.1114809391134012 0  0.3235416189840785 0.1054305288548295 0  0.3317325149712236 0.09980108200897844 0  0.3402068081038856 0.0946080284983544 0  0.3489412709336291 0.08986560212166514 0  0.357911962904963 0.08558680153996717 0  0.3670942959747386 0.08178335464823916 0  0.3764631020062678 0.07846568643003712 0  0.3859927017534364 0.0756428903833386 0  0.3956569752457313 0.0733227035958976 0  0.4054294333812659 0.07151148553842429 0  0.4152832905315654 0.07021420063371797 0  0.4251915379591144 0.0694344046495293 0  0.435127017846428 0.0691742349524479 0  0.4450624977337415 0.06943440464952938 0  0.4549707451612905 0.07021420063371814 0  0.4648246023115901 0.07151148553842454 0  0.4745970604471245 0.07332270359589793 0  0.4842613339394195 0.07564289038333902 0  0.4937909336865879 0.07846568643003757 0  0.5031597397181173 0.0817833546482398 0  0.5123420727878929 0.08558680153996781 0  0.5213127647592265 0.08986560212166581 0  0.53004722758897 0.0946080284983552 0  0.5385215207216321 0.09980108200897933 0  0.5467124167087771 0.1054305288548305 0  0.5545974648738462 0.1114809391134021 0  0.5621550528479023 0.1179357290307343 0  0.5693644658076298 0.1247772064763308 0  0.576205943253226 0.1319866194360582 0  0.5826607331705582 0.1395442074101142 0  0.5887111434291299 0.1474292555751835 0  0.594340590274981 0.1556201515623285 0  0.5995336437856051 0.1640944446949906 0  0.6042760701622945 0.172828907524734 0  0.6085548707439925 0.1817995994960678 0  0.6123583176357205 0.1909819325658435 0  0.6156759858539227 0.2003507385973728 0  0.6184987819006211 0.2098803383445412 0  0.6208189686880622 0.2195446118368362 0  0.6226301867455355 0.2293170699723706 0  0.6239274716502419 0.2391709271226702 0  0.6247072676344306 0.2490791745502192 0  0.203885768735257 0.3325402459548524 0  0.2015714905276826 0.3421799084407872 0  0.1977777294810124 0.3513388578120612 0  0.1925979005829864 0.3597915703383434 0  0.1861595484119405 0.3673299121842922 0  0.1786212065659918 0.373768264355338 0  0.1701684940397096 0.378948093253364 0  0.1610095446684356 0.3827418543000342 0  0.1513698821825007 0.3850561325076086 0  0.1414868670645144 0.3858339426659677 0  0.1316038519465281 0.3850561325076086 0  0.1219641894605933 0.3827418543000343 0  0.1128052400893193 0.378948093253364 0  0.1043525275630371 0.3737682643553381 0  0.09681418571708833 0.3673299121842922 0  0.09037583354604248 0.3597915703383434 0  0.08519600464801645 0.3513388578120612 0  0.08140224360134621 0.3421799084407872 0  0.07908796539377183 0.3325402459548523 0  0.07831015523541281 0.3226572308368659 0  0.07908796539377186 0.3127742157188796 0  0.08140224360134626 0.3031345532329447 0  0.08519600464801655 0.2939756038616707 0  0.0903758335460426 0.2855228913353884 0  0.0968141857
[...]
<PointData  Tensors="$\sigma$"> 
<DataArray  type="Float64"  Name="$\sigma$"  NumberOfComponents="9" format="ascii">3.7692354705280405e+02 -2.1333677883499500e+00 0.0000000000000000e+00 -2.1333677883500410e+00 1.3259678957771866e+04 0.0000000000000000e+00 0.0000000000000000e+00 0.0000000000000000e+00 0.0000000000000000e+00  1.5457543352725399e+03 1.1123747776131950e+02 0.0000000000000000e+00 1.1123747776131968e+02 6.4523115994338514e+03 0.0000000000000000e+00 0.0000000000000000e+00 0.0000000000000000e+00 0.0000000000000000e+00  -3.4565689399713285e+01 -2.8655619188053009e+01 0.0000000000000000e+00 -2.8655619188053013e+01 6.6226982941860624e+03 0.0000000000000000e+00 0.0000000000000000e+00 0.0000000000000000e+00 0.0000000000000000e+00  8.4948779059126966e+00 -5.6819947735469967e+00 0.0000000000000000e+00 -5.6819947735470384e+00 6.8982394551790403e+03 0.0000000000000000e+00 0.0000000000000000e+00 0.0000000000000000e+00 0.0000000000000000e+00  8.7804428777431092e+00 1.3903584242123207e+01 0.0000000000000000e+00 1.3903584242123237e+01 5.9180338592807930e+03 0.0000000000000000e+00 0.0000000000000000e+00 0.0000000000000000e+00 0.0000000000000000e+00  4.1270796812260926e+02 -2.0323549241970130e+02 0.0000000000000000e+00 -2.0323549241970071e+02 1.2232498213437084e+04 0.0000000000000000e+00 0.0000000000000000e+00 0.0000000000000000e+00 0.0000000000000000e+00  -8.8500969324108198e+01 3.7806492464408035e+02 0.0000000000000000e+00 3.7806492464408080e+02 -2.0546903288567570e+01 0.0000000000000000e+00 0.0000000000000000e+00 0.0000000000000000e+00 0.0000000000000000e+00  8.2903090085590611e+02 2.9343317608265511e+02 0.0000000000000000e+00 2.9343317608265608e+02 1.3834589979896595e+04 0.0000000000000000e+00 0.0000000000000000e+00 0.0000000000000000e+00 0.0000000000000000e+00  1.3564905104089794e+02 -1.4071745191483043e+02 0.0000000000000000e+00 -1.4071745191483251e+02 1.2922315360075190e+04 0.0000000000000000e+00 0.0000000000000000e+00 0.0000000000000000e+00 0.0000000000000000e+00  -4.5640708198186564e+02 1.9411674656695945e+02 0.0000000000000000e+00 1.9411674656695936e+02 -5.3163292531592106e+02 0.0000000000000000e+00 0.0000000000000000e+00 0.0000000000000000e+00 0.0000000000000000e+00  -2.3049234101122433e+01 -9.6745150214975098e+01 0.0000000000000000e+00 -9.6745150214975396e+01 -8.7773416547581132e+02 0.0000000000000000e+00 0.0000000000000000e+00 0.0000000000000000e+00 0.0000000000000000e+00  1.9427843184465502e+02 5.4368268237848599e+02 0.0000000000000000e+00 5.4368268237848667e+02 7.7091309071379874e+03 0.0000000000000000e+00 0.0000000000000000e+00 0.0000000000000000e+00 0.0000000000000000e+00  -1.3795018801917553e+02 -2.7007397513638061e+01 0.0000000000000000e+00 -2.7007397513638413e+01 1.1359395789627704e+04 0.0000000000000000e+00 0.0000000000000000e+00 0.0000000000000000e+00 0.0000000000000000e+00  3.3359481661813459e+02 6.6630950646282344e+01 0.0000000000000000e+00 6.6630950646282514e+01 1.2183949133074542e+04 0.0000000000000000e+00 0.0000000000000000e+00 0.0000000000000000e+00 0.0000000000000000e+00  -1.3979807407532357e+02 -2.5577851241546659e+02 0.0000000000000000e+00 -2.5577851241546497e+02 -1.6736360589191229e+03 0.0000000000000000e+00 0.0000000000000000e+00 0.0000000000000000e+00 0.0000000000000000e+00  -4.8306716715427211e+02 -2.6991874837682548e+02 0.0000000000000000e+00 -2.6991874837682508e+02 -2.4767000156477952e+03 0.0000000000000000e+00 0.0000000000000000e+00 0.0000000000000000e+00 0.0000000000000000e+00  7.1623700611251753e+00 -1.2778006628335875e+02 0.0000000000000000e+00 -1.2778006628336053e+02 8.1699028912473404e+03 0.0000000000000000e+00 0.0000000000000000e+00 0.0000000000000000e+00 0.0000000000000000e+00  1.3511383552391254e+02 1.2577385624440106e+02 0.0000000000000000e+00 1.2577385624440161e+02 1.0940475440714565e+04 0.0000000000000000e+00 0.0000000000000000e+00 0.0000000000000000e+00 0.0000000000000000e+00  6.5330232053803738e+03 8.6078692653405653e+02 0.0000000000000000e+00 8.6078692653405744e+02 1.8904392479548165e+04 0.0000000000000000e+00 0.0000000000000000e+00 0.0000000000000000e+00 0.0000000000000000e+00  1.0166532058827931e+03 2.9617922864305683e+02 0.0000000000000000e+00 2.9617922864305660e+02 1.2557504751346214e+04 0.0000000000000000e+00 0.0000000000000000e+00 0.0000000000000000e+00 0.0000000000000000e+00  4.5224540513495306e+01 1.9296977278151803e+02 0.0000000000000000e+00 1.9296977278151670e+02 1.0691588177796039e+04 0.0000000000000000e+00 0.0000000000000000e+00 0.0000000000000000e+00 0.0000000000000000e+00  1.0180137290394813e+02 6.8010828530627165e+01 0.0000000000000000e+00 6.8010828530626611e+01 4.6938954983462818e+03 0.0000000000000000e+00 0.0000000000000000e+00 0.0000000000000000e+00 0.0000000000000000e+00  6.7277758623152170e+02 -1.9799138014616512e+03 0.0000000000000000e+00 -1.9799138014616499e+03 8.5756433146452200e+03 0.0000000000000000e+00 0.0000000000000000e+00 0.0000000000000000e+00 0.0000000000000000e+00  -2.4372149458080548e+02 -6.7741325322678415e+02 0.0000000000000000e+00 -6.7741325322678472e+02 2.3040904966221028e+03 0.0000000000000000e+00 0.0000000000000000e+00 0.0000000000000000e+00 0.0000000000000000e+00  -2.4171873042279994e+03 1.5439291527722942e+03 0.0000000000000000e+00 1.5439291527722987e+03 -1.0622702489763790e+03 0.0000000000000000e+00 0.0000000000000000e+00 0.0000000000000000e+00 0.0000000000000000e+00  -5.5879708635555071e+03 1.9948728751192580e+03 0.0000000000000000e+00 1.9948728751192637e+03 -1.0420792716774386e+03 0.0000000000000000e+00 0.0000000000000000e+00 0.0000000000000000e+00 0.0000000000000000e+00  -4.4315271864052120e+03 1.0491540255792206e+03 0.0000000000000000e+00 1.0491540255792170e+03 -6.9955432298076380e+02 0.0000000000000000e+00 0.0000000000000000e+00 0.0000000000000000e+00 0.0000000000000000e+00  1.5011410256038662e+03 2.7938756445048371e+03 0.0000000000000000e+00 2.7938756445048384e+03 1.7092127170927743e+03 0.0000000000000000e+00 0.0000000000000000e+00 0.0000000000000000e+00 0.0000000000000000e+00  9.0449627686397544e+03 5.6126871084996856e+03 0.0000000000000000e+00 5.6126871084996828e+03 3.2081550543429207e+03 0.0000000000000000e+00 0.0000000000000000e+00 0.0000000000000000e+00 0.0000000000000000e+00  8.7720617151026381e+03 6.3864805579461326e+03 0.0000000000000000e+00 6.3864805579461390e+03 6.7787483266967647e+03 0.0000000000000000e+00 0.0000000000000000e+00 0.0000000000000000e+00 0.0000000000000000e+00  3.8767611579990858e+03 5.5299221079528270e+03 0.0000000000000000e+00 5.5299221079528306e+03 7.6684099393124852e+03 0.0000000000000000e+00 0.0000000000000000e+00 0.0000000000000000e+00 0.0000000000000000e+00  1.3831871189211638e+03 2.3818863528150150e+03 0.0000000000000000e+00 2.3818863528150132e+03 6.2844090414099710e+03 0.0000000000000000e+00 0.0000000000000000e+00 0.0000000000000000e+00 0.0000000000000000e+00  3.3945875654249356e+01 3.8824747525955564e+02 0.0000000000000000e+00 3.8824747525955604e+02 5.1409666359058419e+03 0.0000000000000000e+00 0.0000000000000000e+00 0.0000000000000000e+00 0.0000000000000000e+00  1.8379675690841898e+02 -3.3189116372936621e+02 0.0000000000000000e+00 -3.3189116372936633e+02 2.1656990841697639e+03 0.0000000000000000e+00 0.0000000000000000e+00 0.0000000000000000e+00 0.0000000000000000e+00  -3.8009402970396746e+02 3.6414922360874272e+02 0.0000000000000000e+00 3.6414922360874209e+02 -1.2042422876774779e+02 0.0000000000000000e+00 0.0000000000000000e+00 0.0000000000000000e+00 0.0000000000000000e+00  -1.8615615655104848e+03 1.4201970240617545e+03 0.0000000000000000e+00 1.4201970240617570e+03 -1.1284395630658985e+03 0.0000000000000000e+00 0.0000000000000000e+00 0.0000000000000000e+00 0.0000000000000000e+00  -3.4853980823239403e+03 1.4391025340439196e+03 0.0000000000000000e+00 1.4391025340439173e+03 -9.0508900647142946e+02 0.0000000000000000e+00 0.0000000000000000e+00 0.0000000000000000e+00 0.0000000000000000e+00  -3.5318268102122311e+03 7.2534134544018161e+02 0.0000000000000000e+00 7.2534134544018139e+02 -4.3780551891432088e+02 0.0000000000000000e+00 0.0000000000000000e+00 0.0000000000000000e+00 0.0000000000000000e+00  -1.6084724212577050e+03 -1.6841535478517853e+00 0.0000000000000000e+00 -1.6841535478534788e+00 1.0634562289448702e+02 0.0000000000000000e+00 0.0000000000000000e+00 0.0000000000000000e+00 0.0000000000000000e+00  1.7859154473304516e+03 1.2012883855374305e+03 0.0000000000000000e+00 1.2012883855374321e+03 6.4785960170068211e+02 0.0000000000000000e+00 0.0000000000000000e+00 0.0000000000000000e+00 0.0000000000000000e+00  3.6288639653588561e+03 3.1680873524621497e+03 0.0000000000000000e+00 3.1680873524621484e+03 3.5511347276555675e+03 0.0000000000000000e+00 0.0000000000000000e+00 0.0000000000000000e+00 0.0000000000000000e+00  3.0311408022643541e+03 4.8838845668053791e+03 0.0000000000000000e+00 4.8838845668053891e+03 8.1005159638399491e+03 0.0000000000000000e+00 0.0000000000000000e+00 0.0000000000000000e+00 0.0000000000000000e+00  1.8178555013204730e+03 3.1411839404724087e+03 0.0000000000000000e+00 3.1411839404724110e+03 1.2351208216492285e+04 0.0000000000000000e+00 0.0000000000000000e+00 0.0000000000000000e+00 0.0000000000000000e+00  5.0573476250789867e+02 -3.8705359820034914e+02 0.0000000000000000e+00 -3.8705359820034965e+02 5.4087096984384543e+03 0.0000000000000000e+00 0.0000000000000000e+00 0.0000000000000000e+00 0.0000000000000000e+00  -1.0170198018405439e+02 6.8165311224596167e+01 0.0000000000000000e+00 6.8165311224596095e+01 4.7268257651692247e+03 0.0000000000000000e+00 0.0000000000000000e+00 0.0000000000000000e+00 0.0000000000000000e+00  3.2473279691096644e+02 -1.7026771413588595e+01 0.0000000000000000e+00 -1.7026771413588591e+01 3.5999065245449947e+03 0.0000000000000000e+00 0.0000000000000000e+00 0.0000000000000000e+00 0.0000000000000000e+00  -5.5347736903586899e+01 5.7521140542405007e+01 0.0000000000000000e+00 5.7521140542404957e+01 3.0178101803095296e+03 0.0000000000000000e+00 0.0000000000000000e+00 0.0000000000000000e+00 0.0000000000000000e+00  7.6919187088396811e+01 4.3333931555712603e+01 0.0000000000000000e+00 4.3333931555712525e+01 2.3883793485039446e+03 0.0000000000000000e+00 0.0000000000000000e+00 0.0000000000000000e+00 0.0000000000000000e+00  -1.3779343358233569e+02 3.3151575679285116e+01 0.0000000000000000e+00 3.3151575679285102e+01 1.8218102577828718e+03 0.0000000000000000e+00 0.0000000000000000e+00 0.0000000000000000e+00 0.0000000000000000e+00  -1.8885076157962700e+02 1.1881825133032375e+01 0.0000000000000000e+00 1.1881825133032423e+01 1.3267900855892451e+03 0.0000000000000000e+00 0.0000000000000000e+00 0.0000000000000000e+00 0.0000000000000000e+00  -3.0750305028782537e+02 9.0251842288180537e+00 0.0000000000000000e+00 9.0251842288180537e+00 8.2609274061316148e+02 0.0000000000000000e+00 0.0000000000000000e+00 0.0000000000000000e+00 0.0000000000000000e+00  -3.1466230685854259e+02 1.1295178366741336e+01 0.0000000000000000e+00 1.1295178366741339e+01 3.2899882236011018e+02 0.0000000000000000e+00 0.0000000000000000e+00 0.0000000000000000e+00 0.0000000000000000e+00  -3.6837272720550965e+02 1.7976247761294673e+01 0.0000000000000000e+00 1.7976247761294601e+01 -6.0896717105635588e+01 0.0000000000000000e+00 0.0000000000000000e+00 0.0000000000000000e+00 0.0000000000000000e+00  -4.7888151159246326e+02 1.5067353682826052e+01 0.0000000000000000e+00 1.5067353682826012e+01 -2.2179887336649199e+02 0.0000000000000000e+00 0.0000000000000000e+00 0.0000000000000000e+00 0.0000000000000000e+00  -5.6968045827958429e+02 -6.1182797882790109e-02 0.0000000000000000e+00 -6.1182797882781748e-02 -2.2539782034576612e+02 0.0000000000000000e+00 0.0000000000000000e+00 0.0000000000000000e+00 0.0000000000000000e+00  -6.4109019786419935e+02 4.7912834012326604e+00 0.0000000000000000e+00 4.7912834012326257e+00 -1.2215719837464134e+02 0.0000000000000000e+00 0.0000000000000000e+00 0.0000000000000000e+00 0.0000000000000000e+00  -6.9222506892392357e+02 -9.6731447381892597e+00 0.0000000000000000e+00 -9.6731447381892348e+00 9.0976873967860598e+01 0.0000000000000000e+00 0.0000000000000000e+00 0.0000000000000000e+00 0.0000000000000000e+00  -8.3424464701739691e+02 7.4240605981177712e+00 0.0000000000000000e+00 7.4240605981176619e+00 5.6249685271739338e+02 0.0000000000000000e+00 0.0000000000000000e+00 0.0000000000000000e+00 0.0000000000000000e+00  -1.2130574662448366e+03 2.6954650961175638e+01 0.0000000000000000e+00 2.6954650961175670e+01 1.2252597342270087e+03 0.0000000000000000e+00 0.0000000000000000e+00 0.0000000000000000e+00 0.0000000000000000e+00  -1.8062225056687489e+03 7.9843825297577951e+01 0.0000000000000000e+00 7.9843825297578292e+01 1.7940382195440413e+03 0.0000000000000000e+00 0.0000000000000000e+00 0.0000000000000000e+00 0.0000000000000000e+00  -2.0687624225874024e+03 -7.8935559341926421e+01 0.0000000000000000e+00 -7.8935559341926293e+01 1.1639817878045385e+03 0.0000000000000000e+00 0.0000000000000000e+00 0.0000000000000000e+00 0.0000000000000000e+00  -1.6140584075697450e+03 1.6087540638269950e+01 0.0000000000000000e+00 1.6087540638269914e+01 -2.3048521396400855e+02 0.0000000000000000e+00 0.0000000000000000e+00 0.0000000000000000e+00 0.0000000000000000e+00  -1.8188623465533813e+03 6.5081012398933481e+01 0.0000000000000000e+00 6.5081012398933495e+01 6.0859634257688742e+02 0.0000000000000000e+00 0.0000000000000000e+00 0.0000000000000000e+00 0.0000000000000000e+00  -1.5205362617029050e+03 -5.9087667485748028e+01 0.0000000000000000e+00 -5.9087667485747900e+01 1.4403370400801484e+03 0.0000000000000000e+00 0.0000000000000000e+00 0.0000000000000000e+00 0.0000000000000000e+00  -7.8891279124397533e+02 -6.1265533502683759e+01 0.0000000000000000e+00 -6.1265533502684015e+01 8.5132371732431750e+02 0.0000000000000000e+00 0.0000000000000000e+00 0.0000000000000000e+00 0.0000000000000000e+00  5.4025668778111307e+00 -3.4373871218176930e+01 0.0000000000000000e+00 -3.4373871218176497e+01 5.8933326909889138e+02 0.0000000000000000e+00 0.0000000000000000e+00 0.0000000000000000e+00 0.0000000000000000e+00  1.7586251349280093e+02 -1.8984380772630537e+01 0.0000000000000000e+00 -1.8984380772630580e+01 7.6739559256791244e+02 0.0000000000000000e+00 0.0000000000000000e+00 0.0000000000000000e+00 0.0000000000000000e+00  2.6178931633947411e+02 -1.8004034655260707e+01 0.0000000000000000e+00 -1.8004034655260639e+01 1.4559601814670725e+03 0.0000000000000000e+00 0.0000000000000000e+00 0.0000000000000000e+00 0.0000000000000000e+00  2.1031620159174764e+02 -3.2088310372689918e+01 0.0000000000000000e+00 -3.2088310372689918e+01 2.3292744016623765e+03 0.0000000000000000e+00 0.0000000000000000e+00 0.0000000000000000e+00 0.0000000000000000e+00  2.5374380969114833e+02 -3.1889235222840334e+01 0.0000000000000000e+00 -3.1889235222840330e+01 3.3846933164876259e+03 0.0000000000000000e+00 0.0000000000000000e+00 0.0000000000000000e+00 0.0000000000000000e+00  4.7030975679785129e+01 -2.0967421176416501e+01 0.0000000000000000e+00 -2.0967421176416632e+01 4.5606076172549965e+03 0.0000000000000000e+00 0.0000000000000000e+00 0.0000000000000000e+00 0.0000000000000000e+00  1.0139050550667086e+02 -3.3099210978284326e+01 0.0000000000000000e+00 -3.3099210978284411e+01 5.6203464007107123e+03 0.0000000000000000e+00 0.0000000000000000e+00 0.0000000000000000e+00 0.0000000000000000e+00  6.8856122411709055e+00 4.8149066867190427e+01 0.0000000000000000e+00 4.8149066867190449e+01 6.9465087225763309e+03 0.0000000000000000e+00 0.0000000000000000e+00 0.0000000000000000e+00 0.0000000000000000e+00  -1.3429863091342398e-01 1.9705772675376608e+01 0.0000000000000000e+00 1.9705772675376743e+01 7.1937457608605300e+03 0.0000000000000000e+00 0.0000000000000000e+00 0.0000000000000000e+00 0.0000000000000000e+00  -2.6248922465274864e+00 3.4237996162483171e+01 0.0000000000000000e+00 3.4237996162483512e+01 7.3304162988103244e+03 0.0000000000000000e+00 0.0000000000000000e+00 0.0000000000000000e+00 0.0000000000000000e+00  -1.6567166977499031e+01 1.6438075810326819e+01 0.0000000000000000e+00 1.6438075810326861e+01 7.5357823433764015e+03 0.0000000000000000e+00 0.0000000000000000e+00 0.0000000000000000e+00 0.0000000000000000e+00  2.9296754502850543e+01 7.3584562455387656e+00 0.0000000000000000e+00 7.3584562455386688e+00 7.8395142713624236e+03 0.0000000000000000e+00 0.0000000000000000e+00 0.0000000000000000e+00 0.0000000000000000e+00  -6.0392343462278708e+00 8.4583375609445326e+01 0.0000000000000000e+00 8.4583375609445014e+01 7.9666608331248017e+03 0.0000000000000000e+00 0.0000000000000000e+00 0.0000000000000000e+00 0.0000000000000000e+00  -5.3637346185564645e+01 9.3357594948532679e+01 0.0000000000000000e+00 9.3357594948532025e+01 8.6894901988783458e+03 0.0000000000000000e+00 0.0000000000000000e+00 0.0000000000000000e+00 0.0000000000000000e+00  -6.8674209317029797e+00 1.6190350454730412e+02 0.0000000000000000e+00 1.6190350454730446e+02 9.5616976389484680e+03 0.0000000000000000e+00 0.0000000000000000e+00 0.0000000000000000e+00 0.0000000000000000e+00  -1.0364247274980746e+01 9.1395650331912293e+01 0.0000000000000000e+00 9.1395650331912123e+01 1.0656926387495576e+04 0.0000000000000000e+00 0.0000000000000000e+00 0.0000000000000000e+00 0.0000000000000000e+00  -5.5544353372327684e+01 -2.8489777310818013e+01 0.0000000000000000e+00 -2.8489777310818226e+01 1.1073909087094147e+04 0.0000000000000000e+00 0.0000000000000000e+00 0.0000000000000000e+00 0.0000000000000000e+00  -3.5205805155135153e+01 -3.1758258354900488e+02 0.0000000000000000e+00 -3.1758258354900437e+02 1.0374908153298067e+04 0.0000000000000000e+00 0.0000000000000000e+00 0.0000000000000000e+00 0.0000000000000000e+00  -3.3938924647034685e+02 -8.8671427111819298e+02 0.0000000000000000e+00 -8.8671427111819219e+02 7.9205599236061153e+03 0.0000000000000000e+00 0.0000000000000000e+00 0.0000000000000000e+00 0.0000000000000000e+00  7.1367325729881634e+02 1.6805141829894791e+02 0.0000000000000000e+00 1.6805141829894811e+02 2.4175775773832161e+03 0.0000000000000000e+00 0.0000000000000000e+00 0.0000000000000000e+00 0.0000000000000000e+00  9.1611948486153585e+02 1.1336184302650202e+03 0.0000000000000000e+00 1.1336184302650186e+03 2.6845107100734799e+03 0.0000000000000000e+00 0.0000000000000000e+00 0.0000000000000000e+00 0.0000000000000000e+00  1.0355480173832265e+02 4.2336032976320899e+02 0.0000000000000000e+00 4.2336032976320928e+02 1.0261387680238342e+04 0.0000000000000000e+00 0.0000000000000000e+00 0.0000000000000000e+00 0.0000000000000000e+00  6.8119649755908927e+02 8.9319499469483759e+01 0.0000000000000000e+00 8.9319499469482821e+01 1.2782487330723623e+04 0.0000000000000000e+00 0.0000000000000000e+00 0.0000000000000000e+00 0.0000000000000000e+00  1.3094312607300642e+03 -7.9289784782934805e+02 0.0000000000000000e+00 -7.9289784782934896e+02 1.2987461685414719e+04 0.0000000000000000e+00 0.0000000000000000e+00 0.0000000000000000e+00 0.0000000000000000e+00  -1.0809511012935623e+03 -4.3511099509669970e+02 0.0000000000000000e+00 -4.3511099509670009e+02 8.6263033952673341e+03 0.0000000000000000e+00 0.0000000000000000e+00 0.0000000000000000e+00 0.0000000000000000e+00  -2.1510369172568670e+02 4.6233824971591281e+02 0.0000000000000000e+00 4.6233824971591309e+02 1.1285067978388548e+04 0.0000000000000000e+00 0.0000000000000000e+00 0.0000000000000000e+00 0.0000000000000000e+00  8.2065490917071955e+01 -3.0942920834468288e+02 0.0000000000000000e+00 -3.0942920834468305e+02 1.0535226322444256e+04 0.0000000000000000e+00 0.0000000000000000e+00 0.0000000000000000e+00 0.0000000000000000e+00  -1.1884539182017181e+02 -3.3990380543844918e+02 0.0000000000000000e+00 -3.3990380543844867e+02 7.9295612402068782e+03 0.0000000000000000e+00 0.0000000000000000e+00 0.0000000000000000e+00 0.0000000000000000e+00  9.0590355061076366e+01 -7.8249979848964122e+00 0.0000000000000000e+00 -7.8249979848967914e+00 7.2746999101691972e+03 0.0000000000000000e+00 0.0000000000000000e+00 0.0000000000000000e+00 0.0000000000000000e+00  -6.9821225578981085e+01 -2.9150485828413473e+01 0.0000000000000000e+00 -2.9150485828413366e+01 7.0031809888902308e+03 0.0000000000000000e+00 0.0000000000000000e+00 0.0000000000000000e+00 0.000000