<?xml version="1.0"?>
<VTKFile type="UnstructuredGrid"  version="0.1"  >
<UnstructuredGrid>
<Piece  NumberOfPoints="3879" NumberOfCells="6881">
<Points>
<DataArray  type="Float64"  NumberOfComponents="3"  format="ascii">0.207524190028372 0.2122422770132111 0  0 0 0  1 0 0  0 1 0  1 1 0  0.6249674373315121 0.2590146544375328 0  0.204663578893616 0.322657230836866 0  0.09605577522599912 0.4018360776629776 0  0.671351124618251 0.08738059142081528 0  0.7842102907526436 0.1666439122351055 0  0.8512483166984784 0.1985391006160637 0  0.6418797837909295 0.4423157172830166 0  0.9292488447973215 0.3869277868069776 0  0.3197896119137055 0.5509935221980964 0  0.3979283685568406 0.5079871620336583 0  0.1572503457993085 0.7345153245035532 0  0.3032914287999163 0.7872981443735918 0  0.3549464687598876 0.8870324161721976 0  0.9691791685505482 0.5159450047798622 0  0.9447564590470373 0.6146164845729313 0  0.7687603548175107 0.7176858127488035 0  0.8926159261971183 0.7422924070424508 0  0.2061587782631535 0.2217389244366831 0  0.2021731605082994 0.2304662099646423 0  0.1958902278109265 0.2377171008267789 0  0.1878189860121365 0.2429041729681512 0  0.1786133191209442 0.2456072006525708 0  0.1690190155206647 0.2456072006525708 0  0.1598133486294724 0.2429041729681512 0  0.1517421068306824 0.2377171008267789 0  0.1454591741333096 0.2304662099646422 0  0.1414735563784554 0.221738924436683 0  0.1401081446132369 0.212242277013211 0  0.1414735563784555 0.202745629589739 0  0.1454591741333096 0.1940183440617798 0  0.1517421068306825 0.1867674531996431 0  0.1598133486294725 0.1815803810582709 0  0.1690190155206649 0.1788773533738513 0  0.1786133191209443 0.1788773533738514 0  0.1878189860121367 0.181580381058271 0  0.1958902278109266 0.1867674531996433 0  0.2021731605082994 0.19401834406178 0  0.2061587782631535 0.2027456295897391 0  0.03333333333333333 0 0  0.06666666666666667 0 0  0.1 0 0  0.1333333333333333 0 0  0.1666666666666667 0 0  0.2 0 0  0.2333333333333333 0 0  0.2666666666666667 0 0  0.3 0 0  0.3333333333333333 0 0  0.3666666666666666 0 0  0.4 0 0  0.4333333333333333 0 0  0.4666666666666667 0 0  0.5 0 0  0.5333333333333333 0 0  0.5666666666666667 0 0  0.6 0 0  0.6333333333333333 0 0  0.6666666666666666 0 0  0.7 0 0  0.7333333333333333 0 0  0.7666666666666667 0 0  0.8 0 0  0.8333333333333334 0 0  0.8666666666666667 0 0  0.9 0 0  0.9333333333333333 0 0  0.9666666666666667 0 0  0 0.9666666666666667 0  0 0.9333333333333333 0  0 0.9 0  0 0.8666666666666667 0  0 0.8333333333333334 0  0 0.8 0  0 0.7666666666666666 0  0 0.7333333333333334 0  0 0.7 0  0 0.6666666666666667 0  0 0.6333333333333333 0  0 0.6 0  0 0.5666666666666667 0  0 0.5333333333333333 0  0 0.5 0  0 0.4666666666666667 0  0 0.4333333333333333 0  0 0.4 0  0 0.3666666666666667 0  0 0.3333333333333334 0  0 0.3 0  0 0.2666666666666667 0  0 0.2333333333333333 0  0 0.2 0  0 0.1666666666666666 0  0 0.1333333333333333 0  0 0.09999999999999998 0  0 0.06666666666666665 0  0 0.03333333333333333 0  1 0.03333333333333333 0  1 0.06666666666666667 0  1 0.1 0  1 0.1333333333333333 0  1 0.1666666666666667 0  1 0.2 0  1 0.2333333333333333 0  1 0.2666666666666667 0  1 0.3 0  1 0.3333333333333333 0  1 0.3666666666666666 0  1 0.4 0  1 0.4333333333333333 0  1 0.4666666666666667 0  1 0.5 0  1 0.5333333333333333 0  1 0.5666666666666667 0  1 0.6 0  1 0.6333333333333333 0  1 0.6666666666666666 0  1 0.7 0  1 0.7333333333333333 0  1 0.7666666666666667 0  1 0.8 0  1 0.8333333333333334 0  1 0.8666666666666667 0  1 0.9 0  1 0.9333333333333333 0  1 0.9666666666666667 0  0.9666666666666667 1 0  0.9333333333333333 1 0  0.9 1 0  0.8666666666666667 1 0  0.8333333333333334 1 0  0.8 1 0  0.7666666666666666 1 0  0.7333333333333334 1 0  0.7 1 0  0.6666666666666667 1 0  0.6333333333333333 1 0  0.6 1 0  0.5666666666666667 1 0  0.5333333333333333 1 0  0.5 1 0  0.4666666666666667 1 0  0.4333333333333333 1 0  0.4 1 0  0.3666666666666667 1 0  0.3333333333333334 1 0  0.3 1 0  0.2666666666666667 1 0  0.2333333333333333 1 0  0.2 1 0  0.1666666666666666 1 0  0.1333333333333333 1 0  0.09999999999999998 1 0  0.06666666666666665 1 0  0.03333333333333333 1 0  0.6247072676344306 0.2689501343248463 0  0.6239274716502419 0.2788583817523955 0  0.6226301867455355 0.2887122389026952 0  0.6208189686880621 0.2984846970382296 0  0.6184987819006211 0.3081489705305245 0  0.6156759858539226 0.317678570277693 0  0.6123583176357204 0.3270473763092224 0  0.6085548707439923 0.3362297093789981 0  0.6042760701622942 0.3452004013503318 0  0.5995336437856049 0.3539348641800754 0  0.5943405902749808 0.3624091573127375 0  0.5887111434291297 0.3706000532998825 0  0.582660733170558 0.3784851014649517 0  0.5762059432532257 0.3860426894390078 0  0.5693644658076293 0.3932521023987353 0  0.5621550528479018 0.4000935798443317 0  0.5545974648738458 0.4065483697616639 0  0.5467124167087765 0.4125987800202355 0  0.5385215207216315 0.4182282268660866 0  0.5300472275889694 0.4234212803767108 0  0.5213127647592257 0.4281637067534002 0  0.512342072787892 0.4324425073350981 0  0.5031597397181163 0.4362459542268262 0  0.493790933686587 0.4395636224450283 0  0.4842613339394185 0.4423864184917269 0  0.4745970604471235 0.4447066052791678 0  0.4648246023115891 0.4465178233366412 0  0.4549707451612894 0.4478151082413475 0  0.4450624977337403 0.4485949042255363 0  0.4351270178464268 0.4488550739226177 0  0.4251915379591132 0.4485949042255363 0  0.4152832905315641 0.4478151082413475 0  0.4054294333812644 0.4465178233366411 0  0.39565697524573 0.4447066052791677 0  0.385992701753435 0.4423864184917267 0  0.3764631020062665 0.4395636224450281 0  0.3670942959747371 0.4362459542268259 0  0.3579119629049616 0.4324425073350978 0  0.3489412709336278 0.4281637067533998 0  0.3402068081038843 0.4234212803767103 0  0.3317325149712221 0.4182282268660862 0  0.3235416189840771 0.412598780020235 0  0.3156565708190078 0.4065483697616634 0  0.3080989828449519 0.4000935798443311 0  0.3008895698852244 0.3932521023987346 0  0.2940480924396279 0.3860426894390071 0  0.2875933025222958 0.3784851014649511 0  0.2815428922637242 0.3706000532998818 0  0.2759134454178731 0.3624091573127368 0  0.2707203919072489 0.3539348641800746 0  0.2659779655305596 0.3452004013503309 0  0.2616991649488616 0.3362297093789972 0  0.2578957180571336 0.3270473763092215 0  0.2545780498389315 0.3176785702776921 0  0.251755253792233 0.3081489705305236 0  0.249435067004792 0.2984846970382286 0  0.2476238489473186 0.2887122389026941 0  0.2463265640426123 0.2788583817523945 0  0.2455467680584236 0.2689501343248454 0  0.2452865983613423 0.2590146544375318 0  0.2455467680584237 0.2490791745502182 0  0.2463265640426126 0.2391709271226692 0  0.247623848947319 0.2293170699723696 0  0.2494350670047924 0.2195446118368351 0  0.2517552537922335 0.2098803383445402 0  0.2545780498389321 0.2003507385973717 0  0.2578957180571343 0.1909819325658423 0  0.2616991649488624 0.1817995994960667 0  0.2659779655305604 0.172828907524733 0  0.2707203919072498 0.1640944446949895 0  0.2759134454178741 0.1556201515623273 0  0.2815428922637251 0.1474292555751825 0  0.2875933025222969 0.1395442074101132 0  0.2940480924396291 0.1319866194360571 0  0.3008895698852256 0.1247772064763297 0  0.3080989828449531 0.1179357290307334 0  0.3156565708190092 0.1114809391134012 0  0.3235416189840785 0.1054305288548295 0  0.3317325149712236 0.09980108200897844 0  0.3402068081038856 0.0946080284983544 0  0.3489412709336291 0.08986560212166514 0  0.357911962904963 0.08558680153996717 0  0.3670942959747386 0.08178335464823916 0  0.3764631020062678 0.07846568643003712 0  0.3859927017534364 0.0756428903833386 0  0.3956569752457313 0.0733227035958976 0  0.4054294333812659 0.07151148553842429 0  0.4152832905315654 0.07021420063371797 0  0.4251915379591144 0.0694344046495293 0  0.435127017846428 0.0691742349524479 0  0.4450624977337415 0.06943440464952938 0  0.4549707451612905 0.07021420063371814 0  0.4648246023115901 0.07151148553842454 0  0.4745970604471245 0.07332270359589793 0  0.4842613339394195 0.07564289038333902 0  0.4937909336865879 0.07846568643003757 0  0.5031597397181173 0.0817833546482398 0  0.5123420727878929 0.08558680153996781 0  0.5213127647592265 0.08986560212166581 0  0.53004722758897 0.0946080284983552 0  0.5385215207216321 0.09980108200897933 0  0.5467124167087771 0.1054305288548305 0  0.5545974648738462 0.1114809391134021 0  0.5621550528479023 0.1179357290307343 0  0.5693644658076298 0.1247772064763308 0  0.576205943253226 0.1319866194360582 0  0.5826607331705582 0.1395442074101142 0  0.5887111434291299 0.1474292555751835 0  0.594340590274981 0.1556201515623285 0  0.5995336437856051 0.1640944446949906 0  0.6042760701622945 0.172828907524734 0  0.6085548707439925 0.1817995994960678 0  0.6123583176357205 0.1909819325658435 0  0.6156759858539227 0.2003507385973728 0  0.6184987819006211 0.2098803383445412 0  0.6208189686880622 0.2195446118368362 0  0.6226301867455355 0.2293170699723706 0  0.6239274716502419 0.2391709271226702 0  0.6247072676344306 0.2490791745502192 0  0.203885768735257 0.3325402459548524 0  0.2015714905276826 0.3421799084407872 0  0.1977777294810124 0.3513388578120612 0  0.1925979005829864 0.3597915703383434 0  0.1861595484119405 0.3673299121842922 0  0.1786212065659918 0.373768264355338 0  0.1701684940397096 0.378948093253364 0  0.1610095446684356 0.3827418543000342 0  0.1513698821825007 0.3850561325076086 0  0.1414868670645144 0.3858339426659677 0  0.1316038519465281 0.3850561325076086 0  0.1219641894605933 0.3827418543000343 0  0.1128052400893193 0.378948093253364 0  0.1043525275630371 0.3737682643553381 0  0.09681418571708833 0.3673299121842922 0  0.09037583354604248 0.3597915703383434 0  0.08519600464801645 0.3513388578120612 0  0.08140224360134621 0.3421799084407872 0  0.07908796539377183 0.3325402459548523 0  0.07831015523541281 0.3226572308368659 0  0.07908796539377186 0.3127742157188796 0  0.08140224360134626 0.3031345532329447 0  0.08519600464801655 0.2939756038616707 0  0.0903758335460426 0.2855228913353884 0  0.0968141857
[...]
<PointData  Tensors="$\sigma$"> 
<DataArray  type="Float64"  Name="$\sigma$"  NumberOfComponents="9" format="ascii">5.3162451223480005e+01 3.7435694010042589e+01 0.0000000000000000e+00 3.7435694010042589e+01 1.6732686939639225e+03 0.0000000000000000e+00 0.0000000000000000e+00 0.0000000000000000e+00 0.0000000000000000e+00  2.1477790445239580e+02 3.1830062591182315e+01 0.0000000000000000e+00 3.1830062591182315e+01 8.5161457545476253e+02 0.0000000000000000e+00 0.0000000000000000e+00 0.0000000000000000e+00 0.0000000000000000e+00  4.7318831212021195e-01 -3.0961526753366302e+00 0.0000000000000000e+00 -3.0961526753366302e+00 9.0876315083125917e+02 0.0000000000000000e+00 0.0000000000000000e+00 0.0000000000000000e+00 0.0000000000000000e+00  5.6313318467107596e+00 -2.1851016246961872e+00 0.0000000000000000e+00 -2.1851016246961872e+00 8.7079537325238300e+02 0.0000000000000000e+00 0.0000000000000000e+00 0.0000000000000000e+00 0.0000000000000000e+00  4.1923742318346804e+00 2.4058387122005325e+00 0.0000000000000000e+00 2.4058387122005325e+00 8.3200325445336875e+02 0.0000000000000000e+00 0.0000000000000000e+00 0.0000000000000000e+00 0.0000000000000000e+00  3.0868251317902846e+01 2.6725230026772358e+01 0.0000000000000000e+00 2.6725230026772358e+01 1.6814225092138518e+03 0.0000000000000000e+00 0.0000000000000000e+00 0.0000000000000000e+00 0.0000000000000000e+00  -1.2610087728905411e+01 5.9070099334397661e+01 0.0000000000000000e+00 5.9070099334397661e+01 9.3059201607706910e+01 0.0000000000000000e+00 0.0000000000000000e+00 0.0000000000000000e+00 0.0000000000000000e+00  1.8294301503846322e+02 1.1173425216368959e+02 0.0000000000000000e+00 1.1173425216368959e+02 1.8135008905274201e+03 0.0000000000000000e+00 0.0000000000000000e+00 0.0000000000000000e+00 0.0000000000000000e+00  1.1028185603207025e+02 -1.2405913582044347e+02 0.0000000000000000e+00 -1.2405913582044347e+02 1.6581820149795262e+03 0.0000000000000000e+00 0.0000000000000000e+00 0.0000000000000000e+00 0.0000000000000000e+00  4.2785756254877052e+00 -1.4989326003546793e+01 0.0000000000000000e+00 -1.4989326003546793e+01 -5.3520697727656126e+00 0.0000000000000000e+00 0.0000000000000000e+00 0.0000000000000000e+00 0.0000000000000000e+00  -7.5152691490587648e-02 -8.4358648192858858e+00 0.0000000000000000e+00 -8.4358648192858858e+00 6.6991138289891943e+00 0.0000000000000000e+00 0.0000000000000000e+00 0.0000000000000000e+00 0.0000000000000000e+00  5.6108929336485978e+01 1.1361509777301940e+02 0.0000000000000000e+00 1.1361509777301940e+02 9.6110873851453061e+02 0.0000000000000000e+00 0.0000000000000000e+00 0.0000000000000000e+00 0.0000000000000000e+00  3.5776834937911959e+00 2.3914835580862288e+01 0.0000000000000000e+00 2.3914835580862288e+01 2.1835319322867740e+03 0.0000000000000000e+00 0.0000000000000000e+00 0.0000000000000000e+00 0.0000000000000000e+00  3.0909674876509698e+01 1.7577721220052084e+01 0.0000000000000000e+00 1.7577721220052084e+01 1.7422333377220452e+03 0.0000000000000000e+00 0.0000000000000000e+00 0.0000000000000000e+00 0.0000000000000000e+00  -1.0761392461032592e+01 -6.0810428897783652e+01 0.0000000000000000e+00 -6.0810428897783652e+01 -1.8805157134858788e+02 0.0000000000000000e+00 0.0000000000000000e+00 0.0000000000000000e+00 0.0000000000000000e+00  1.9213975885284404e+00 -4.3651575389306629e+01 0.0000000000000000e+00 -4.3651575389306643e+01 -1.1191518386977404e+00 0.0000000000000000e+00 0.0000000000000000e+00 0.0000000000000000e+00 0.0000000000000000e+00  1.9536649492966994e+01 -6.4257693455730760e+01 0.0000000000000000e+00 -6.4257693455730760e+01 1.1091508921673883e+03 0.0000000000000000e+00 0.0000000000000000e+00 0.0000000000000000e+00 0.0000000000000000e+00  6.2702140633146975e+01 4.5512023106206065e+01 0.0000000000000000e+00 4.5512023106206065e+01 1.3157357587469144e+03 0.0000000000000000e+00 0.0000000000000000e+00 0.0000000000000000e+00 0.0000000000000000e+00  4.4634841902133144e+02 3.5757669075757866e+02 0.0000000000000000e+00 3.5757669075757866e+02 3.8277536044545204e+03 0.0000000000000000e+00 0.0000000000000000e+00 0.0000000000000000e+00 0.0000000000000000e+00  7.5657983806217501e+01 -5.9831261101307028e+01 0.0000000000000000e+00 -5.9831261101307028e+01 2.0690623875812903e+03 0.0000000000000000e+00 0.0000000000000000e+00 0.0000000000000000e+00 0.0000000000000000e+00  1.7182871961620751e+01 4.0568288230619110e+01 0.0000000000000000e+00 4.0568288230619110e+01 1.2897038540706126e+03 0.0000000000000000e+00 0.0000000000000000e+00 0.0000000000000000e+00 0.0000000000000000e+00  4.3976623060424203e+01 -1.4426045693249989e+00 0.0000000000000000e+00 -1.4426045693249989e+00 7.1237812722110493e+02 0.0000000000000000e+00 0.0000000000000000e+00 0.0000000000000000e+00 0.0000000000000000e+00  6.0108935027980010e+01 -1.4902536965556999e+02 0.0000000000000000e+00 -1.4902536965556999e+02 1.0886302967524321e+03 0.0000000000000000e+00 0.0000000000000000e+00 0.0000000000000000e+00 0.0000000000000000e+00  -8.6601983273942011e+01 -3.5507106397331839e+01 0.0000000000000000e+00 -3.5507106397331839e+01 3.6412175903751137e+02 0.0000000000000000e+00 0.0000000000000000e+00 0.0000000000000000e+00 0.0000000000000000e+00  -3.8132183923423958e+02 2.0376566497605356e+02 0.0000000000000000e+00 2.0376566497605356e+02 -8.6570560322511454e+01 0.0000000000000000e+00 0.0000000000000000e+00 0.0000000000000000e+00 0.0000000000000000e+00  -5.7632627042174681e+02 2.0386263268270693e+02 0.0000000000000000e+00 2.0386263268270693e+02 -1.4392091140157879e+02 0.0000000000000000e+00 0.0000000000000000e+00 0.0000000000000000e+00 0.0000000000000000e+00  -4.7464436712988606e+02 1.8661397380020694e+02 0.0000000000000000e+00 1.8661397380020694e+02 -7.3818404140055378e+01 0.0000000000000000e+00 0.0000000000000000e+00 0.0000000000000000e+00 0.0000000000000000e+00  2.7270949225628488e+02 3.8321400697875902e+02 0.0000000000000000e+00 3.8321400697875902e+02 2.2915288783732828e+02 0.0000000000000000e+00 0.0000000000000000e+00 0.0000000000000000e+00 0.0000000000000000e+00  1.0017440485863960e+03 6.8214083724589443e+02 0.0000000000000000e+00 6.8214083724589443e+02 4.6128451096299131e+02 0.0000000000000000e+00 0.0000000000000000e+00 0.0000000000000000e+00 0.0000000000000000e+00  1.0536537524266130e+03 8.2848591542430313e+02 0.0000000000000000e+00 8.2848591542430313e+02 7.8508661592153874e+02 0.0000000000000000e+00 0.0000000000000000e+00 0.0000000000000000e+00 0.0000000000000000e+00  5.6432904420613227e+02 6.4901987306346302e+02 0.0000000000000000e+00 6.4901987306346302e+02 8.8811219053720356e+02 0.0000000000000000e+00 0.0000000000000000e+00 0.0000000000000000e+00 0.0000000000000000e+00  2.3606169573381996e+02 3.1071660367653908e+02 0.0000000000000000e+00 3.1071660367653908e+02 7.6255131939666023e+02 0.0000000000000000e+00 0.0000000000000000e+00 0.0000000000000000e+00 0.0000000000000000e+00  4.7468837579159796e+01 7.1527931514742050e+01 0.0000000000000000e+00 7.1527931514742050e+01 6.6514803175739348e+02 0.0000000000000000e+00 0.0000000000000000e+00 0.0000000000000000e+00 0.0000000000000000e+00  2.6002818747714883e+01 -3.7757289522467566e+01 0.0000000000000000e+00 -3.7757289522467566e+01 3.5782720050425957e+02 0.0000000000000000e+00 0.0000000000000000e+00 0.0000000000000000e+00 0.0000000000000000e+00  -3.8193440613957563e+01 2.1538828562649464e+01 0.0000000000000000e+00 2.1538828562649464e+01 7.2427917122778638e+01 0.0000000000000000e+00 0.0000000000000000e+00 0.0000000000000000e+00 0.0000000000000000e+00  -2.2712238960369677e+02 1.3509329584251481e+02 0.0000000000000000e+00 1.3509329584251481e+02 -8.0167420243955846e+01 0.0000000000000000e+00 0.0000000000000000e+00 0.0000000000000000e+00 0.0000000000000000e+00  -4.0000114951229875e+02 1.4154052190773749e+02 0.0000000000000000e+00 1.4154052190773749e+02 -8.8096949807291381e+01 0.0000000000000000e+00 0.0000000000000000e+00 0.0000000000000000e+00 0.0000000000000000e+00  -3.9970344139591663e+02 9.7190544525953655e+01 0.0000000000000000e+00 9.7190544525953655e+01 -6.9939481455259397e+01 0.0000000000000000e+00 0.0000000000000000e+00 0.0000000000000000e+00 0.0000000000000000e+00  -1.8377667328281905e+02 4.3581952855206879e+01 0.0000000000000000e+00 4.3581952855206879e+01 1.7114772746744723e+01 0.0000000000000000e+00 0.0000000000000000e+00 0.0000000000000000e+00 0.0000000000000000e+00  1.8770811992096159e+02 1.8382182119766648e+02 0.0000000000000000e+00 1.8382182119766648e+02 1.4339274368241570e+02 0.0000000000000000e+00 0.0000000000000000e+00 0.0000000000000000e+00 0.0000000000000000e+00  4.0092943770068337e+02 3.8829191152510657e+02 0.0000000000000000e+00 3.8829191152510657e+02 5.2780886907214540e+02 0.0000000000000000e+00 0.0000000000000000e+00 0.0000000000000000e+00 0.0000000000000000e+00  3.7285217708304259e+02 5.8373064379476307e+02 0.0000000000000000e+00 5.8373064379476307e+02 1.0957138349950164e+03 0.0000000000000000e+00 0.0000000000000000e+00 0.0000000000000000e+00 0.0000000000000000e+00  2.8031693582223943e+02 3.5155413973190940e+02 0.0000000000000000e+00 3.5155413973190940e+02 1.4994556230463093e+03 0.0000000000000000e+00 0.0000000000000000e+00 0.0000000000000000e+00 0.0000000000000000e+00  9.4121004213692558e+01 -3.8352355990150691e+01 0.0000000000000000e+00 -3.8352355990150691e+01 7.1209385028034478e+02 0.0000000000000000e+00 0.0000000000000000e+00 0.0000000000000000e+00 0.0000000000000000e+00  -2.0937336632700845e+01 1.1944369307359495e+00 0.0000000000000000e+00 1.1944369307359495e+00 6.1451789936917100e+02 0.0000000000000000e+00 0.0000000000000000e+00 0.0000000000000000e+00 0.0000000000000000e+00  2.9964279136506651e+01 4.8202970166275003e+00 0.0000000000000000e+00 4.8202970166275003e+00 4.8357414681185514e+02 0.0000000000000000e+00 0.0000000000000000e+00 0.0000000000000000e+00 0.0000000000000000e+00  7.6614048531128018e+00 5.5800767116730148e+00 0.0000000000000000e+00 5.5800767116730148e+00 4.1315696505992798e+02 0.0000000000000000e+00 0.0000000000000000e+00 0.0000000000000000e+00 0.0000000000000000e+00  1.0824014348480720e+01 8.7690265881892611e+00 0.0000000000000000e+00 8.7690265881892611e+00 3.2453720715859151e+02 0.0000000000000000e+00 0.0000000000000000e+00 0.0000000000000000e+00 0.0000000000000000e+00  -4.8760477244532625e+00 6.2026717940015228e+00 0.0000000000000000e+00 6.2026717940015228e+00 2.4495941089196256e+02 0.0000000000000000e+00 0.0000000000000000e+00 0.0000000000000000e+00 0.0000000000000000e+00  -1.2981800331370872e+01 3.4331428760695029e+00 0.0000000000000000e+00 3.4331428760695029e+00 1.7651040670859135e+02 0.0000000000000000e+00 0.0000000000000000e+00 0.0000000000000000e+00 0.0000000000000000e+00  -2.4217223540913647e+01 2.7202793306125481e+00 0.0000000000000000e+00 2.7202793306125481e+00 1.1502906491157047e+02 0.0000000000000000e+00 0.0000000000000000e+00 0.0000000000000000e+00 0.0000000000000000e+00  -2.4512490995750426e+01 3.1422866287391971e+00 0.0000000000000000e+00 3.1422866287391971e+00 4.9103763484567864e+01 0.0000000000000000e+00 0.0000000000000000e+00 0.0000000000000000e+00 0.0000000000000000e+00  -2.8888550897911752e+01 4.0555736434015728e+00 0.0000000000000000e+00 4.0555736434015728e+00 -5.3827933107700634e+00 0.0000000000000000e+00 0.0000000000000000e+00 0.0000000000000000e+00 0.0000000000000000e+00  -4.2210088332531100e+01 2.9959401028629298e+00 0.0000000000000000e+00 2.9959401028629298e+00 -2.4944618143326153e+01 0.0000000000000000e+00 0.0000000000000000e+00 0.0000000000000000e+00 0.0000000000000000e+00  -5.2536280170487920e+01 2.8824843991093574e-01 0.0000000000000000e+00 2.8824843991093574e-01 -2.5086399143086648e+01 0.0000000000000000e+00 0.0000000000000000e+00 0.0000000000000000e+00 0.0000000000000000e+00  -6.1879797507199449e+01 2.3188010750441909e-01 0.0000000000000000e+00 2.3188010750441918e-01 -1.2172939358750945e+01 0.0000000000000000e+00 0.0000000000000000e+00 0.0000000000000000e+00 0.0000000000000000e+00  -6.5580332050394034e+01 -9.2115783053558020e-01 0.0000000000000000e+00 -9.2115783053558020e-01 1.1423520928721970e+01 0.0000000000000000e+00 0.0000000000000000e+00 0.0000000000000000e+00 0.0000000000000000e+00  -8.5456760760888258e+01 2.3570148076507444e+00 0.0000000000000000e+00 2.3570148076507444e+00 6.8973299125091472e+01 0.0000000000000000e+00 0.0000000000000000e+00 0.0000000000000000e+00 0.0000000000000000e+00  -1.2255928384441940e+02 7.7656906456786032e+00 0.0000000000000000e+00 7.7656906456786032e+00 1.4487985706752548e+02 0.0000000000000000e+00 0.0000000000000000e+00 0.0000000000000000e+00 0.0000000000000000e+00  -1.9631502715440507e+02 1.1459043209052878e+01 0.0000000000000000e+00 1.1459043209052878e+01 2.0694261642292679e+02 0.0000000000000000e+00 0.0000000000000000e+00 0.0000000000000000e+00 0.0000000000000000e+00  -2.2100541098375257e+02 -8.9193221016919981e+00 0.0000000000000000e+00 -8.9193221016919981e+00 1.4071901547820607e+02 0.0000000000000000e+00 0.0000000000000000e+00 0.0000000000000000e+00 0.0000000000000000e+00  -1.6816834329861737e+02 -1.2354722857156186e+00 0.0000000000000000e+00 -1.2354722857156186e+00 -7.6537361778144479e+00 0.0000000000000000e+00 0.0000000000000000e+00 0.0000000000000000e+00 0.0000000000000000e+00  -1.9513670725940997e+02 7.1607506364075748e+00 0.0000000000000000e+00 7.1607506364075748e+00 9.5832518672190560e+01 0.0000000000000000e+00 0.0000000000000000e+00 0.0000000000000000e+00 0.0000000000000000e+00  -1.6026500058950754e+02 -8.4342154392718740e+00 0.0000000000000000e+00 -8.4342154392718740e+00 1.8569221423377894e+02 0.0000000000000000e+00 0.0000000000000000e+00 0.0000000000000000e+00 0.0000000000000000e+00  -6.9609011508862224e+01 -1.2679599841296378e+01 0.0000000000000000e+00 -1.2679599841296378e+01 1.1285805388700722e+02 0.0000000000000000e+00 0.0000000000000000e+00 0.0000000000000000e+00 0.0000000000000000e+00  2.1579347795764946e+01 -6.4776600407696083e+00 0.0000000000000000e+00 -6.4776600407696083e+00 8.3623259935853781e+01 0.0000000000000000e+00 0.0000000000000000e+00 0.0000000000000000e+00 0.0000000000000000e+00  4.1085471021510578e+01 -6.0915596831875094e+00 0.0000000000000000e+00 -6.0915596831875094e+00 1.2106461632336190e+02 0.0000000000000000e+00 0.0000000000000000e+00 0.0000000000000000e+00 0.0000000000000000e+00  4.5362220980518451e+01 -4.8989644130325880e+00 0.0000000000000000e+00 -4.8989644130325880e+00 2.1749223231869632e+02 0.0000000000000000e+00 0.0000000000000000e+00 0.0000000000000000e+00 0.0000000000000000e+00  3.7404828386336867e+01 -9.1147442081931249e+00 0.0000000000000000e+00 -9.1147442081931249e+00 3.4157151574932260e+02 0.0000000000000000e+00 0.0000000000000000e+00 0.0000000000000000e+00 0.0000000000000000e+00  3.4366154333879123e+01 -6.3329304991477784e+00 0.0000000000000000e+00 -6.3329304991477784e+00 4.8406620594666231e+02 0.0000000000000000e+00 0.0000000000000000e+00 0.0000000000000000e+00 0.0000000000000000e+00  1.0886941724577017e+01 -4.3421652105495472e+00 0.0000000000000000e+00 -4.3421652105495472e+00 6.4966365286471535e+02 0.0000000000000000e+00 0.0000000000000000e+00 0.0000000000000000e+00 0.0000000000000000e+00  1.3380544235399443e+01 -5.1597972052067060e+00 0.0000000000000000e+00 -5.1597972052067060e+00 7.7181854436448850e+02 0.0000000000000000e+00 0.0000000000000000e+00 0.0000000000000000e+00 0.0000000000000000e+00  -1.9841483208053987e+00 1.0199821137553471e+01 0.0000000000000000e+00 1.0199821137553471e+01 8.8820351894548321e+02 0.0000000000000000e+00 0.0000000000000000e+00 0.0000000000000000e+00 0.0000000000000000e+00  1.0798842771964723e-01 1.2882970644990126e+00 0.0000000000000000e+00 1.2882970644990126e+00 9.1109497487959561e+02 0.0000000000000000e+00 0.0000000000000000e+00 0.0000000000000000e+00 0.0000000000000000e+00  -1.1672928026333993e+00 9.5312157909628219e+00 0.0000000000000000e+00 9.5312157909628219e+00 9.3232416533404478e+02 0.0000000000000000e+00 0.0000000000000000e+00 0.0000000000000000e+00 0.0000000000000000e+00  -6.0240014849174217e-01 2.5003799564391791e+00 0.0000000000000000e+00 2.5003799564391791e+00 9.5771560636105232e+02 0.0000000000000000e+00 0.0000000000000000e+00 0.0000000000000000e+00 0.0000000000000000e+00  1.3428254580334570e-01 4.2152758842765454e+00 0.0000000000000000e+00 4.2152758842765472e+00 9.9058426509825279e+02 0.0000000000000000e+00 0.0000000000000000e+00 0.0000000000000000e+00 0.0000000000000000e+00  1.3837739539733158e+00 1.0189847936755109e+01 0.0000000000000000e+00 1.0189847936755109e+01 1.0032113654082710e+03 0.0000000000000000e+00 0.0000000000000000e+00 0.0000000000000000e+00 0.0000000000000000e+00  -5.0815855431931887e+00 1.7140147768375503e+01 0.0000000000000000e+00 1.7140147768375503e+01 1.0806848296181104e+03 0.0000000000000000e+00 0.0000000000000000e+00 0.0000000000000000e+00 0.0000000000000000e+00  -3.8674333094236496e-01 2.6419894926441078e+01 0.0000000000000000e+00 2.6419894926441078e+01 1.1736426932125999e+03 0.0000000000000000e+00 0.0000000000000000e+00 0.0000000000000000e+00 0.0000000000000000e+00  -1.0353604198767583e+01 1.2651699645169483e+01 0.0000000000000000e+00 1.2651699645169483e+01 1.2903081561997687e+03 0.0000000000000000e+00 0.0000000000000000e+00 0.0000000000000000e+00 0.0000000000000000e+00  -2.6531820412334003e+01 -2.2102137788107736e+01 0.0000000000000000e+00 -2.2102137788107736e+01 1.2664549760819234e+03 0.0000000000000000e+00 0.0000000000000000e+00 0.0000000000000000e+00 0.0000000000000000e+00  -2.4920344575371178e+01 -9.2521881195407104e+01 0.0000000000000000e+00 -9.2521881195407104e+01 1.0875414208844491e+03 0.0000000000000000e+00 0.0000000000000000e+00 0.0000000000000000e+00 0.0000000000000000e+00  -1.0751417268864485e+00 -9.9274769224671047e+01 0.0000000000000000e+00 -9.9274769224671047e+01 8.1590824062295133e+02 0.0000000000000000e+00 0.0000000000000000e+00 0.0000000000000000e+00 0.0000000000000000e+00  6.3779730305695161e+01 9.0982991164640659e+00 0.0000000000000000e+00 9.0982991164640659e+00 4.3623724118497069e+02 0.0000000000000000e+00 0.0000000000000000e+00 0.0000000000000000e+00 0.0000000000000000e+00  3.9316814849642277e+01 7.0511253689760267e+01 0.0000000000000000e+00 7.0511253689760267e+01 5.1293706092284833e+02 0.0000000000000000e+00 0.0000000000000000e+00 0.0000000000000000e+00 0.0000000000000000e+00  1.6007742008656198e+01 1.1120937581211548e+02 0.0000000000000000e+00 1.1120937581211548e+02 1.0045443206407307e+03 0.0000000000000000e+00 0.0000000000000000e+00 0.0000000000000000e+00 0.0000000000000000e+00  -1.3916741073075016e+01 8.5952237114625419e+01 0.0000000000000000e+00 8.5952237114625419e+01 1.4724673248431868e+03 0.0000000000000000e+00 0.0000000000000000e+00 0.0000000000000000e+00 0.0000000000000000e+00  -2.6197631466352949e+01 -8.6688360392996344e+01 0.0000000000000000e+00 -8.6688360392996344e+01 1.5820985401360456e+03 0.0000000000000000e+00 0.0000000000000000e+00 0.0000000000000000e+00 0.0000000000000000e+00  5.4949910092112468e+01 -2.6694435342431518e+01 0.0000000000000000e+00 -2.6694435342431518e+01 1.1785646930178966e+03 0.0000000000000000e+00 0.0000000000000000e+00 0.0000000000000000e+00 0.0000000000000000e+00  -4.2913426852398622e+01 5.2666070215879387e+01 0.0000000000000000e+00 5.2666070215879387e+01 1.3616859887634143e+03 0.0000000000000000e+00 0.0000000000000000e+00 0.0000000000000000e+00 0.0000000000000000e+00  -2.3600106553006079e+00 -4.3445225256445582e+01 0.0000000000000000e+00 -4.3445225256445582e+01 1.3023296122876886e+03 0.0000000000000000e+00 0.0000000000000000e+00 0.0000000000000000e+00 0.0000000000000000e+00  1.4926321784206888e+00 -5.2034246906982574e+01 0.0000000000000000e+00 -5.2034246906982574e+01 1.0280306495564578e+03 0.0000000000000000e+00 0.0000000000000000e+00 0.0000000000000000e+00 0.0000000000000000e+00  1.1832039746238575e+01 -6.3545132749390394e+00 0.0000000000000000e+00 -6.3545132749390394e+00 9.4558857160470961e+02 0.0000000000000000e+00 0.0000000000000000e+00 0.0000000000000000e+00 0.0000000000000000e+00  -3.1138287475429718e+00 1.9747757317210637e-01 0.0000000000000000e+00 1.9747757317210637e-01 9.2355936592917521e+02 0.0000000000000000e+00 0.0000000000000000e+00 0.0000000000000000e+00 0.0000000000000000e+00