<?xml version="1.0"?>
<VTKFile type="UnstructuredGrid"  version="0.1"  >
<UnstructuredGrid>
<Piece  NumberOfPoints="3879" NumberOfCells="6881">
<Points>
<DataArray  type="Float64"  NumberOfComponents="3"  format="ascii">0.207524190028372 0.2122422770132111 0  0 0 0  1 0 0  0 1 0  1 1 0  0.6249674373315121 0.2590146544375328 0  0.204663578893616 0.322657230836866 0  0.09605577522599912 0.4018360776629776 0  0.671351124618251 0.08738059142081528 0  0.7842102907526436 0.1666439122351055 0  0.8512483166984784 0.1985391006160637 0  0.6418797837909295 0.4423157172830166 0  0.9292488447973215 0.3869277868069776 0  0.3197896119137055 0.5509935221980964 0  0.3979283685568406 0.5079871620336583 0  0.1572503457993085 0.7345153245035532 0  0.3032914287999163 0.7872981443735918 0  0.3549464687598876 0.8870324161721976 0  0.9691791685505482 0.5159450047798622 0  0.9447564590470373 0.6146164845729313 0  0.7687603548175107 0.7176858127488035 0  0.8926159261971183 0.7422924070424508 0  0.2061587782631535 0.2217389244366831 0  0.2021731605082994 0.2304662099646423 0  0.1958902278109265 0.2377171008267789 0  0.1878189860121365 0.2429041729681512 0  0.1786133191209442 0.2456072006525708 0  0.1690190155206647 0.2456072006525708 0  0.1598133486294724 0.2429041729681512 0  0.1517421068306824 0.2377171008267789 0  0.1454591741333096 0.2304662099646422 0  0.1414735563784554 0.221738924436683 0  0.1401081446132369 0.212242277013211 0  0.1414735563784555 0.202745629589739 0  0.1454591741333096 0.1940183440617798 0  0.1517421068306825 0.1867674531996431 0  0.1598133486294725 0.1815803810582709 0  0.1690190155206649 0.1788773533738513 0  0.1786133191209443 0.1788773533738514 0  0.1878189860121367 0.181580381058271 0  0.1958902278109266 0.1867674531996433 0  0.2021731605082994 0.19401834406178 0  0.2061587782631535 0.2027456295897391 0  0.03333333333333333 0 0  0.06666666666666667 0 0  0.1 0 0  0.1333333333333333 0 0  0.1666666666666667 0 0  0.2 0 0  0.2333333333333333 0 0  0.2666666666666667 0 0  0.3 0 0  0.3333333333333333 0 0  0.3666666666666666 0 0  0.4 0 0  0.4333333333333333 0 0  0.4666666666666667 0 0  0.5 0 0  0.5333333333333333 0 0  0.5666666666666667 0 0  0.6 0 0  0.6333333333333333 0 0  0.6666666666666666 0 0  0.7 0 0  0.7333333333333333 0 0  0.7666666666666667 0 0  0.8 0 0  0.8333333333333334 0 0  0.8666666666666667 0 0  0.9 0 0  0.9333333333333333 0 0  0.9666666666666667 0 0  0 0.9666666666666667 0  0 0.9333333333333333 0  0 0.9 0  0 0.8666666666666667 0  0 0.8333333333333334 0  0 0.8 0  0 0.7666666666666666 0  0 0.7333333333333334 0  0 0.7 0  0 0.6666666666666667 0  0 0.6333333333333333 0  0 0.6 0  0 0.5666666666666667 0  0 0.5333333333333333 0  0 0.5 0  0 0.4666666666666667 0  0 0.4333333333333333 0  0 0.4 0  0 0.3666666666666667 0  0 0.3333333333333334 0  0 0.3 0  0 0.2666666666666667 0  0 0.2333333333333333 0  0 0.2 0  0 0.1666666666666666 0  0 0.1333333333333333 0  0 0.09999999999999998 0  0 0.06666666666666665 0  0 0.03333333333333333 0  1 0.03333333333333333 0  1 0.06666666666666667 0  1 0.1 0  1 0.1333333333333333 0  1 0.1666666666666667 0  1 0.2 0  1 0.2333333333333333 0  1 0.2666666666666667 0  1 0.3 0  1 0.3333333333333333 0  1 0.3666666666666666 0  1 0.4 0  1 0.4333333333333333 0  1 0.4666666666666667 0  1 0.5 0  1 0.5333333333333333 0  1 0.5666666666666667 0  1 0.6 0  1 0.6333333333333333 0  1 0.6666666666666666 0  1 0.7 0  1 0.7333333333333333 0  1 0.7666666666666667 0  1 0.8 0  1 0.8333333333333334 0  1 0.8666666666666667 0  1 0.9 0  1 0.9333333333333333 0  1 0.9666666666666667 0  0.9666666666666667 1 0  0.9333333333333333 1 0  0.9 1 0  0.8666666666666667 1 0  0.8333333333333334 1 0  0.8 1 0  0.7666666666666666 1 0  0.7333333333333334 1 0  0.7 1 0  0.6666666666666667 1 0  0.6333333333333333 1 0  0.6 1 0  0.5666666666666667 1 0  0.5333333333333333 1 0  0.5 1 0  0.4666666666666667 1 0  0.4333333333333333 1 0  0.4 1 0  0.3666666666666667 1 0  0.3333333333333334 1 0  0.3 1 0  0.2666666666666667 1 0  0.2333333333333333 1 0  0.2 1 0  0.1666666666666666 1 0  0.1333333333333333 1 0  0.09999999999999998 1 0  0.06666666666666665 1 0  0.03333333333333333 1 0  0.6247072676344306 0.2689501343248463 0  0.6239274716502419 0.2788583817523955 0  0.6226301867455355 0.2887122389026952 0  0.6208189686880621 0.2984846970382296 0  0.6184987819006211 0.3081489705305245 0  0.6156759858539226 0.317678570277693 0  0.6123583176357204 0.3270473763092224 0  0.6085548707439923 0.3362297093789981 0  0.6042760701622942 0.3452004013503318 0  0.5995336437856049 0.3539348641800754 0  0.5943405902749808 0.3624091573127375 0  0.5887111434291297 0.3706000532998825 0  0.582660733170558 0.3784851014649517 0  0.5762059432532257 0.3860426894390078 0  0.5693644658076293 0.3932521023987353 0  0.5621550528479018 0.4000935798443317 0  0.5545974648738458 0.4065483697616639 0  0.5467124167087765 0.4125987800202355 0  0.5385215207216315 0.4182282268660866 0  0.5300472275889694 0.4234212803767108 0  0.5213127647592257 0.4281637067534002 0  0.512342072787892 0.4324425073350981 0  0.5031597397181163 0.4362459542268262 0  0.493790933686587 0.4395636224450283 0  0.4842613339394185 0.4423864184917269 0  0.4745970604471235 0.4447066052791678 0  0.4648246023115891 0.4465178233366412 0  0.4549707451612894 0.4478151082413475 0  0.4450624977337403 0.4485949042255363 0  0.4351270178464268 0.4488550739226177 0  0.4251915379591132 0.4485949042255363 0  0.4152832905315641 0.4478151082413475 0  0.4054294333812644 0.4465178233366411 0  0.39565697524573 0.4447066052791677 0  0.385992701753435 0.4423864184917267 0  0.3764631020062665 0.4395636224450281 0  0.3670942959747371 0.4362459542268259 0  0.3579119629049616 0.4324425073350978 0  0.3489412709336278 0.4281637067533998 0  0.3402068081038843 0.4234212803767103 0  0.3317325149712221 0.4182282268660862 0  0.3235416189840771 0.412598780020235 0  0.3156565708190078 0.4065483697616634 0  0.3080989828449519 0.4000935798443311 0  0.3008895698852244 0.3932521023987346 0  0.2940480924396279 0.3860426894390071 0  0.2875933025222958 0.3784851014649511 0  0.2815428922637242 0.3706000532998818 0  0.2759134454178731 0.3624091573127368 0  0.2707203919072489 0.3539348641800746 0  0.2659779655305596 0.3452004013503309 0  0.2616991649488616 0.3362297093789972 0  0.2578957180571336 0.3270473763092215 0  0.2545780498389315 0.3176785702776921 0  0.251755253792233 0.3081489705305236 0  0.249435067004792 0.2984846970382286 0  0.2476238489473186 0.2887122389026941 0  0.2463265640426123 0.2788583817523945 0  0.2455467680584236 0.2689501343248454 0  0.2452865983613423 0.2590146544375318 0  0.2455467680584237 0.2490791745502182 0  0.2463265640426126 0.2391709271226692 0  0.247623848947319 0.2293170699723696 0  0.2494350670047924 0.2195446118368351 0  0.2517552537922335 0.2098803383445402 0  0.2545780498389321 0.2003507385973717 0  0.2578957180571343 0.1909819325658423 0  0.2616991649488624 0.1817995994960667 0  0.2659779655305604 0.172828907524733 0  0.2707203919072498 0.1640944446949895 0  0.2759134454178741 0.1556201515623273 0  0.2815428922637251 0.1474292555751825 0  0.2875933025222969 0.1395442074101132 0  0.2940480924396291 0.1319866194360571 0  0.3008895698852256 0.1247772064763297 0  0.3080989828449531 0.1179357290307334 0  0.3156565708190092 0.1114809391134012 0  0.3235416189840785 0.1054305288548295 0  0.3317325149712236 0.09980108200897844 0  0.3402068081038856 0.0946080284983544 0  0.3489412709336291 0.08986560212166514 0  0.357911962904963 0.08558680153996717 0  0.3670942959747386 0.08178335464823916 0  0.3764631020062678 0.07846568643003712 0  0.3859927017534364 0.0756428903833386 0  0.3956569752457313 0.0733227035958976 0  0.4054294333812659 0.07151148553842429 0  0.4152832905315654 0.07021420063371797 0  0.4251915379591144 0.0694344046495293 0  0.435127017846428 0.0691742349524479 0  0.4450624977337415 0.06943440464952938 0  0.4549707451612905 0.07021420063371814 0  0.4648246023115901 0.07151148553842454 0  0.4745970604471245 0.07332270359589793 0  0.4842613339394195 0.07564289038333902 0  0.4937909336865879 0.07846568643003757 0  0.5031597397181173 0.0817833546482398 0  0.5123420727878929 0.08558680153996781 0  0.5213127647592265 0.08986560212166581 0  0.53004722758897 0.0946080284983552 0  0.5385215207216321 0.09980108200897933 0  0.5467124167087771 0.1054305288548305 0  0.5545974648738462 0.1114809391134021 0  0.5621550528479023 0.1179357290307343 0  0.5693644658076298 0.1247772064763308 0  0.576205943253226 0.1319866194360582 0  0.5826607331705582 0.1395442074101142 0  0.5887111434291299 0.1474292555751835 0  0.594340590274981 0.1556201515623285 0  0.5995336437856051 0.1640944446949906 0  0.6042760701622945 0.172828907524734 0  0.6085548707439925 0.1817995994960678 0  0.6123583176357205 0.1909819325658435 0  0.6156759858539227 0.2003507385973728 0  0.6184987819006211 0.2098803383445412 0  0.6208189686880622 0.2195446118368362 0  0.6226301867455355 0.2293170699723706 0  0.6239274716502419 0.2391709271226702 0  0.6247072676344306 0.2490791745502192 0  0.203885768735257 0.3325402459548524 0  0.2015714905276826 0.3421799084407872 0  0.1977777294810124 0.3513388578120612 0  0.1925979005829864 0.3597915703383434 0  0.1861595484119405 0.3673299121842922 0  0.1786212065659918 0.373768264355338 0  0.1701684940397096 0.378948093253364 0  0.1610095446684356 0.3827418543000342 0  0.1513698821825007 0.3850561325076086 0  0.1414868670645144 0.3858339426659677 0  0.1316038519465281 0.3850561325076086 0  0.1219641894605933 0.3827418543000343 0  0.1128052400893193 0.378948093253364 0  0.1043525275630371 0.3737682643553381 0  0.09681418571708833 0.3673299121842922 0  0.09037583354604248 0.3597915703383434 0  0.08519600464801645 0.3513388578120612 0  0.08140224360134621 0.3421799084407872 0  0.07908796539377183 0.3325402459548523 0  0.07831015523541281 0.3226572308368659 0  0.07908796539377186 0.3127742157188796 0  0.08140224360134626 0.3031345532329447 0  0.08519600464801655 0.2939756038616707 0  0.0903758335460426 0.2855228913353884 0  0.0968141857
[...]
<PointData  Tensors="$\sigma$"> 
<DataArray  type="Float64"  Name="$\sigma$"  NumberOfComponents="9" format="ascii">1.0603308085950522e+02 3.3737705406318831e+01 0.0000000000000000e+00 3.3737705406318831e+01 5.9114950639967101e+03 0.0000000000000000e+00 0.0000000000000000e+00 0.0000000000000000e+00 0.0000000000000000e+00  7.2241415709668411e+02 7.5229696857055913e+01 0.0000000000000000e+00 7.5229696857055913e+01 2.9675452483397503e+03 0.0000000000000000e+00 0.0000000000000000e+00 0.0000000000000000e+00 0.0000000000000000e+00  -1.1160258251234103e+01 -1.1549889358760279e+01 0.0000000000000000e+00 -1.1549889358760275e+01 3.1711887098161615e+03 0.0000000000000000e+00 0.0000000000000000e+00 0.0000000000000000e+00 0.0000000000000000e+00  6.7338680834498739e+00 -3.5636347081017918e+00 0.0000000000000000e+00 -3.5636347081018060e+00 3.0559894619510656e+03 0.0000000000000000e+00 0.0000000000000000e+00 0.0000000000000000e+00 0.0000000000000000e+00  7.2265196768208124e+00 6.1816327079172373e+00 0.0000000000000000e+00 6.1816327079172337e+00 2.9042171898340216e+03 0.0000000000000000e+00 0.0000000000000000e+00 0.0000000000000000e+00 0.0000000000000000e+00  6.1065301783963733e+01 6.1326981565459626e+01 0.0000000000000000e+00 6.1326981565459789e+01 5.8831803698289314e+03 0.0000000000000000e+00 0.0000000000000000e+00 0.0000000000000000e+00 0.0000000000000000e+00  -5.0727086814028880e+01 1.5270251012334080e+02 0.0000000000000000e+00 1.5270251012334086e+02 2.1521330902497826e+02 0.0000000000000000e+00 0.0000000000000000e+00 0.0000000000000000e+00 0.0000000000000000e+00  4.4765134316893665e+02 3.0052475457889102e+02 0.0000000000000000e+00 3.0052475457889102e+02 6.4470741392785167e+03 0.0000000000000000e+00 0.0000000000000000e+00 0.0000000000000000e+00 0.0000000000000000e+00  2.0215391144602805e+02 -2.5166604749950582e+02 0.0000000000000000e+00 -2.5166604749950588e+02 5.9016578735771154e+03 0.0000000000000000e+00 0.0000000000000000e+00 0.0000000000000000e+00 0.0000000000000000e+00  -1.1240594218721529e+02 2.1879112228734510e+01 0.0000000000000000e+00 2.1879112228734790e+01 -9.3775718490673711e+01 0.0000000000000000e+00 0.0000000000000000e+00 0.0000000000000000e+00 0.0000000000000000e+00  2.1989709441403771e-01 -1.7295061782544110e+01 0.0000000000000000e+00 -1.7295061782544039e+01 -2.7976558321291492e+01 0.0000000000000000e+00 0.0000000000000000e+00 0.0000000000000000e+00 0.0000000000000000e+00  9.9113823176353236e+01 2.7841721139551237e+02 0.0000000000000000e+00 2.7841721139551271e+02 3.3069744135610804e+03 0.0000000000000000e+00 0.0000000000000000e+00 0.0000000000000000e+00 0.0000000000000000e+00  -3.8738074845080739e+01 5.7476343077911963e+01 0.0000000000000000e+00 5.7476343077911963e+01 7.6144667230903178e+03 0.0000000000000000e+00 0.0000000000000000e+00 0.0000000000000000e+00 0.0000000000000000e+00  4.6270599085128339e+01 6.5674202937369472e+01 0.0000000000000000e+00 6.5674202937369586e+01 6.0792606241442536e+03 0.0000000000000000e+00 0.0000000000000000e+00 0.0000000000000000e+00 0.0000000000000000e+00  -5.2234784352007694e+01 -1.3865989528171900e+02 0.0000000000000000e+00 -1.3865989528171926e+02 -7.2446229140232185e+02 0.0000000000000000e+00 0.0000000000000000e+00 0.0000000000000000e+00 0.0000000000000000e+00  -9.6849581919010092e+01 -1.1505638438855149e+02 0.0000000000000000e+00 -1.1505638438855114e+02 -2.5217554588668457e+02 0.0000000000000000e+00 0.0000000000000000e+00 0.0000000000000000e+00 0.0000000000000000e+00  3.7231752670887211e+01 -1.1304989367388283e+02 0.0000000000000000e+00 -1.1304989367388319e+02 3.8348503583844522e+03 0.0000000000000000e+00 0.0000000000000000e+00 0.0000000000000000e+00 0.0000000000000000e+00  1.0721440474076108e+02 7.9632961389437213e+01 0.0000000000000000e+00 7.9632961389437412e+01 4.5744511470271855e+03 0.0000000000000000e+00 0.0000000000000000e+00 0.0000000000000000e+00 0.0000000000000000e+00  1.3265591653757751e+03 1.0756963430782616e+03 0.0000000000000000e+00 1.0756963430782616e+03 1.4245755015905468e+04 0.0000000000000000e+00 0.0000000000000000e+00 0.0000000000000000e+00 0.0000000000000000e+00  1.8603261651530804e+02 -1.9736828375412586e+02 0.0000000000000000e+00 -1.9736828375412586e+02 7.1983331558920072e+03 0.0000000000000000e+00 0.0000000000000000e+00 0.0000000000000000e+00 0.0000000000000000e+00  3.7043005462210338e+01 1.0438460846328128e+02 0.0000000000000000e+00 1.0438460846328105e+02 4.4964272332949849e+03 0.0000000000000000e+00 0.0000000000000000e+00 0.0000000000000000e+00 0.0000000000000000e+00  9.8943523494786660e+01 3.6880102670235360e+00 0.0000000000000000e+00 3.6880102670236554e+00 2.4500340034793608e+03 0.0000000000000000e+00 0.0000000000000000e+00 0.0000000000000000e+00 0.0000000000000000e+00  2.6975376199228566e+02 -7.3467561931963996e+02 0.0000000000000000e+00 -7.3467561931964019e+02 3.7365928389068417e+03 0.0000000000000000e+00 0.0000000000000000e+00 0.0000000000000000e+00 0.0000000000000000e+00  -1.7876957552761738e+02 -2.2431392526570619e+02 0.0000000000000000e+00 -2.2431392526570619e+02 1.0520804052471321e+03 0.0000000000000000e+00 0.0000000000000000e+00 0.0000000000000000e+00 0.0000000000000000e+00  -1.1503614076666029e+03 7.1976222759091672e+02 0.0000000000000000e+00 7.1976222759091661e+02 -4.5854190636194659e+02 0.0000000000000000e+00 0.0000000000000000e+00 0.0000000000000000e+00 0.0000000000000000e+00  -2.2389702797325963e+03 7.9577500570587245e+02 0.0000000000000000e+00 7.9577500570587290e+02 -4.9212360997255922e+02 0.0000000000000000e+00 0.0000000000000000e+00 0.0000000000000000e+00 0.0000000000000000e+00  -1.7754537983598123e+03 5.1095637250702595e+02 0.0000000000000000e+00 5.1095637250702521e+02 -2.8990302472984757e+02 0.0000000000000000e+00 0.0000000000000000e+00 0.0000000000000000e+00 0.0000000000000000e+00  7.9544086214340984e+02 1.2350304233232389e+03 0.0000000000000000e+00 1.2350304233232387e+03 7.7599623505785610e+02 0.0000000000000000e+00 0.0000000000000000e+00 0.0000000000000000e+00 0.0000000000000000e+00  3.7812376380319388e+03 2.4786073781365089e+03 0.0000000000000000e+00 2.4786073781365089e+03 1.4737455403061842e+03 0.0000000000000000e+00 0.0000000000000000e+00 0.0000000000000000e+00 0.0000000000000000e+00  3.7986595968804086e+03 2.9793670426619933e+03 0.0000000000000000e+00 2.9793670426619942e+03 2.7677723204108806e+03 0.0000000000000000e+00 0.0000000000000000e+00 0.0000000000000000e+00 0.0000000000000000e+00  1.7868465890343057e+03 2.3084991229202719e+03 0.0000000000000000e+00 2.3084991229202724e+03 3.2021513990169919e+03 0.0000000000000000e+00 0.0000000000000000e+00 0.0000000000000000e+00 0.0000000000000000e+00  6.5325013392267033e+02 1.0300826337973344e+03 0.0000000000000000e+00 1.0300826337973353e+03 2.6830883923281367e+03 0.0000000000000000e+00 0.0000000000000000e+00 0.0000000000000000e+00 0.0000000000000000e+00  7.6227097841848192e+01 1.8050107734361779e+02 0.0000000000000000e+00 1.8050107734361760e+02 2.3111762133616344e+03 0.0000000000000000e+00 0.0000000000000000e+00 0.0000000000000000e+00 0.0000000000000000e+00  1.0259400359628518e+02 -1.8983517909603316e+02 0.0000000000000000e+00 -1.8983517909603310e+02 1.1501126748927238e+03 0.0000000000000000e+00 0.0000000000000000e+00 0.0000000000000000e+00 0.0000000000000000e+00  -9.3058863543900983e+01 6.7309463129384142e+01 0.0000000000000000e+00 6.7309463129384028e+01 1.4454461808795716e+02 0.0000000000000000e+00 0.0000000000000000e+00 0.0000000000000000e+00 0.0000000000000000e+00  -7.4340997753017098e+02 5.1345084536472552e+02 0.0000000000000000e+00 5.1345084536472552e+02 -3.6241674879194665e+02 0.0000000000000000e+00 0.0000000000000000e+00 0.0000000000000000e+00 0.0000000000000000e+00  -1.4185571812519133e+03 5.4970295371399470e+02 0.0000000000000000e+00 5.4970295371399391e+02 -3.5007334114198409e+02 0.0000000000000000e+00 0.0000000000000000e+00 0.0000000000000000e+00 0.0000000000000000e+00  -1.4734719955820929e+03 3.1124233350553959e+02 0.0000000000000000e+00 3.1124233350553914e+02 -2.0805630926820399e+02 0.0000000000000000e+00 0.0000000000000000e+00 0.0000000000000000e+00 0.0000000000000000e+00  -6.6745805467238995e+02 4.0927087052956914e+01 0.0000000000000000e+00 4.0927087052956892e+01 4.3042870049167853e+01 0.0000000000000000e+00 0.0000000000000000e+00 0.0000000000000000e+00 0.0000000000000000e+00  7.3598838313019792e+02 5.5479885907244761e+02 0.0000000000000000e+00 5.5479885907244807e+02 3.4475786073734724e+02 0.0000000000000000e+00 0.0000000000000000e+00 0.0000000000000000e+00 0.0000000000000000e+00  1.5360674582114789e+03 1.3829815917165722e+03 0.0000000000000000e+00 1.3829815917165729e+03 1.6567324366036014e+03 0.0000000000000000e+00 0.0000000000000000e+00 0.0000000000000000e+00 0.0000000000000000e+00  1.3314375378532200e+03 2.1233092560969230e+03 0.0000000000000000e+00 2.1233092560969221e+03 3.6587502421993054e+03 0.0000000000000000e+00 0.0000000000000000e+00 0.0000000000000000e+00 0.0000000000000000e+00  8.7046762216713660e+02 1.3305660907634356e+03 0.0000000000000000e+00 1.3305660907634360e+03 5.3823789518135045e+03 0.0000000000000000e+00 0.0000000000000000e+00 0.0000000000000000e+00 0.0000000000000000e+00  2.6854491373389584e+02 -1.6867697126909536e+02 0.0000000000000000e+00 -1.6867697126909530e+02 2.4901544262435368e+03 0.0000000000000000e+00 0.0000000000000000e+00 0.0000000000000000e+00 0.0000000000000000e+00  -5.5240742134331647e+01 2.0057801319256935e+01 0.0000000000000000e+00 2.0057801319256935e+01 2.1752417370176672e+03 0.0000000000000000e+00 0.0000000000000000e+00 0.0000000000000000e+00 0.0000000000000000e+00  1.4050716605141687e+02 4.9684840357471201e+00 0.0000000000000000e+00 4.9684840357471352e+00 1.6820504125610394e+03 0.0000000000000000e+00 0.0000000000000000e+00 0.0000000000000000e+00 0.0000000000000000e+00  7.9971082300195873e+00 1.9109026733960370e+01 0.0000000000000000e+00 1.9109026733960366e+01 1.4208462077593158e+03 0.0000000000000000e+00 0.0000000000000000e+00 0.0000000000000000e+00 0.0000000000000000e+00  5.0807763427718783e+01 2.3770026594511535e+01 0.0000000000000000e+00 2.3770026594511531e+01 1.1214833709897448e+03 0.0000000000000000e+00 0.0000000000000000e+00 0.0000000000000000e+00 0.0000000000000000e+00  -1.9697866308370632e+01 1.5329159743973657e+01 0.0000000000000000e+00 1.5329159743973676e+01 8.5073571469624130e+02 0.0000000000000000e+00 0.0000000000000000e+00 0.0000000000000000e+00 0.0000000000000000e+00  -4.3486550000517489e+01 7.3980163678061404e+00 0.0000000000000000e+00 7.3980163678061359e+00 6.1540480909697465e+02 0.0000000000000000e+00 0.0000000000000000e+00 0.0000000000000000e+00 0.0000000000000000e+00  -8.6793423283562717e+01 5.7997731629318707e+00 0.0000000000000000e+00 5.7997731629318672e+00 3.9085290903683153e+02 0.0000000000000000e+00 0.0000000000000000e+00 0.0000000000000000e+00 0.0000000000000000e+00  -8.3590814087504043e+01 6.1774290012063897e+00 0.0000000000000000e+00 6.1774290012063826e+00 1.6381891420486838e+02 0.0000000000000000e+00 0.0000000000000000e+00 0.0000000000000000e+00 0.0000000000000000e+00  -1.0080647808503014e+02 9.2676285460610774e+00 0.0000000000000000e+00 9.2676285460610703e+00 -1.7645065697733685e+01 0.0000000000000000e+00 0.0000000000000000e+00 0.0000000000000000e+00 0.0000000000000000e+00  -1.4561216009331932e+02 7.3506049555368289e+00 0.0000000000000000e+00 7.3506049555368360e+00 -8.7570862641975182e+01 0.0000000000000000e+00 0.0000000000000000e+00 0.0000000000000000e+00 0.0000000000000000e+00  -1.8243933526838381e+02 2.0827431212465533e-01 0.0000000000000000e+00 2.0827431212466091e-01 -8.7877493909506271e+01 0.0000000000000000e+00 0.0000000000000000e+00 0.0000000000000000e+00 0.0000000000000000e+00  -2.1230806141610043e+02 1.8197209154014209e+00 0.0000000000000000e+00 1.8197209154014176e+00 -4.3401908758643394e+01 0.0000000000000000e+00 0.0000000000000000e+00 0.0000000000000000e+00 0.0000000000000000e+00  -2.3163598954288534e+02 -3.9845097385265857e+00 0.0000000000000000e+00 -3.9845097385265538e+00 4.0797736478266373e+01 0.0000000000000000e+00 0.0000000000000000e+00 0.0000000000000000e+00 0.0000000000000000e+00  -2.9438671857916438e+02 4.3138596281469601e+00 0.0000000000000000e+00 4.3138596281468553e+00 2.3524229612305132e+02 0.0000000000000000e+00 0.0000000000000000e+00 0.0000000000000000e+00 0.0000000000000000e+00  -4.3902925806078542e+02 1.6489638152647021e+01 0.0000000000000000e+00 1.6489638152646901e+01 5.0550653711576308e+02 0.0000000000000000e+00 0.0000000000000000e+00 0.0000000000000000e+00 0.0000000000000000e+00  -6.8905200285038450e+02 3.4126181506262668e+01 0.0000000000000000e+00 3.4126181506262704e+01 7.3285237156094195e+02 0.0000000000000000e+00 0.0000000000000000e+00 0.0000000000000000e+00 0.0000000000000000e+00  -7.8735090403777269e+02 -3.4985881521310397e+01 0.0000000000000000e+00 -3.4985881521310354e+01 4.8800692295686582e+02 0.0000000000000000e+00 0.0000000000000000e+00 0.0000000000000000e+00 0.0000000000000000e+00  -5.9708829452413147e+02 2.9654757854995171e+00 0.0000000000000000e+00 2.9654757854995073e+00 -5.4773672240035232e+01 0.0000000000000000e+00 0.0000000000000000e+00 0.0000000000000000e+00 0.0000000000000000e+00  -6.9342291276745107e+02 2.9921023106214442e+01 0.0000000000000000e+00 2.9921023106214488e+01 3.1753053705911668e+02 0.0000000000000000e+00 0.0000000000000000e+00 0.0000000000000000e+00 0.0000000000000000e+00  -5.7272297583739612e+02 -2.1182490241214474e+01 0.0000000000000000e+00 -2.1182490241214644e+01 6.4827444468366787e+02 0.0000000000000000e+00 0.0000000000000000e+00 0.0000000000000000e+00 0.0000000000000000e+00  -2.5180858061270251e+02 -3.1543797760134201e+01 0.0000000000000000e+00 -3.1543797760134147e+01 3.9211177075697867e+02 0.0000000000000000e+00 0.0000000000000000e+00 0.0000000000000000e+00 0.0000000000000000e+00  7.6483069174913297e+01 -1.6689661599012016e+01 0.0000000000000000e+00 -1.6689661599011949e+01 2.9736159023202714e+02 0.0000000000000000e+00 0.0000000000000000e+00 0.0000000000000000e+00 0.0000000000000000e+00  1.4051381547257577e+02 -1.2436788306466473e+01 0.0000000000000000e+00 -1.2436788306466491e+01 4.1703144143463879e+02 0.0000000000000000e+00 0.0000000000000000e+00 0.0000000000000000e+00 0.0000000000000000e+00  1.5876989442067710e+02 -9.1696341552241503e+00 0.0000000000000000e+00 -9.1696341552241520e+00 7.5393886290995817e+02 0.0000000000000000e+00 0.0000000000000000e+00 0.0000000000000000e+00 0.0000000000000000e+00  1.2511890527593988e+02 -1.9863547233849349e+01 0.0000000000000000e+00 -1.9863547233849356e+01 1.1806317260259711e+03 0.0000000000000000e+00 0.0000000000000000e+00 0.0000000000000000e+00 0.0000000000000000e+00  1.2604182110236103e+02 -1.5924335142479165e+01 0.0000000000000000e+00 -1.5924335142479137e+01 1.6773072837900402e+03 0.0000000000000000e+00 0.0000000000000000e+00 0.0000000000000000e+00 0.0000000000000000e+00  3.1025827957577977e+01 -1.0913913789889879e+01 0.0000000000000000e+00 -1.0913913789889882e+01 2.2362921966938325e+03 0.0000000000000000e+00 0.0000000000000000e+00 0.0000000000000000e+00 0.0000000000000000e+00  4.7709225137978684e+01 -1.5902135657925141e+01 0.0000000000000000e+00 -1.5902135657925154e+01 2.7074042480149687e+03 0.0000000000000000e+00 0.0000000000000000e+00 0.0000000000000000e+00 0.0000000000000000e+00  -1.1870765579198875e-01 2.3955538291533518e+01 0.0000000000000000e+00 2.3955538291533504e+01 3.0915340282455827e+03 0.0000000000000000e+00 0.0000000000000000e+00 0.0000000000000000e+00 0.0000000000000000e+00  2.2046512994746950e+00 6.6684877360659174e+00 0.0000000000000000e+00 6.6684877360659396e+00 3.1927088133814477e+03 0.0000000000000000e+00 0.0000000000000000e+00 0.0000000000000000e+00 0.0000000000000000e+00  -3.7055064065842709e+00 2.1979640729778723e+01 0.0000000000000000e+00 2.1979640729778740e+01 3.2553567909107824e+03 0.0000000000000000e+00 0.0000000000000000e+00 0.0000000000000000e+00 0.0000000000000000e+00  -3.3199529789998885e+00 7.0905978693320888e+00 0.0000000000000000e+00 7.0905978693321341e+00 3.3530345425296464e+03 0.0000000000000000e+00 0.0000000000000000e+00 0.0000000000000000e+00 0.0000000000000000e+00  7.4746854368216491e+00 7.8042220400793800e+00 0.0000000000000000e+00 7.8042220400793756e+00 3.4699871217007071e+03 0.0000000000000000e+00 0.0000000000000000e+00 0.0000000000000000e+00 0.0000000000000000e+00  -1.8486363193278514e+00 2.8940193471152046e+01 0.0000000000000000e+00 2.8940193471151897e+01 3.5103745227468735e+03 0.0000000000000000e+00 0.0000000000000000e+00 0.0000000000000000e+00 0.0000000000000000e+00  -1.7872457009275195e+01 4.0225159342334265e+01 0.0000000000000000e+00 4.0225159342334145e+01 3.7814408981087677e+03 0.0000000000000000e+00 0.0000000000000000e+00 0.0000000000000000e+00 0.0000000000000000e+00  2.5301425544802536e-01 7.6312593011015096e+01 0.0000000000000000e+00 7.6312593011015267e+01 4.1052916259331787e+03 0.0000000000000000e+00 0.0000000000000000e+00 0.0000000000000000e+00 0.0000000000000000e+00  -2.1722937230048544e+01 2.4977679749293959e+01 0.0000000000000000e+00 2.4977679749294005e+01 4.5659143698221242e+03 0.0000000000000000e+00 0.0000000000000000e+00 0.0000000000000000e+00 0.0000000000000000e+00  -4.7536322731043214e+01 -6.8523897422532855e+01 0.0000000000000000e+00 -6.8523897422532869e+01 4.4811301995817248e+03 0.0000000000000000e+00 0.0000000000000000e+00 0.0000000000000000e+00 0.0000000000000000e+00  -7.5178049855729626e+01 -2.6933569212548088e+02 0.0000000000000000e+00 -2.6933569212548070e+02 3.8175564635257106e+03 0.0000000000000000e+00 0.0000000000000000e+00 0.0000000000000000e+00 0.0000000000000000e+00  -4.0812694025132068e+01 -3.6401527381590432e+02 0.0000000000000000e+00 -3.6401527381590466e+02 2.7644764820598825e+03 0.0000000000000000e+00 0.0000000000000000e+00 0.0000000000000000e+00 0.0000000000000000e+00  1.2145335265312916e+02 7.0447992116086411e+01 0.0000000000000000e+00 7.0447992116086368e+01 1.5200333454637655e+03 0.0000000000000000e+00 0.0000000000000000e+00 0.0000000000000000e+00 0.0000000000000000e+00  9.1312161628718883e+01 2.1801548930207503e+02 0.0000000000000000e+00 2.1801548930207508e+02 1.5960683817281563e+03 0.0000000000000000e+00 0.0000000000000000e+00 0.0000000000000000e+00 0.0000000000000000e+00  3.3880452629082647e+01 2.9755767544786517e+02 0.0000000000000000e+00 2.9755767544786517e+02 3.5536522425874145e+03 0.0000000000000000e+00 0.0000000000000000e+00 0.0000000000000000e+00 0.0000000000000000e+00  -4.1638380717820773e+00 2.2441724762582876e+02 0.0000000000000000e+00 2.2441724762582868e+02 5.3021141122549152e+03 0.0000000000000000e+00 0.0000000000000000e+00 0.0000000000000000e+00 0.0000000000000000e+00  -7.3939382687512278e+00 -2.5437420987215634e+02 0.0000000000000000e+00 -2.5437420987215611e+02 5.6839541681565834e+03 0.0000000000000000e+00 0.0000000000000000e+00 0.0000000000000000e+00 0.0000000000000000e+00  8.0568494676097743e+01 -8.7809082501422296e+01 0.0000000000000000e+00 -8.7809082501422509e+01 3.8346870538029798e+03 0.0000000000000000e+00 0.0000000000000000e+00 0.0000000000000000e+00 0.0000000000000000e+00  -1.2190027897909874e+02 1.6762072082446855e+02 0.0000000000000000e+00 1.6762072082446855e+02 4.7831086091268780e+03 0.0000000000000000e+00 0.0000000000000000e+00 0.0000000000000000e+00 0.0000000000000000e+00  -6.4585785285526400e+00 -1.2486431047848215e+02 0.0000000000000000e+00 -1.2486431047848211e+02 4.6474838990163125e+03 0.0000000000000000e+00 0.0000000000000000e+00 0.0000000000000000e+00 0.0000000000000000e+00  -2.1065930899682655e+01 -1.5089364469674680e+02 0.0000000000000000e+00 -1.5089364469674638e+02 3.5695101057101565e+03 0.0000000000000000e+00 0.0000000000000000e+00 0.0000000000000000e+00 0.0000000000000000e+00  3.4938543279451778e+01 -5.6296291554192148e+00 0.0000000000000000e+00 -5.6296291554193312e+00 3.3180727571080129e+03 0.0000000000000000e+00 0.0000000000000000e+00 0.0000000000000000e+00 0.0000000000000000e+00  -2.1171259709938916e+01 -3.0441245548027571e+00 0.0000000000000000e+00 -3.0441245548027585e+00 3.2392006755636630e+03 0.0000000000000000e+00 0.0000000000000000e+00 0.0000000000000000e+00 0.0000000000000000e+0