<?xml version="1.0"?>
<VTKFile type="UnstructuredGrid"  version="0.1"  >
<UnstructuredGrid>
<Piece  NumberOfPoints="3879" NumberOfCells="6881">
<Points>
<DataArray  type="Float64"  NumberOfComponents="3"  format="ascii">0.207524190028372 0.2122422770132111 0  0 0 0  1 0 0  0 1 0  1 1 0  0.6249674373315121 0.2590146544375328 0  0.204663578893616 0.322657230836866 0  0.09605577522599912 0.4018360776629776 0  0.671351124618251 0.08738059142081528 0  0.7842102907526436 0.1666439122351055 0  0.8512483166984784 0.1985391006160637 0  0.6418797837909295 0.4423157172830166 0  0.9292488447973215 0.3869277868069776 0  0.3197896119137055 0.5509935221980964 0  0.3979283685568406 0.5079871620336583 0  0.1572503457993085 0.7345153245035532 0  0.3032914287999163 0.7872981443735918 0  0.3549464687598876 0.8870324161721976 0  0.9691791685505482 0.5159450047798622 0  0.9447564590470373 0.6146164845729313 0  0.7687603548175107 0.7176858127488035 0  0.8926159261971183 0.7422924070424508 0  0.2061587782631535 0.2217389244366831 0  0.2021731605082994 0.2304662099646423 0  0.1958902278109265 0.2377171008267789 0  0.1878189860121365 0.2429041729681512 0  0.1786133191209442 0.2456072006525708 0  0.1690190155206647 0.2456072006525708 0  0.1598133486294724 0.2429041729681512 0  0.1517421068306824 0.2377171008267789 0  0.1454591741333096 0.2304662099646422 0  0.1414735563784554 0.221738924436683 0  0.1401081446132369 0.212242277013211 0  0.1414735563784555 0.202745629589739 0  0.1454591741333096 0.1940183440617798 0  0.1517421068306825 0.1867674531996431 0  0.1598133486294725 0.1815803810582709 0  0.1690190155206649 0.1788773533738513 0  0.1786133191209443 0.1788773533738514 0  0.1878189860121367 0.181580381058271 0  0.1958902278109266 0.1867674531996433 0  0.2021731605082994 0.19401834406178 0  0.2061587782631535 0.2027456295897391 0  0.03333333333333333 0 0  0.06666666666666667 0 0  0.1 0 0  0.1333333333333333 0 0  0.1666666666666667 0 0  0.2 0 0  0.2333333333333333 0 0  0.2666666666666667 0 0  0.3 0 0  0.3333333333333333 0 0  0.3666666666666666 0 0  0.4 0 0  0.4333333333333333 0 0  0.4666666666666667 0 0  0.5 0 0  0.5333333333333333 0 0  0.5666666666666667 0 0  0.6 0 0  0.6333333333333333 0 0  0.6666666666666666 0 0  0.7 0 0  0.7333333333333333 0 0  0.7666666666666667 0 0  0.8 0 0  0.8333333333333334 0 0  0.8666666666666667 0 0  0.9 0 0  0.9333333333333333 0 0  0.9666666666666667 0 0  0 0.9666666666666667 0  0 0.9333333333333333 0  0 0.9 0  0 0.8666666666666667 0  0 0.8333333333333334 0  0 0.8 0  0 0.7666666666666666 0  0 0.7333333333333334 0  0 0.7 0  0 0.6666666666666667 0  0 0.6333333333333333 0  0 0.6 0  0 0.5666666666666667 0  0 0.5333333333333333 0  0 0.5 0  0 0.4666666666666667 0  0 0.4333333333333333 0  0 0.4 0  0 0.3666666666666667 0  0 0.3333333333333334 0  0 0.3 0  0 0.2666666666666667 0  0 0.2333333333333333 0  0 0.2 0  0 0.1666666666666666 0  0 0.1333333333333333 0  0 0.09999999999999998 0  0 0.06666666666666665 0  0 0.03333333333333333 0  1 0.03333333333333333 0  1 0.06666666666666667 0  1 0.1 0  1 0.1333333333333333 0  1 0.1666666666666667 0  1 0.2 0  1 0.2333333333333333 0  1 0.2666666666666667 0  1 0.3 0  1 0.3333333333333333 0  1 0.3666666666666666 0  1 0.4 0  1 0.4333333333333333 0  1 0.4666666666666667 0  1 0.5 0  1 0.5333333333333333 0  1 0.5666666666666667 0  1 0.6 0  1 0.6333333333333333 0  1 0.6666666666666666 0  1 0.7 0  1 0.7333333333333333 0  1 0.7666666666666667 0  1 0.8 0  1 0.8333333333333334 0  1 0.8666666666666667 0  1 0.9 0  1 0.9333333333333333 0  1 0.9666666666666667 0  0.9666666666666667 1 0  0.9333333333333333 1 0  0.9 1 0  0.8666666666666667 1 0  0.8333333333333334 1 0  0.8 1 0  0.7666666666666666 1 0  0.7333333333333334 1 0  0.7 1 0  0.6666666666666667 1 0  0.6333333333333333 1 0  0.6 1 0  0.5666666666666667 1 0  0.5333333333333333 1 0  0.5 1 0  0.4666666666666667 1 0  0.4333333333333333 1 0  0.4 1 0  0.3666666666666667 1 0  0.3333333333333334 1 0  0.3 1 0  0.2666666666666667 1 0  0.2333333333333333 1 0  0.2 1 0  0.1666666666666666 1 0  0.1333333333333333 1 0  0.09999999999999998 1 0  0.06666666666666665 1 0  0.03333333333333333 1 0  0.6247072676344306 0.2689501343248463 0  0.6239274716502419 0.2788583817523955 0  0.6226301867455355 0.2887122389026952 0  0.6208189686880621 0.2984846970382296 0  0.6184987819006211 0.3081489705305245 0  0.6156759858539226 0.317678570277693 0  0.6123583176357204 0.3270473763092224 0  0.6085548707439923 0.3362297093789981 0  0.6042760701622942 0.3452004013503318 0  0.5995336437856049 0.3539348641800754 0  0.5943405902749808 0.3624091573127375 0  0.5887111434291297 0.3706000532998825 0  0.582660733170558 0.3784851014649517 0  0.5762059432532257 0.3860426894390078 0  0.5693644658076293 0.3932521023987353 0  0.5621550528479018 0.4000935798443317 0  0.5545974648738458 0.4065483697616639 0  0.5467124167087765 0.4125987800202355 0  0.5385215207216315 0.4182282268660866 0  0.5300472275889694 0.4234212803767108 0  0.5213127647592257 0.4281637067534002 0  0.512342072787892 0.4324425073350981 0  0.5031597397181163 0.4362459542268262 0  0.493790933686587 0.4395636224450283 0  0.4842613339394185 0.4423864184917269 0  0.4745970604471235 0.4447066052791678 0  0.4648246023115891 0.4465178233366412 0  0.4549707451612894 0.4478151082413475 0  0.4450624977337403 0.4485949042255363 0  0.4351270178464268 0.4488550739226177 0  0.4251915379591132 0.4485949042255363 0  0.4152832905315641 0.4478151082413475 0  0.4054294333812644 0.4465178233366411 0  0.39565697524573 0.4447066052791677 0  0.385992701753435 0.4423864184917267 0  0.3764631020062665 0.4395636224450281 0  0.3670942959747371 0.4362459542268259 0  0.3579119629049616 0.4324425073350978 0  0.3489412709336278 0.4281637067533998 0  0.3402068081038843 0.4234212803767103 0  0.3317325149712221 0.4182282268660862 0  0.3235416189840771 0.412598780020235 0  0.3156565708190078 0.4065483697616634 0  0.3080989828449519 0.4000935798443311 0  0.3008895698852244 0.3932521023987346 0  0.2940480924396279 0.3860426894390071 0  0.2875933025222958 0.3784851014649511 0  0.2815428922637242 0.3706000532998818 0  0.2759134454178731 0.3624091573127368 0  0.2707203919072489 0.3539348641800746 0  0.2659779655305596 0.3452004013503309 0  0.2616991649488616 0.3362297093789972 0  0.2578957180571336 0.3270473763092215 0  0.2545780498389315 0.3176785702776921 0  0.251755253792233 0.3081489705305236 0  0.249435067004792 0.2984846970382286 0  0.2476238489473186 0.2887122389026941 0  0.2463265640426123 0.2788583817523945 0  0.2455467680584236 0.2689501343248454 0  0.2452865983613423 0.2590146544375318 0  0.2455467680584237 0.2490791745502182 0  0.2463265640426126 0.2391709271226692 0  0.247623848947319 0.2293170699723696 0  0.2494350670047924 0.2195446118368351 0  0.2517552537922335 0.2098803383445402 0  0.2545780498389321 0.2003507385973717 0  0.2578957180571343 0.1909819325658423 0  0.2616991649488624 0.1817995994960667 0  0.2659779655305604 0.172828907524733 0  0.2707203919072498 0.1640944446949895 0  0.2759134454178741 0.1556201515623273 0  0.2815428922637251 0.1474292555751825 0  0.2875933025222969 0.1395442074101132 0  0.2940480924396291 0.1319866194360571 0  0.3008895698852256 0.1247772064763297 0  0.3080989828449531 0.1179357290307334 0  0.3156565708190092 0.1114809391134012 0  0.3235416189840785 0.1054305288548295 0  0.3317325149712236 0.09980108200897844 0  0.3402068081038856 0.0946080284983544 0  0.3489412709336291 0.08986560212166514 0  0.357911962904963 0.08558680153996717 0  0.3670942959747386 0.08178335464823916 0  0.3764631020062678 0.07846568643003712 0  0.3859927017534364 0.0756428903833386 0  0.3956569752457313 0.0733227035958976 0  0.4054294333812659 0.07151148553842429 0  0.4152832905315654 0.07021420063371797 0  0.4251915379591144 0.0694344046495293 0  0.435127017846428 0.0691742349524479 0  0.4450624977337415 0.06943440464952938 0  0.4549707451612905 0.07021420063371814 0  0.4648246023115901 0.07151148553842454 0  0.4745970604471245 0.07332270359589793 0  0.4842613339394195 0.07564289038333902 0  0.4937909336865879 0.07846568643003757 0  0.5031597397181173 0.0817833546482398 0  0.5123420727878929 0.08558680153996781 0  0.5213127647592265 0.08986560212166581 0  0.53004722758897 0.0946080284983552 0  0.5385215207216321 0.09980108200897933 0  0.5467124167087771 0.1054305288548305 0  0.5545974648738462 0.1114809391134021 0  0.5621550528479023 0.1179357290307343 0  0.5693644658076298 0.1247772064763308 0  0.576205943253226 0.1319866194360582 0  0.5826607331705582 0.1395442074101142 0  0.5887111434291299 0.1474292555751835 0  0.594340590274981 0.1556201515623285 0  0.5995336437856051 0.1640944446949906 0  0.6042760701622945 0.172828907524734 0  0.6085548707439925 0.1817995994960678 0  0.6123583176357205 0.1909819325658435 0  0.6156759858539227 0.2003507385973728 0  0.6184987819006211 0.2098803383445412 0  0.6208189686880622 0.2195446118368362 0  0.6226301867455355 0.2293170699723706 0  0.6239274716502419 0.2391709271226702 0  0.6247072676344306 0.2490791745502192 0  0.203885768735257 0.3325402459548524 0  0.2015714905276826 0.3421799084407872 0  0.1977777294810124 0.3513388578120612 0  0.1925979005829864 0.3597915703383434 0  0.1861595484119405 0.3673299121842922 0  0.1786212065659918 0.373768264355338 0  0.1701684940397096 0.378948093253364 0  0.1610095446684356 0.3827418543000342 0  0.1513698821825007 0.3850561325076086 0  0.1414868670645144 0.3858339426659677 0  0.1316038519465281 0.3850561325076086 0  0.1219641894605933 0.3827418543000343 0  0.1128052400893193 0.378948093253364 0  0.1043525275630371 0.3737682643553381 0  0.09681418571708833 0.3673299121842922 0  0.09037583354604248 0.3597915703383434 0  0.08519600464801645 0.3513388578120612 0  0.08140224360134621 0.3421799084407872 0  0.07908796539377183 0.3325402459548523 0  0.07831015523541281 0.3226572308368659 0  0.07908796539377186 0.3127742157188796 0  0.08140224360134626 0.3031345532329447 0  0.08519600464801655 0.2939756038616707 0  0.0903758335460426 0.2855228913353884 0  0.0968141857
[...]
<PointData  Tensors="$\sigma$"> 
<DataArray  type="Float64"  Name="$\sigma$"  NumberOfComponents="9" format="ascii">1.1775852473615174e+02 3.3790016382946263e+01 0.0000000000000000e+00 3.3790016382946078e+01 7.1767612549765681e+03 0.0000000000000000e+00 0.0000000000000000e+00 0.0000000000000000e+00 0.0000000000000000e+00  8.7362246396591627e+02 8.4914347752618085e+01 0.0000000000000000e+00 8.4914347752618141e+01 3.6009010158911206e+03 0.0000000000000000e+00 0.0000000000000000e+00 0.0000000000000000e+00 0.0000000000000000e+00  -1.4984987683308379e+01 -1.4331437740758139e+01 0.0000000000000000e+00 -1.4331437740758137e+01 3.8445954376739173e+03 0.0000000000000000e+00 0.0000000000000000e+00 0.0000000000000000e+00 0.0000000000000000e+00  6.8876696832026258e+00 -3.8756152806978776e+00 0.0000000000000000e+00 -3.8756152806979025e+00 3.7122968469066509e+03 0.0000000000000000e+00 0.0000000000000000e+00 0.0000000000000000e+00 0.0000000000000000e+00  7.8578266930331901e+00 7.5247004147127310e+00 0.0000000000000000e+00 7.5247004147127363e+00 3.5201290422745633e+03 0.0000000000000000e+00 0.0000000000000000e+00 0.0000000000000000e+00 0.0000000000000000e+00  6.7563009964702928e+01 6.9047094827958531e+01 0.0000000000000000e+00 6.9047094827958787e+01 7.1458247836098471e+03 0.0000000000000000e+00 0.0000000000000000e+00 0.0000000000000000e+00 0.0000000000000000e+00  -5.9832118098384576e+01 1.7901014309330768e+02 0.0000000000000000e+00 1.7901014309330773e+02 2.4983853692382905e+02 0.0000000000000000e+00 0.0000000000000000e+00 0.0000000000000000e+00 0.0000000000000000e+00  5.1274658112263694e+02 3.4369863686746737e+02 0.0000000000000000e+00 3.4369863686746737e+02 7.8282554219959802e+03 0.0000000000000000e+00 0.0000000000000000e+00 0.0000000000000000e+00 0.0000000000000000e+00  2.1128070468811796e+02 -2.7339054077591976e+02 0.0000000000000000e+00 -2.7339054077591959e+02 7.1680365863258521e+03 0.0000000000000000e+00 0.0000000000000000e+00 0.0000000000000000e+00 0.0000000000000000e+00  -1.5801854705821387e+02 4.0803386889919686e+01 0.0000000000000000e+00 4.0803386889920205e+01 -1.1009051288419050e+02 0.0000000000000000e+00 0.0000000000000000e+00 0.0000000000000000e+00 0.0000000000000000e+00  1.1620092166594160e+00 -2.1613350817064617e+01 0.0000000000000000e+00 -2.1613350817064461e+01 -4.4511166460551230e+01 0.0000000000000000e+00 0.0000000000000000e+00 0.0000000000000000e+00 0.0000000000000000e+00  1.0650094047668878e+02 3.2007540807518114e+02 0.0000000000000000e+00 3.2007540807518183e+02 4.0007252026324395e+03 0.0000000000000000e+00 0.0000000000000000e+00 0.0000000000000000e+00 0.0000000000000000e+00  -4.8713651595235660e+01 6.1212659636759355e+01 0.0000000000000000e+00 6.1212659636759355e+01 9.2233717834101626e+03 0.0000000000000000e+00 0.0000000000000000e+00 0.0000000000000000e+00 0.0000000000000000e+00  5.0735331508643171e+01 8.2132591166280889e+01 0.0000000000000000e+00 8.2132591166280989e+01 7.3777220652862561e+03 0.0000000000000000e+00 0.0000000000000000e+00 0.0000000000000000e+00 0.0000000000000000e+00  -6.4719078476779814e+01 -1.5999641692366819e+02 0.0000000000000000e+00 -1.5999641692366825e+02 -8.7807439133111723e+02 0.0000000000000000e+00 0.0000000000000000e+00 0.0000000000000000e+00 0.0000000000000000e+00  -1.2561117653193830e+02 -1.3512046719387635e+02 0.0000000000000000e+00 -1.3512046719387635e+02 -3.4506377653764156e+02 0.0000000000000000e+00 0.0000000000000000e+00 0.0000000000000000e+00 0.0000000000000000e+00  4.3245282248209762e+01 -1.1918794261252712e+02 0.0000000000000000e+00 -1.1918794261252762e+02 4.6560222655843527e+03 0.0000000000000000e+00 0.0000000000000000e+00 0.0000000000000000e+00 0.0000000000000000e+00  1.1336184418543704e+02 8.5345011593949280e+01 0.0000000000000000e+00 8.5345011593949238e+01 5.5466252814338486e+03 0.0000000000000000e+00 0.0000000000000000e+00 0.0000000000000000e+00 0.0000000000000000e+00  2.7118950186860866e+03 9.7910975646158784e+02 0.0000000000000000e+00 9.7910975646158784e+02 1.6199312797592371e+04 0.0000000000000000e+00 0.0000000000000000e+00 0.0000000000000000e+00 0.0000000000000000e+00  2.1266534323647531e+02 -2.4217642036328044e+02 0.0000000000000000e+00 -2.4217642036328053e+02 8.6986269434360893e+03 0.0000000000000000e+00 0.0000000000000000e+00 0.0000000000000000e+00 0.0000000000000000e+00  3.9274609642095520e+01 1.2241825661779760e+02 0.0000000000000000e+00 1.2241825661779708e+02 5.4582683599875400e+03 0.0000000000000000e+00 0.0000000000000000e+00 0.0000000000000000e+00 0.0000000000000000e+00  1.1093240969775313e+02 6.6994501448092771e+00 0.0000000000000000e+00 6.6994501448094255e+00 2.9632124525567433e+03 0.0000000000000000e+00 0.0000000000000000e+00 0.0000000000000000e+00 0.0000000000000000e+00  3.3658508903302118e+02 -9.2161069132293233e+02 0.0000000000000000e+00 -9.2161069132293210e+02 4.5208930212816631e+03 0.0000000000000000e+00 0.0000000000000000e+00 0.0000000000000000e+00 0.0000000000000000e+00  -2.0200216352891141e+02 -2.8550442724694727e+02 0.0000000000000000e+00 -2.8550442724694733e+02 1.2471414586019002e+03 0.0000000000000000e+00 0.0000000000000000e+00 0.0000000000000000e+00 0.0000000000000000e+00  -1.3653885731208150e+03 8.6788509708880088e+02 0.0000000000000000e+00 8.6788509708880099e+02 -5.7043671390472252e+02 0.0000000000000000e+00 0.0000000000000000e+00 0.0000000000000000e+00 0.0000000000000000e+00  -2.7466218662446263e+03 9.8194197195837705e+02 0.0000000000000000e+00 9.8194197195837796e+02 -5.8659788530680328e+02 0.0000000000000000e+00 0.0000000000000000e+00 0.0000000000000000e+00 0.0000000000000000e+00  -2.1490640102799330e+03 6.0101444330301842e+02 0.0000000000000000e+00 6.0101444330301706e+02 -3.5413785910952947e+02 0.0000000000000000e+00 0.0000000000000000e+00 0.0000000000000000e+00 0.0000000000000000e+00  9.4092001211374100e+02 1.4859306001885261e+03 0.0000000000000000e+00 1.4859306001885277e+03 9.3757485386605413e+02 0.0000000000000000e+00 0.0000000000000000e+00 0.0000000000000000e+00 0.0000000000000000e+00  4.6242505437002810e+03 3.0146041342075455e+03 0.0000000000000000e+00 3.0146041342075432e+03 1.7553144758855167e+03 0.0000000000000000e+00 0.0000000000000000e+00 0.0000000000000000e+00 0.0000000000000000e+00  4.6266269697885091e+03 3.6311104475634238e+03 0.0000000000000000e+00 3.6311104475634261e+03 3.3695333278074968e+03 0.0000000000000000e+00 0.0000000000000000e+00 0.0000000000000000e+00 0.0000000000000000e+00  2.1343609871669105e+03 2.8018246322536270e+03 0.0000000000000000e+00 2.8018246322536270e+03 3.8990252614352826e+03 0.0000000000000000e+00 0.0000000000000000e+00 0.0000000000000000e+00 0.0000000000000000e+00  7.7158458527182370e+02 1.2414672387357516e+03 0.0000000000000000e+00 1.2414672387357534e+03 3.2626182937117146e+03 0.0000000000000000e+00 0.0000000000000000e+00 0.0000000000000000e+00 0.0000000000000000e+00  7.6361599666569091e+01 2.0875716615736650e+02 0.0000000000000000e+00 2.0875716615736647e+02 2.8058390071544895e+03 0.0000000000000000e+00 0.0000000000000000e+00 0.0000000000000000e+00 0.0000000000000000e+00  1.2629410044651263e+02 -2.3464299621683554e+02 0.0000000000000000e+00 -2.3464299621683537e+02 1.3828292606966411e+03 0.0000000000000000e+00 0.0000000000000000e+00 0.0000000000000000e+00 0.0000000000000000e+00  -1.1104325544799090e+02 8.0694223282815173e+01 0.0000000000000000e+00 8.0694223282814960e+01 1.6411717015220592e+02 0.0000000000000000e+00 0.0000000000000000e+00 0.0000000000000000e+00 0.0000000000000000e+00  -8.9309839997082111e+02 6.2799115342308437e+02 0.0000000000000000e+00 6.2799115342308482e+02 -4.5013783787324741e+02 0.0000000000000000e+00 0.0000000000000000e+00 0.0000000000000000e+00 0.0000000000000000e+00  -1.7238277413767573e+03 6.7528231879276916e+02 0.0000000000000000e+00 6.7528231879276802e+02 -4.2871663433861033e+02 0.0000000000000000e+00 0.0000000000000000e+00 0.0000000000000000e+00 0.0000000000000000e+00  -1.7940874061038671e+03 3.7454860343259634e+02 0.0000000000000000e+00 3.7454860343259605e+02 -2.4531730389894807e+02 0.0000000000000000e+00 0.0000000000000000e+00 0.0000000000000000e+00 0.0000000000000000e+00  -8.1344570289674550e+02 3.6048787420929763e+01 0.0000000000000000e+00 3.6048787420929145e+01 5.2522535206388120e+01 0.0000000000000000e+00 0.0000000000000000e+00 0.0000000000000000e+00 0.0000000000000000e+00  9.0692022351037792e+02 6.6484581331083655e+02 0.0000000000000000e+00 6.6484581331083677e+02 4.0038464433958205e+02 0.0000000000000000e+00 0.0000000000000000e+00 0.0000000000000000e+00 0.0000000000000000e+00  1.8826244154518381e+03 1.6830971249863139e+03 0.0000000000000000e+00 1.6830971249863139e+03 1.9844642993859884e+03 0.0000000000000000e+00 0.0000000000000000e+00 0.0000000000000000e+00 0.0000000000000000e+00  1.6187072574414472e+03 2.5860075212944948e+03 0.0000000000000000e+00 2.5860075212944948e+03 4.4170402959984413e+03 0.0000000000000000e+00 0.0000000000000000e+00 0.0000000000000000e+00 0.0000000000000000e+00  1.0345408997091065e+03 1.6312366080037516e+03 0.0000000000000000e+00 1.6312366080037532e+03 6.5501764740708750e+03 0.0000000000000000e+00 0.0000000000000000e+00 0.0000000000000000e+00 0.0000000000000000e+00  3.1682381093301024e+02 -2.0799263176226336e+02 0.0000000000000000e+00 -2.0799263176226339e+02 3.0235414080454752e+03 0.0000000000000000e+00 0.0000000000000000e+00 0.0000000000000000e+00 0.0000000000000000e+00  -6.3819674022735484e+01 2.7117203050945804e+01 0.0000000000000000e+00 2.7117203050945797e+01 2.6447217940177784e+03 0.0000000000000000e+00 0.0000000000000000e+00 0.0000000000000000e+00 0.0000000000000000e+00  1.7512750743091348e+02 2.8365920292978761e+00 0.0000000000000000e+00 2.8365920292978997e+00 2.0402375509067851e+03 0.0000000000000000e+00 0.0000000000000000e+00 0.0000000000000000e+00 0.0000000000000000e+00  5.2474656185642363e+00 2.4343037920614059e+01 0.0000000000000000e+00 2.4343037920614073e+01 1.7216236338653478e+03 0.0000000000000000e+00 0.0000000000000000e+00 0.0000000000000000e+00 0.0000000000000000e+00  6.3894434596506727e+01 2.7757630814527065e+01 0.0000000000000000e+00 2.7757630814527037e+01 1.3596915327475738e+03 0.0000000000000000e+00 0.0000000000000000e+00 0.0000000000000000e+00 0.0000000000000000e+00  -2.5641797592763368e+01 1.8017772689190735e+01 0.0000000000000000e+00 1.8017772689190743e+01 1.0321447239127299e+03 0.0000000000000000e+00 0.0000000000000000e+00 0.0000000000000000e+00 0.0000000000000000e+00  -5.2617388427804819e+01 8.3839180397866606e+00 0.0000000000000000e+00 8.3839180397866730e+00 7.4721272018414311e+02 0.0000000000000000e+00 0.0000000000000000e+00 0.0000000000000000e+00 0.0000000000000000e+00  -1.0599050618919421e+02 6.5101937397112390e+00 0.0000000000000000e+00 6.5101937397112382e+00 4.7289315543401972e+02 0.0000000000000000e+00 0.0000000000000000e+00 0.0000000000000000e+00 0.0000000000000000e+00  -1.0171462820427818e+02 6.9204966189273449e+00 0.0000000000000000e+00 6.9204966189273360e+00 1.9756033193881296e+02 0.0000000000000000e+00 0.0000000000000000e+00 0.0000000000000000e+00 0.0000000000000000e+00  -1.2289745318877711e+02 1.0630394654871393e+01 0.0000000000000000e+00 1.0630394654871358e+01 -2.1252641132942355e+01 0.0000000000000000e+00 0.0000000000000000e+00 0.0000000000000000e+00 0.0000000000000000e+00  -1.7706207318187185e+02 8.4962541634014848e+00 0.0000000000000000e+00 8.4962541634014457e+00 -1.0653089278964093e+02 0.0000000000000000e+00 0.0000000000000000e+00 0.0000000000000000e+00 0.0000000000000000e+00  -2.2185241953866628e+02 1.8251727549629346e-01 0.0000000000000000e+00 1.8251727549630462e-01 -1.0683669194416439e+02 0.0000000000000000e+00 0.0000000000000000e+00 0.0000000000000000e+00 0.0000000000000000e+00  -2.5789628184002709e+02 2.3211435658610542e+00 0.0000000000000000e+00 2.3211435658610458e+00 -5.3065830572339408e+01 0.0000000000000000e+00 0.0000000000000000e+00 0.0000000000000000e+00 0.0000000000000000e+00  -2.8229122485352582e+02 -4.8469795367555033e+00 0.0000000000000000e+00 -4.8469795367554784e+00 4.9730227445054517e+01 0.0000000000000000e+00 0.0000000000000000e+00 0.0000000000000000e+00 0.0000000000000000e+00  -3.5706058423967175e+02 4.7226693691009700e+00 0.0000000000000000e+00 4.7226693691008661e+00 2.8463992858737191e+02 0.0000000000000000e+00 0.0000000000000000e+00 0.0000000000000000e+00 0.0000000000000000e+00  -5.3605758123267822e+02 1.8210601206246167e+01 0.0000000000000000e+00 1.8210601206246135e+01 6.1329406698086132e+02 0.0000000000000000e+00 0.0000000000000000e+00 0.0000000000000000e+00 0.0000000000000000e+00  -8.3671270396806528e+02 4.0725557002970447e+01 0.0000000000000000e+00 4.0725557002970390e+01 8.9143725467466436e+02 0.0000000000000000e+00 0.0000000000000000e+00 0.0000000000000000e+00 0.0000000000000000e+00  -9.5803124518760944e+02 -4.2498728559590781e+01 0.0000000000000000e+00 -4.2498728559590774e+01 5.9239592890295944e+02 0.0000000000000000e+00 0.0000000000000000e+00 0.0000000000000000e+00 0.0000000000000000e+00  -7.2777084782386089e+02 4.7845325987352876e+00 0.0000000000000000e+00 4.7845325987352796e+00 -6.9318617682258406e+01 0.0000000000000000e+00 0.0000000000000000e+00 0.0000000000000000e+00 0.0000000000000000e+00  -8.4368801535314117e+02 3.6200778621201941e+01 0.0000000000000000e+00 3.6200778621202055e+01 3.8376679939010614e+02 0.0000000000000000e+00 0.0000000000000000e+00 0.0000000000000000e+00 0.0000000000000000e+00  -6.9650848371792779e+02 -2.5723203608305415e+01 0.0000000000000000e+00 -2.5723203608305461e+01 7.8869830343938918e+02 0.0000000000000000e+00 0.0000000000000000e+00 0.0000000000000000e+00 0.0000000000000000e+00  -3.0733500940213514e+02 -3.6629142049697791e+01 0.0000000000000000e+00 -3.6629142049697641e+01 4.7749599104668687e+02 0.0000000000000000e+00 0.0000000000000000e+00 0.0000000000000000e+00 0.0000000000000000e+00  9.2540061455284487e+01 -1.9532433341284136e+01 0.0000000000000000e+00 -1.9532433341284086e+01 3.6211850460361484e+02 0.0000000000000000e+00 0.0000000000000000e+00 0.0000000000000000e+00 0.0000000000000000e+00  1.6936733214774952e+02 -1.3688101557266346e+01 0.0000000000000000e+00 -1.3688101557266343e+01 5.0439891699155515e+02 0.0000000000000000e+00 0.0000000000000000e+00 0.0000000000000000e+00 0.0000000000000000e+00  1.9224345809035202e+02 -1.0173799169908948e+01 0.0000000000000000e+00 -1.0173799169908945e+01 9.1318385503559011e+02 0.0000000000000000e+00 0.0000000000000000e+00 0.0000000000000000e+00 0.0000000000000000e+00  1.5060073247239433e+02 -2.2381982680444299e+01 0.0000000000000000e+00 -2.2381982680444324e+01 1.4295354029723935e+03 0.0000000000000000e+00 0.0000000000000000e+00 0.0000000000000000e+00 0.0000000000000000e+00  1.5363392305529479e+02 -1.8436260984245223e+01 0.0000000000000000e+00 -1.8436260984245180e+01 2.0320476696603116e+03 0.0000000000000000e+00 0.0000000000000000e+00 0.0000000000000000e+00 0.0000000000000000e+00  3.6593521061626625e+01 -1.2658413939645579e+01 0.0000000000000000e+00 -1.2658413939645612e+01 2.7072117271102993e+03 0.0000000000000000e+00 0.0000000000000000e+00 0.0000000000000000e+00 0.0000000000000000e+00  5.7797443375267257e+01 -1.9020496241351701e+01 0.0000000000000000e+00 -1.9020496241351722e+01 3.2840856103878100e+03 0.0000000000000000e+00 0.0000000000000000e+00 0.0000000000000000e+00 0.0000000000000000e+00  9.1984972004110277e-01 2.7780691541623593e+01 0.0000000000000000e+00 2.7780691541623604e+01 3.7512476716286242e+03 0.0000000000000000e+00 0.0000000000000000e+00 0.0000000000000000e+00 0.0000000000000000e+00  2.3306352047058367e+00 8.8329877840393056e+00 0.0000000000000000e+00 8.8329877840393465e+00 3.8767538375774820e+03 0.0000000000000000e+00 0.0000000000000000e+00 0.0000000000000000e+00 0.0000000000000000e+00  -3.9493033517187111e+00 2.4736180756790748e+01 0.0000000000000000e+00 2.4736180756790802e+01 3.9522708428067531e+03 0.0000000000000000e+00 0.0000000000000000e+00 0.0000000000000000e+00 0.0000000000000000e+00  -4.8846558551771500e+00 8.6176695878876899e+00 0.0000000000000000e+00 8.6176695878877059e+00 4.0702643362128797e+03 0.0000000000000000e+00 0.0000000000000000e+00 0.0000000000000000e+00 0.0000000000000000e+00  1.0192922335155339e+01 7.8781589331630029e+00 0.0000000000000000e+00 7.8781589331629540e+00 4.2142791485501648e+03 0.0000000000000000e+00 0.0000000000000000e+00 0.0000000000000000e+00 0.0000000000000000e+00  -2.8611414638822388e+00 3.4570813083986081e+01 0.0000000000000000e+00 3.4570813083985854e+01 4.2624791404225480e+03 0.0000000000000000e+00 0.0000000000000000e+00 0.0000000000000000e+00 0.0000000000000000e+00  -2.1996978724686556e+01 4.6355695326309565e+01 0.0000000000000000e+00 4.6355695326309423e+01 4.5904579712338718e+03 0.0000000000000000e+00 0.0000000000000000e+00 0.0000000000000000e+00 0.0000000000000000e+00  -1.6287019795187813e-01 9.0162471873475553e+01 0.0000000000000000e+00 9.0162471873475752e+01 4.9866472119991922e+03 0.0000000000000000e+00 0.0000000000000000e+00 0.0000000000000000e+00 0.0000000000000000e+00  -2.3959455261738924e+01 2.7148175613982474e+01 0.0000000000000000e+00 2.7148175613982474e+01 5.5496328438462151e+03 0.0000000000000000e+00 0.0000000000000000e+00 0.0000000000000000e+00 0.0000000000000000e+00  -5.1951350194220687e+01 -8.2655891260200647e+01 0.0000000000000000e+00 -8.2655891260200605e+01 5.4478948938240401e+03 0.0000000000000000e+00 0.0000000000000000e+00 0.0000000000000000e+00 0.0000000000000000e+00  -8.8018811658338223e+01 -3.1744634414573346e+02 0.0000000000000000e+00 -3.1744634414573329e+02 4.6393104428186452e+03 0.0000000000000000e+00 0.0000000000000000e+00 0.0000000000000000e+00 0.0000000000000000e+00  -5.9268206933265297e+01 -4.4617574497889507e+02 0.0000000000000000e+00 -4.4617574497889501e+02 3.3442365421189893e+03 0.0000000000000000e+00 0.0000000000000000e+00 0.0000000000000000e+00 0.0000000000000000e+00  1.3805229723987037e+02 9.2290116879870880e+01 0.0000000000000000e+00 9.2290116879870794e+01 1.8463033270374906e+03 0.0000000000000000e+00 0.0000000000000000e+00 0.0000000000000000e+00 0.0000000000000000e+00  1.0532419427849049e+02 2.6626738313614260e+02 0.0000000000000000e+00 2.6626738313614266e+02 1.9105271687639672e+03 0.0000000000000000e+00 0.0000000000000000e+00 0.0000000000000000e+00 0.0000000000000000e+00  3.8351477858484287e+01 3.5240134235582531e+02 0.0000000000000000e+00 3.5240134235582542e+02 4.3257208402357119e+03 0.0000000000000000e+00 0.0000000000000000e+00 0.0000000000000000e+00 0.0000000000000000e+00  -2.1093558929716791e+00 2.6103857896262969e+02 0.0000000000000000e+00 2.6103857896262895e+02 6.4516037188966193e+03 0.0000000000000000e+00 0.0000000000000000e+00 0.0000000000000000e+00 0.0000000000000000e+00  6.1235898671771647e+00 -2.9993947778771098e+02 0.0000000000000000e+00 -2.9993947778771110e+02 6.9232201786909563e+03 0.0000000000000000e+00 0.0000000000000000e+00 0.0000000000000000e+00 0.0000000000000000e+00  8.5115474578320843e+01 -1.0830247794865352e+02 0.0000000000000000e+00 -1.0830247794865394e+02 4.6228986582533589e+03 0.0000000000000000e+00 0.0000000000000000e+00 0.0000000000000000e+00 0.0000000000000000e+00  -1.4027291401167446e+02 2.0062214980289417e+02 0.0000000000000000e+00 2.0062214980289411e+02 5.8161807757230972e+03 0.0000000000000000e+00 0.0000000000000000e+00 0.0000000000000000e+00 0.0000000000000000e+00  -6.4502165392312962e+00 -1.4824215274981415e+02 0.0000000000000000e+00 -1.4824215274981390e+02 5.6490531435050152e+03 0.0000000000000000e+00 0.0000000000000000e+00 0.0000000000000000e+00 0.0000000000000000e+00  -3.0119753841264679e+01 -1.7875796168510288e+02 0.0000000000000000e+00 -1.7875796168510212e+02 4.3323820792413544e+03 0.0000000000000000e+00 0.0000000000000000e+00 0.0000000000000000e+00 0.0000000000000000e+00  4.2535642848922109e+01 -4.2346325358460737e+00 0.0000000000000000e+00 -4.2346325358462922e+00 4.0297167752175533e+03 0.0000000000000000e+00 0.0000000000000000e+00 0.0000000000000000e+00 0.0000000000000000e+00  -2.8331434214152317e+01 -4.8658320129907615e+00 0.0000000000000000e+00 -4.8658320129907544e+00 3.9320985103288531e+03 0.0000000000000000e+00 0.0000000000000000e+00 0.0000000000000000e+00 0.0000000000000000e+00