<?xml version="1.0"?>
<VTKFile type="UnstructuredGrid"  version="0.1"  >
<UnstructuredGrid>
<Piece  NumberOfPoints="3879" NumberOfCells="6881">
<Points>
<DataArray  type="Float64"  NumberOfComponents="3"  format="ascii">0.207524190028372 0.2122422770132111 0  0 0 0  1 0 0  0 1 0  1 1 0  0.6249674373315121 0.2590146544375328 0  0.204663578893616 0.322657230836866 0  0.09605577522599912 0.4018360776629776 0  0.671351124618251 0.08738059142081528 0  0.7842102907526436 0.1666439122351055 0  0.8512483166984784 0.1985391006160637 0  0.6418797837909295 0.4423157172830166 0  0.9292488447973215 0.3869277868069776 0  0.3197896119137055 0.5509935221980964 0  0.3979283685568406 0.5079871620336583 0  0.1572503457993085 0.7345153245035532 0  0.3032914287999163 0.7872981443735918 0  0.3549464687598876 0.8870324161721976 0  0.9691791685505482 0.5159450047798622 0  0.9447564590470373 0.6146164845729313 0  0.7687603548175107 0.7176858127488035 0  0.8926159261971183 0.7422924070424508 0  0.2061587782631535 0.2217389244366831 0  0.2021731605082994 0.2304662099646423 0  0.1958902278109265 0.2377171008267789 0  0.1878189860121365 0.2429041729681512 0  0.1786133191209442 0.2456072006525708 0  0.1690190155206647 0.2456072006525708 0  0.1598133486294724 0.2429041729681512 0  0.1517421068306824 0.2377171008267789 0  0.1454591741333096 0.2304662099646422 0  0.1414735563784554 0.221738924436683 0  0.1401081446132369 0.212242277013211 0  0.1414735563784555 0.202745629589739 0  0.1454591741333096 0.1940183440617798 0  0.1517421068306825 0.1867674531996431 0  0.1598133486294725 0.1815803810582709 0  0.1690190155206649 0.1788773533738513 0  0.1786133191209443 0.1788773533738514 0  0.1878189860121367 0.181580381058271 0  0.1958902278109266 0.1867674531996433 0  0.2021731605082994 0.19401834406178 0  0.2061587782631535 0.2027456295897391 0  0.03333333333333333 0 0  0.06666666666666667 0 0  0.1 0 0  0.1333333333333333 0 0  0.1666666666666667 0 0  0.2 0 0  0.2333333333333333 0 0  0.2666666666666667 0 0  0.3 0 0  0.3333333333333333 0 0  0.3666666666666666 0 0  0.4 0 0  0.4333333333333333 0 0  0.4666666666666667 0 0  0.5 0 0  0.5333333333333333 0 0  0.5666666666666667 0 0  0.6 0 0  0.6333333333333333 0 0  0.6666666666666666 0 0  0.7 0 0  0.7333333333333333 0 0  0.7666666666666667 0 0  0.8 0 0  0.8333333333333334 0 0  0.8666666666666667 0 0  0.9 0 0  0.9333333333333333 0 0  0.9666666666666667 0 0  0 0.9666666666666667 0  0 0.9333333333333333 0  0 0.9 0  0 0.8666666666666667 0  0 0.8333333333333334 0  0 0.8 0  0 0.7666666666666666 0  0 0.7333333333333334 0  0 0.7 0  0 0.6666666666666667 0  0 0.6333333333333333 0  0 0.6 0  0 0.5666666666666667 0  0 0.5333333333333333 0  0 0.5 0  0 0.4666666666666667 0  0 0.4333333333333333 0  0 0.4 0  0 0.3666666666666667 0  0 0.3333333333333334 0  0 0.3 0  0 0.2666666666666667 0  0 0.2333333333333333 0  0 0.2 0  0 0.1666666666666666 0  0 0.1333333333333333 0  0 0.09999999999999998 0  0 0.06666666666666665 0  0 0.03333333333333333 0  1 0.03333333333333333 0  1 0.06666666666666667 0  1 0.1 0  1 0.1333333333333333 0  1 0.1666666666666667 0  1 0.2 0  1 0.2333333333333333 0  1 0.2666666666666667 0  1 0.3 0  1 0.3333333333333333 0  1 0.3666666666666666 0  1 0.4 0  1 0.4333333333333333 0  1 0.4666666666666667 0  1 0.5 0  1 0.5333333333333333 0  1 0.5666666666666667 0  1 0.6 0  1 0.6333333333333333 0  1 0.6666666666666666 0  1 0.7 0  1 0.7333333333333333 0  1 0.7666666666666667 0  1 0.8 0  1 0.8333333333333334 0  1 0.8666666666666667 0  1 0.9 0  1 0.9333333333333333 0  1 0.9666666666666667 0  0.9666666666666667 1 0  0.9333333333333333 1 0  0.9 1 0  0.8666666666666667 1 0  0.8333333333333334 1 0  0.8 1 0  0.7666666666666666 1 0  0.7333333333333334 1 0  0.7 1 0  0.6666666666666667 1 0  0.6333333333333333 1 0  0.6 1 0  0.5666666666666667 1 0  0.5333333333333333 1 0  0.5 1 0  0.4666666666666667 1 0  0.4333333333333333 1 0  0.4 1 0  0.3666666666666667 1 0  0.3333333333333334 1 0  0.3 1 0  0.2666666666666667 1 0  0.2333333333333333 1 0  0.2 1 0  0.1666666666666666 1 0  0.1333333333333333 1 0  0.09999999999999998 1 0  0.06666666666666665 1 0  0.03333333333333333 1 0  0.6247072676344306 0.2689501343248463 0  0.6239274716502419 0.2788583817523955 0  0.6226301867455355 0.2887122389026952 0  0.6208189686880621 0.2984846970382296 0  0.6184987819006211 0.3081489705305245 0  0.6156759858539226 0.317678570277693 0  0.6123583176357204 0.3270473763092224 0  0.6085548707439923 0.3362297093789981 0  0.6042760701622942 0.3452004013503318 0  0.5995336437856049 0.3539348641800754 0  0.5943405902749808 0.3624091573127375 0  0.5887111434291297 0.3706000532998825 0  0.582660733170558 0.3784851014649517 0  0.5762059432532257 0.3860426894390078 0  0.5693644658076293 0.3932521023987353 0  0.5621550528479018 0.4000935798443317 0  0.5545974648738458 0.4065483697616639 0  0.5467124167087765 0.4125987800202355 0  0.5385215207216315 0.4182282268660866 0  0.5300472275889694 0.4234212803767108 0  0.5213127647592257 0.4281637067534002 0  0.512342072787892 0.4324425073350981 0  0.5031597397181163 0.4362459542268262 0  0.493790933686587 0.4395636224450283 0  0.4842613339394185 0.4423864184917269 0  0.4745970604471235 0.4447066052791678 0  0.4648246023115891 0.4465178233366412 0  0.4549707451612894 0.4478151082413475 0  0.4450624977337403 0.4485949042255363 0  0.4351270178464268 0.4488550739226177 0  0.4251915379591132 0.4485949042255363 0  0.4152832905315641 0.4478151082413475 0  0.4054294333812644 0.4465178233366411 0  0.39565697524573 0.4447066052791677 0  0.385992701753435 0.4423864184917267 0  0.3764631020062665 0.4395636224450281 0  0.3670942959747371 0.4362459542268259 0  0.3579119629049616 0.4324425073350978 0  0.3489412709336278 0.4281637067533998 0  0.3402068081038843 0.4234212803767103 0  0.3317325149712221 0.4182282268660862 0  0.3235416189840771 0.412598780020235 0  0.3156565708190078 0.4065483697616634 0  0.3080989828449519 0.4000935798443311 0  0.3008895698852244 0.3932521023987346 0  0.2940480924396279 0.3860426894390071 0  0.2875933025222958 0.3784851014649511 0  0.2815428922637242 0.3706000532998818 0  0.2759134454178731 0.3624091573127368 0  0.2707203919072489 0.3539348641800746 0  0.2659779655305596 0.3452004013503309 0  0.2616991649488616 0.3362297093789972 0  0.2578957180571336 0.3270473763092215 0  0.2545780498389315 0.3176785702776921 0  0.251755253792233 0.3081489705305236 0  0.249435067004792 0.2984846970382286 0  0.2476238489473186 0.2887122389026941 0  0.2463265640426123 0.2788583817523945 0  0.2455467680584236 0.2689501343248454 0  0.2452865983613423 0.2590146544375318 0  0.2455467680584237 0.2490791745502182 0  0.2463265640426126 0.2391709271226692 0  0.247623848947319 0.2293170699723696 0  0.2494350670047924 0.2195446118368351 0  0.2517552537922335 0.2098803383445402 0  0.2545780498389321 0.2003507385973717 0  0.2578957180571343 0.1909819325658423 0  0.2616991649488624 0.1817995994960667 0  0.2659779655305604 0.172828907524733 0  0.2707203919072498 0.1640944446949895 0  0.2759134454178741 0.1556201515623273 0  0.2815428922637251 0.1474292555751825 0  0.2875933025222969 0.1395442074101132 0  0.2940480924396291 0.1319866194360571 0  0.3008895698852256 0.1247772064763297 0  0.3080989828449531 0.1179357290307334 0  0.3156565708190092 0.1114809391134012 0  0.3235416189840785 0.1054305288548295 0  0.3317325149712236 0.09980108200897844 0  0.3402068081038856 0.0946080284983544 0  0.3489412709336291 0.08986560212166514 0  0.357911962904963 0.08558680153996717 0  0.3670942959747386 0.08178335464823916 0  0.3764631020062678 0.07846568643003712 0  0.3859927017534364 0.0756428903833386 0  0.3956569752457313 0.0733227035958976 0  0.4054294333812659 0.07151148553842429 0  0.4152832905315654 0.07021420063371797 0  0.4251915379591144 0.0694344046495293 0  0.435127017846428 0.0691742349524479 0  0.4450624977337415 0.06943440464952938 0  0.4549707451612905 0.07021420063371814 0  0.4648246023115901 0.07151148553842454 0  0.4745970604471245 0.07332270359589793 0  0.4842613339394195 0.07564289038333902 0  0.4937909336865879 0.07846568643003757 0  0.5031597397181173 0.0817833546482398 0  0.5123420727878929 0.08558680153996781 0  0.5213127647592265 0.08986560212166581 0  0.53004722758897 0.0946080284983552 0  0.5385215207216321 0.09980108200897933 0  0.5467124167087771 0.1054305288548305 0  0.5545974648738462 0.1114809391134021 0  0.5621550528479023 0.1179357290307343 0  0.5693644658076298 0.1247772064763308 0  0.576205943253226 0.1319866194360582 0  0.5826607331705582 0.1395442074101142 0  0.5887111434291299 0.1474292555751835 0  0.594340590274981 0.1556201515623285 0  0.5995336437856051 0.1640944446949906 0  0.6042760701622945 0.172828907524734 0  0.6085548707439925 0.1817995994960678 0  0.6123583176357205 0.1909819325658435 0  0.6156759858539227 0.2003507385973728 0  0.6184987819006211 0.2098803383445412 0  0.6208189686880622 0.2195446118368362 0  0.6226301867455355 0.2293170699723706 0  0.6239274716502419 0.2391709271226702 0  0.6247072676344306 0.2490791745502192 0  0.203885768735257 0.3325402459548524 0  0.2015714905276826 0.3421799084407872 0  0.1977777294810124 0.3513388578120612 0  0.1925979005829864 0.3597915703383434 0  0.1861595484119405 0.3673299121842922 0  0.1786212065659918 0.373768264355338 0  0.1701684940397096 0.378948093253364 0  0.1610095446684356 0.3827418543000342 0  0.1513698821825007 0.3850561325076086 0  0.1414868670645144 0.3858339426659677 0  0.1316038519465281 0.3850561325076086 0  0.1219641894605933 0.3827418543000343 0  0.1128052400893193 0.378948093253364 0  0.1043525275630371 0.3737682643553381 0  0.09681418571708833 0.3673299121842922 0  0.09037583354604248 0.3597915703383434 0  0.08519600464801645 0.3513388578120612 0  0.08140224360134621 0.3421799084407872 0  0.07908796539377183 0.3325402459548523 0  0.07831015523541281 0.3226572308368659 0  0.07908796539377186 0.3127742157188796 0  0.08140224360134626 0.3031345532329447 0  0.08519600464801655 0.2939756038616707 0  0.0903758335460426 0.2855228913353884 0  0.0968141857
[...]
<PointData  Tensors="$\sigma$"> 
<DataArray  type="Float64"  Name="$\sigma$"  NumberOfComponents="9" format="ascii">1.0187687849639227e+02 3.3981671688980327e+01 0.0000000000000000e+00 3.3981671688980235e+01 5.4893375824471923e+03 0.0000000000000000e+00 0.0000000000000000e+00 0.0000000000000000e+00 0.0000000000000000e+00  6.7194957981256630e+02 7.1795564413641429e+01 0.0000000000000000e+00 7.1795564413641429e+01 2.7562161501996147e+03 0.0000000000000000e+00 0.0000000000000000e+00 0.0000000000000000e+00 0.0000000000000000e+00  -9.8941076326189741e+00 -1.0639984527322099e+01 0.0000000000000000e+00 -1.0639984527322099e+01 2.9453329737134013e+03 0.0000000000000000e+00 0.0000000000000000e+00 0.0000000000000000e+00 0.0000000000000000e+00  6.6911620385534265e+00 -3.4552761443577422e+00 0.0000000000000000e+00 -3.4552761443577498e+00 2.8371468485432888e+03 0.0000000000000000e+00 0.0000000000000000e+00 0.0000000000000000e+00 0.0000000000000000e+00  6.9960622970388782e+00 5.7483304771355686e+00 0.0000000000000000e+00 5.7483304771355677e+00 2.6973631458313585e+03 0.0000000000000000e+00 0.0000000000000000e+00 0.0000000000000000e+00 0.0000000000000000e+00  5.8779450522707613e+01 5.8541264883784770e+01 0.0000000000000000e+00 5.8541264883784919e+01 5.4625913637125668e+03 0.0000000000000000e+00 0.0000000000000000e+00 0.0000000000000000e+00 0.0000000000000000e+00  -4.7549628444271811e+01 1.4388423961853715e+02 0.0000000000000000e+00 1.4388423961853718e+02 2.0341482636375849e+02 0.0000000000000000e+00 0.0000000000000000e+00 0.0000000000000000e+00 0.0000000000000000e+00  4.2491994529366497e+02 2.8511016003466898e+02 0.0000000000000000e+00 2.8511016003466898e+02 5.9859312576404100e+03 0.0000000000000000e+00 0.0000000000000000e+00 0.0000000000000000e+00 0.0000000000000000e+00  1.9794912605706230e+02 -2.4328910016149823e+02 0.0000000000000000e+00 -2.4328910016149823e+02 5.4788847298814699e+03 0.0000000000000000e+00 0.0000000000000000e+00 0.0000000000000000e+00 0.0000000000000000e+00  -9.7940705865563629e+01 1.6249176693190698e+01 0.0000000000000000e+00 1.6249176693190989e+01 -8.7484915844968683e+01 0.0000000000000000e+00 0.0000000000000000e+00 0.0000000000000000e+00 0.0000000000000000e+00  -2.3669247459967655e-02 -1.6048813536402111e+01 0.0000000000000000e+00 -1.6048813536402061e+01 -2.3526110861048871e+01 0.0000000000000000e+00 0.0000000000000000e+00 0.0000000000000000e+00 0.0000000000000000e+00  9.6294705902305054e+01 2.6406769279679230e+02 0.0000000000000000e+00 2.6406769279679241e+02 3.0751001511590489e+03 0.0000000000000000e+00 0.0000000000000000e+00 0.0000000000000000e+00 0.0000000000000000e+00  -3.5051384284040516e+01 5.5721398442943197e+01 0.0000000000000000e+00 5.5721398442943197e+01 7.0730448150429575e+03 0.0000000000000000e+00 0.0000000000000000e+00 0.0000000000000000e+00 0.0000000000000000e+00  4.4855486079192964e+01 6.0317373782445109e+01 0.0000000000000000e+00 6.0317373782445131e+01 5.6461991511392098e+03 0.0000000000000000e+00 0.0000000000000000e+00 0.0000000000000000e+00 0.0000000000000000e+00  -4.8113395006186636e+01 -1.3145458543252821e+02 0.0000000000000000e+00 -1.3145458543252872e+02 -6.7252955817069108e+02 0.0000000000000000e+00 0.0000000000000000e+00 0.0000000000000000e+00 0.0000000000000000e+00  -8.7152253164325899e+01 -1.0837330392700238e+02 0.0000000000000000e+00 -1.0837330392700207e+02 -2.2297096499442912e+02 0.0000000000000000e+00 0.0000000000000000e+00 0.0000000000000000e+00 0.0000000000000000e+00  3.5300994573271744e+01 -1.1035316846287749e+02 0.0000000000000000e+00 -1.1035316846287758e+02 3.5616713370419070e+03 0.0000000000000000e+00 0.0000000000000000e+00 0.0000000000000000e+00 0.0000000000000000e+00  1.0470952451635776e+02 7.7422981647516977e+01 0.0000000000000000e+00 7.7422981647517119e+01 4.2500206690587493e+03 0.0000000000000000e+00 0.0000000000000000e+00 0.0000000000000000e+00 0.0000000000000000e+00  1.1049604706329524e+03 1.0411440537485819e+03 0.0000000000000000e+00 1.0411440537485819e+03 1.3307477682960745e+04 0.0000000000000000e+00 0.0000000000000000e+00 0.0000000000000000e+00 0.0000000000000000e+00  1.7669906892561818e+02 -1.8270726440817248e+02 0.0000000000000000e+00 -1.8270726440817248e+02 6.6893296762193486e+03 0.0000000000000000e+00 0.0000000000000000e+00 0.0000000000000000e+00 0.0000000000000000e+00  3.6073113278367970e+01 9.8210383351435837e+01 0.0000000000000000e+00 9.8210383351435738e+01 4.1759207647782532e+03 0.0000000000000000e+00 0.0000000000000000e+00 0.0000000000000000e+00 0.0000000000000000e+00  9.4491617511091476e+01 2.7907048717962746e+00 0.0000000000000000e+00 2.7907048717963590e+00 2.2773830854143121e+03 0.0000000000000000e+00 0.0000000000000000e+00 0.0000000000000000e+00 0.0000000000000000e+00  2.4786259583686780e+02 -6.7309420742278689e+02 0.0000000000000000e+00 -6.7309420742278689e+02 3.4745102636832321e+03 0.0000000000000000e+00 0.0000000000000000e+00 0.0000000000000000e+00 0.0000000000000000e+00  -1.7084020651605664e+02 -2.0414369844951761e+02 0.0000000000000000e+00 -2.0414369844951764e+02 9.8639444190233166e+02 0.0000000000000000e+00 0.0000000000000000e+00 0.0000000000000000e+00 0.0000000000000000e+00  -1.0777880748433370e+03 6.6976294684119557e+02 0.0000000000000000e+00 6.6976294684119557e+02 -4.2101561159729692e+02 0.0000000000000000e+00 0.0000000000000000e+00 0.0000000000000000e+00 0.0000000000000000e+00  -2.0704193307489863e+03 7.3440044241445128e+02 0.0000000000000000e+00 7.3440044241445173e+02 -4.5995421731130062e+02 0.0000000000000000e+00 0.0000000000000000e+00 0.0000000000000000e+00 0.0000000000000000e+00  -1.6498076124775985e+03 4.8050217205314328e+02 0.0000000000000000e+00 4.8050217205314232e+02 -2.6845688639244156e+02 0.0000000000000000e+00 0.0000000000000000e+00 0.0000000000000000e+00 0.0000000000000000e+00  7.4616277977842037e+02 1.1512541303875087e+03 0.0000000000000000e+00 1.1512541303875087e+03 7.2193210954586846e+02 0.0000000000000000e+00 0.0000000000000000e+00 0.0000000000000000e+00 0.0000000000000000e+00  3.5011030636580749e+03 2.2997536015210330e+03 0.0000000000000000e+00 2.2997536015210330e+03 1.3785312666156397e+03 0.0000000000000000e+00 0.0000000000000000e+00 0.0000000000000000e+00 0.0000000000000000e+00  3.5232459028791832e+03 2.7629256514502290e+03 0.0000000000000000e+00 2.7629256514502299e+03 2.5681394627890140e+03 0.0000000000000000e+00 0.0000000000000000e+00 0.0000000000000000e+00 0.0000000000000000e+00  1.6699112044598351e+03 2.1437310665308960e+03 0.0000000000000000e+00 2.1437310665308960e+03 2.9699348052350351e+03 0.0000000000000000e+00 0.0000000000000000e+00 0.0000000000000000e+00 0.0000000000000000e+00  6.1365143113448892e+02 9.5953714201510263e+02 0.0000000000000000e+00 9.5953714201510309e+02 2.4903925502072270e+03 0.0000000000000000e+00 0.0000000000000000e+00 0.0000000000000000e+00 0.0000000000000000e+00  7.5555893037343679e+01 1.7080261288943319e+02 0.0000000000000000e+00 1.7080261288943299e+02 2.1462567715844589e+03 0.0000000000000000e+00 0.0000000000000000e+00 0.0000000000000000e+00 0.0000000000000000e+00  9.4783019663298901e+01 -1.7467115429534755e+02 0.0000000000000000e+00 -1.7467115429534746e+02 1.0721120362348729e+03 0.0000000000000000e+00 0.0000000000000000e+00 0.0000000000000000e+00 0.0000000000000000e+00  -8.7407161289110434e+01 6.2949529643761558e+01 0.0000000000000000e+00 6.2949529643761466e+01 1.3770294187189776e+02 0.0000000000000000e+00 0.0000000000000000e+00 0.0000000000000000e+00 0.0000000000000000e+00  -6.9328710501239755e+02 4.7547363321523477e+02 0.0000000000000000e+00 4.7547363321523477e+02 -3.3354660856662650e+02 0.0000000000000000e+00 0.0000000000000000e+00 0.0000000000000000e+00 0.0000000000000000e+00  -1.3170410712446021e+03 5.0811036953957131e+02 0.0000000000000000e+00 5.0811036953957074e+02 -3.2387455903128603e+02 0.0000000000000000e+00 0.0000000000000000e+00 0.0000000000000000e+00 0.0000000000000000e+00  -1.3665362031753107e+03 2.9011519529494467e+02 0.0000000000000000e+00 2.9011519529494427e+02 -1.9543601667325706e+02 0.0000000000000000e+00 0.0000000000000000e+00 0.0000000000000000e+00 0.0000000000000000e+00  -6.1894418936015143e+02 4.2385018167521800e+01 0.0000000000000000e+00 4.2385018167521835e+01 4.0023065328015939e+01 0.0000000000000000e+00 0.0000000000000000e+00 0.0000000000000000e+00 0.0000000000000000e+00  6.7954389332275491e+02 5.1813230332506362e+02 0.0000000000000000e+00 5.1813230332506362e+02 3.2598870904095321e+02 0.0000000000000000e+00 0.0000000000000000e+00 0.0000000000000000e+00 0.0000000000000000e+00  1.4209794415693077e+03 1.2830604057675439e+03 0.0000000000000000e+00 1.2830604057675441e+03 1.5468529413987771e+03 0.0000000000000000e+00 0.0000000000000000e+00 0.0000000000000000e+00 0.0000000000000000e+00  1.2356019487306442e+03 1.9691478567632773e+03 0.0000000000000000e+00 1.9691478567632769e+03 3.4054132906817258e+03 0.0000000000000000e+00 0.0000000000000000e+00 0.0000000000000000e+00 0.0000000000000000e+00  8.1494128826347799e+02 1.2308023326483001e+03 0.0000000000000000e+00 1.2308023326483012e+03 4.9933910667768332e+03 0.0000000000000000e+00 0.0000000000000000e+00 0.0000000000000000e+00 0.0000000000000000e+00  2.5218053725641872e+02 -1.5553983278978754e+02 0.0000000000000000e+00 -1.5553983278978748e+02 2.3122717481448103e+03 0.0000000000000000e+00 0.0000000000000000e+00 0.0000000000000000e+00 0.0000000000000000e+00  -5.2289997656856109e+01 1.7787257873456408e+01 0.0000000000000000e+00 1.7787257873456404e+01 2.0187020484860741e+03 0.0000000000000000e+00 0.0000000000000000e+00 0.0000000000000000e+00 0.0000000000000000e+00  1.2901608422518234e+02 5.5172455558972446e+00 0.0000000000000000e+00 5.5172455558972615e+00 1.5624726536644218e+03 0.0000000000000000e+00 0.0000000000000000e+00 0.0000000000000000e+00 0.0000000000000000e+00  8.7177815326921539e+00 1.7480412163041585e+01 0.0000000000000000e+00 1.7480412163041581e+01 1.3204027750800192e+03 0.0000000000000000e+00 0.0000000000000000e+00 0.0000000000000000e+00 0.0000000000000000e+00  4.6491498484049437e+01 2.2395912264512248e+01 0.0000000000000000e+00 2.2395912264512248e+01 1.0419487525293316e+03 0.0000000000000000e+00 0.0000000000000000e+00 0.0000000000000000e+00 0.0000000000000000e+00  -1.7894844100349648e+01 1.4447858521676114e+01 0.0000000000000000e+00 1.4447858521676130e+01 7.9018732430830721e+02 0.0000000000000000e+00 0.0000000000000000e+00 0.0000000000000000e+00 0.0000000000000000e+00  -4.0495349544074720e+01 7.0490613407932656e+00 0.0000000000000000e+00 7.0490613407932621e+00 5.7144378310976617e+02 0.0000000000000000e+00 0.0000000000000000e+00 0.0000000000000000e+00 0.0000000000000000e+00  -8.0481106547115900e+01 5.5434294196583549e+00 0.0000000000000000e+00 5.5434294196583540e+00 3.6343986197936198e+02 0.0000000000000000e+00 0.0000000000000000e+00 0.0000000000000000e+00 0.0000000000000000e+00  -7.7663524978477469e+01 5.9257496908931371e+00 0.0000000000000000e+00 5.9257496908931353e+00 1.5250388980153988e+02 0.0000000000000000e+00 0.0000000000000000e+00 0.0000000000000000e+00 0.0000000000000000e+00  -9.3565749310344799e+01 8.8051349981008027e+00 0.0000000000000000e+00 8.8051349981007956e+00 -1.6457744749198113e+01 0.0000000000000000e+00 0.0000000000000000e+00 0.0000000000000000e+00 0.0000000000000000e+00  -1.3525288767403910e+02 6.9599369701962726e+00 0.0000000000000000e+00 6.9599369701962823e+00 -8.1279688138054254e+01 0.0000000000000000e+00 0.0000000000000000e+00 0.0000000000000000e+00 0.0000000000000000e+00  -1.6943565333339080e+02 2.1646962836934114e-01 0.0000000000000000e+00 2.1646962836934949e-01 -8.1584712630617702e+01 0.0000000000000000e+00 0.0000000000000000e+00 0.0000000000000000e+00 0.0000000000000000e+00  -1.9725518679031148e+02 1.6514149101970674e+00 0.0000000000000000e+00 1.6514149101970674e+00 -4.0216517710632345e+01 0.0000000000000000e+00 0.0000000000000000e+00 0.0000000000000000e+00 0.0000000000000000e+00  -2.1490634681679364e+02 -3.6916347068085615e+00 0.0000000000000000e+00 -3.6916347068085451e+00 3.7828206049535204e+01 0.0000000000000000e+00 0.0000000000000000e+00 0.0000000000000000e+00 0.0000000000000000e+00  -2.7361334768768825e+02 4.1758204172784117e+00 0.0000000000000000e+00 4.1758204172783069e+00 2.1877845300566381e+02 0.0000000000000000e+00 0.0000000000000000e+00 0.0000000000000000e+00 0.0000000000000000e+00  -4.0694284333964850e+02 1.5855198842982954e+01 0.0000000000000000e+00 1.5855198842982849e+01 4.6959773332734790e+02 0.0000000000000000e+00 0.0000000000000000e+00 0.0000000000000000e+00 0.0000000000000000e+00  -6.3998722928583686e+02 3.1913479465705702e+01 0.0000000000000000e+00 3.1913479465705706e+01 6.8012205391600287e+02 0.0000000000000000e+00 0.0000000000000000e+00 0.0000000000000000e+00 0.0000000000000000e+00  -7.3064678841841373e+02 -3.2438285316604848e+01 0.0000000000000000e+00 -3.2438285316604826e+01 4.5328910735059679e+02 0.0000000000000000e+00 0.0000000000000000e+00 0.0000000000000000e+00 0.0000000000000000e+00  -5.5380835249194365e+02 2.3884041392249005e+00 0.0000000000000000e+00 2.3884041392248840e+00 -4.9968813257731661e+01 0.0000000000000000e+00 0.0000000000000000e+00 0.0000000000000000e+00 0.0000000000000000e+00  -6.4354749707104429e+02 2.7765038668220523e+01 0.0000000000000000e+00 2.7765038668220555e+01 2.9545004257655586e+02 0.0000000000000000e+00 0.0000000000000000e+00 0.0000000000000000e+00 0.0000000000000000e+00  -5.3156017418186195e+02 -1.9786481572601083e+01 0.0000000000000000e+00 -1.9786481572601190e+01 6.0173869012037244e+02 0.0000000000000000e+00 0.0000000000000000e+00 0.0000000000000000e+00 0.0000000000000000e+00  -2.3349861420473951e+02 -2.9819478168749949e+01 0.0000000000000000e+00 -2.9819478168749914e+01 3.6384554045560947e+02 0.0000000000000000e+00 0.0000000000000000e+00 0.0000000000000000e+00 0.0000000000000000e+00  7.0955667073673467e+01 -1.5718993982306969e+01 0.0000000000000000e+00 -1.5718993982306959e+01 2.7575140527335157e+02 0.0000000000000000e+00 0.0000000000000000e+00 0.0000000000000000e+00 0.0000000000000000e+00  1.3069848504711499e+02 -1.1973794267673055e+01 0.0000000000000000e+00 -1.1973794267673059e+01 3.8764625176684507e+02 0.0000000000000000e+00 0.0000000000000000e+00 0.0000000000000000e+00 0.0000000000000000e+00  1.4746872823126432e+02 -8.8235620219787148e+00 0.0000000000000000e+00 -8.8235620219787165e+00 7.0044785929720524e+02 0.0000000000000000e+00 0.0000000000000000e+00 0.0000000000000000e+00 0.0000000000000000e+00  1.1649902909048676e+02 -1.8972375190441664e+01 0.0000000000000000e+00 -1.8972375190441667e+01 1.0970211906191846e+03 0.0000000000000000e+00 0.0000000000000000e+00 0.0000000000000000e+00 0.0000000000000000e+00  1.1679833971819295e+02 -1.5061588487454113e+01 0.0000000000000000e+00 -1.5061588487454099e+01 1.5582549112027032e+03 0.0000000000000000e+00 0.0000000000000000e+00 0.0000000000000000e+00 0.0000000000000000e+00  2.9126100969186066e+01 -1.0314803272087032e+01 0.0000000000000000e+00 -1.0314803272087033e+01 2.0782340911005358e+03 0.0000000000000000e+00 0.0000000000000000e+00 0.0000000000000000e+00 0.0000000000000000e+00  4.4314048518652392e+01 -1.4851051575713912e+01 0.0000000000000000e+00 -1.4851051575713919e+01 2.5139905431413304e+03 0.0000000000000000e+00 0.0000000000000000e+00 0.0000000000000000e+00 0.0000000000000000e+00  -4.3184040055410416e-01 2.2676861631721390e+01 0.0000000000000000e+00 2.2676861631721383e+01 2.8714184278325629e+03 0.0000000000000000e+00 0.0000000000000000e+00 0.0000000000000000e+00 0.0000000000000000e+00  2.1093247930849524e+00 5.9792856317199385e+00 0.0000000000000000e+00 5.9792856317199403e+00 2.9645260384228914e+03 0.0000000000000000e+00 0.0000000000000000e+00 0.0000000000000000e+00 0.0000000000000000e+00  -3.5689390412896702e+00 2.0993464715460441e+01 0.0000000000000000e+00 2.0993464715460469e+01 3.0229601566344541e+03 0.0000000000000000e+00 0.0000000000000000e+00 0.0000000000000000e+00 0.0000000000000000e+00  -2.8653897130278612e+00 6.6042181223255092e+00 0.0000000000000000e+00 6.6042181223255261e+00 3.1137220968281113e+03 0.0000000000000000e+00 0.0000000000000000e+00 0.0000000000000000e+00 0.0000000000000000e+00  6.6148821952807078e+00 7.7028591761129483e+00 0.0000000000000000e+00 7.7028591761129208e+00 3.2218252687387976e+03 0.0000000000000000e+00 0.0000000000000000e+00 0.0000000000000000e+00 0.0000000000000000e+00  -1.5104792576902479e+00 2.7085990564280504e+01 0.0000000000000000e+00 2.7085990564280380e+01 3.2596111988486973e+03 0.0000000000000000e+00 0.0000000000000000e+00 0.0000000000000000e+00 0.0000000000000000e+00  -1.6554647639444791e+01 3.8189202740174082e+01 0.0000000000000000e+00 3.8189202740174025e+01 3.5116361370127438e+03 0.0000000000000000e+00 0.0000000000000000e+00 0.0000000000000000e+00 0.0000000000000000e+00  3.4143319933098848e-01 7.1617318486097489e+01 0.0000000000000000e+00 7.1617318486097517e+01 3.8117637309347251e+03 0.0000000000000000e+00 0.0000000000000000e+00 0.0000000000000000e+00 0.0000000000000000e+00  -2.0848651995038143e+01 2.4232973787713000e+01 0.0000000000000000e+00 2.4232973787713011e+01 4.2382271089717560e+03 0.0000000000000000e+00 0.0000000000000000e+00 0.0000000000000000e+00 0.0000000000000000e+00  -4.5951760185188050e+01 -6.3695167199893945e+01 0.0000000000000000e+00 -6.3695167199893952e+01 4.1594579372664057e+03 0.0000000000000000e+00 0.0000000000000000e+00 0.0000000000000000e+00 0.0000000000000000e+00  -7.0807819303729261e+01 -2.5285943171951632e+02 0.0000000000000000e+00 -2.5285943171951612e+02 3.5445891691815345e+03 0.0000000000000000e+00 0.0000000000000000e+00 0.0000000000000000e+00 0.0000000000000000e+00  -3.5394286232081086e+01 -3.3708597582651822e+02 0.0000000000000000e+00 -3.3708597582651839e+02 2.5714415120615649e+03 0.0000000000000000e+00 0.0000000000000000e+00 0.0000000000000000e+00 0.0000000000000000e+00  1.1655691550262773e+02 6.3142470742782507e+01 0.0000000000000000e+00 6.3142470742782471e+01 1.4102492278510776e+03 0.0000000000000000e+00 0.0000000000000000e+00 0.0000000000000000e+00 0.0000000000000000e+00  8.6766906253773016e+01 2.0286596289564832e+02 0.0000000000000000e+00 2.0286596289564832e+02 1.4900320211453675e+03 0.0000000000000000e+00 0.0000000000000000e+00 0.0000000000000000e+00 0.0000000000000000e+00  3.2017832617093880e+01 2.7950306149130790e+02 0.0000000000000000e+00 2.7950306149130790e+02 3.2976214057400316e+03 0.0000000000000000e+00 0.0000000000000000e+00 0.0000000000000000e+00 0.0000000000000000e+00  -4.9533229301784676e+00 2.1184630157110112e+02 0.0000000000000000e+00 2.1184630157110112e+02 4.9195187955088377e+03 0.0000000000000000e+00 0.0000000000000000e+00 0.0000000000000000e+00 0.0000000000000000e+00  -1.1519820641373512e+01 -2.3916696682621455e+02 0.0000000000000000e+00 -2.3916696682621446e+02 5.2717313856701649e+03 0.0000000000000000e+00 0.0000000000000000e+00 0.0000000000000000e+00 0.0000000000000000e+00  7.8415381910150586e+01 -8.1306601268687857e+01 0.0000000000000000e+00 -8.1306601268687942e+01 3.5717793906390089e+03 0.0000000000000000e+00 0.0000000000000000e+00 0.0000000000000000e+00 0.0000000000000000e+00  -1.1553937414739762e+02 1.5664047848332032e+02 0.0000000000000000e+00 1.5664047848332029e+02 4.4396113031014966e+03 0.0000000000000000e+00 0.0000000000000000e+00 0.0000000000000000e+00 0.0000000000000000e+00  -6.2629995898584596e+00 -1.1712172625792702e+02 0.0000000000000000e+00 -1.1712172625792722e+02 4.3133968086049390e+03 0.0000000000000000e+00 0.0000000000000000e+00 0.0000000000000000e+00 0.0000000000000000e+00  -1.8201570926274456e+01 -1.4152691519823824e+02 0.0000000000000000e+00 -1.4152691519823790e+02 3.3153760274510191e+03 0.0000000000000000e+00 0.0000000000000000e+00 0.0000000000000000e+00 0.0000000000000000e+00  3.2482315334616025e+01 -6.0357493468153027e+00 0.0000000000000000e+00 -6.0357493468154102e+00 3.0807389222331863e+03 0.0000000000000000e+00 0.0000000000000000e+00 0.0000000000000000e+00 0.0000000000000000e+00  -1.8900370106935419e+01 -2.5151104063919396e+00 0.0000000000000000e+00 -2.5151104063919489e+00 3.0079337002093666e+03 0.0000000000000000e+00 0.0000000000000000e+00 0.0000000000000000e+00 0.0000000000000000e+