<?xml version="1.0"?>
<VTKFile type="UnstructuredGrid"  version="0.1"  >
<UnstructuredGrid>
<Piece  NumberOfPoints="3879" NumberOfCells="6881">
<Points>
<DataArray  type="Float64"  NumberOfComponents="3"  format="ascii">0.207524190028372 0.2122422770132111 0  0 0 0  1 0 0  0 1 0  1 1 0  0.6249674373315121 0.2590146544375328 0  0.204663578893616 0.322657230836866 0  0.09605577522599912 0.4018360776629776 0  0.671351124618251 0.08738059142081528 0  0.7842102907526436 0.1666439122351055 0  0.8512483166984784 0.1985391006160637 0  0.6418797837909295 0.4423157172830166 0  0.9292488447973215 0.3869277868069776 0  0.3197896119137055 0.5509935221980964 0  0.3979283685568406 0.5079871620336583 0  0.1572503457993085 0.7345153245035532 0  0.3032914287999163 0.7872981443735918 0  0.3549464687598876 0.8870324161721976 0  0.9691791685505482 0.5159450047798622 0  0.9447564590470373 0.6146164845729313 0  0.7687603548175107 0.7176858127488035 0  0.8926159261971183 0.7422924070424508 0  0.2061587782631535 0.2217389244366831 0  0.2021731605082994 0.2304662099646423 0  0.1958902278109265 0.2377171008267789 0  0.1878189860121365 0.2429041729681512 0  0.1786133191209442 0.2456072006525708 0  0.1690190155206647 0.2456072006525708 0  0.1598133486294724 0.2429041729681512 0  0.1517421068306824 0.2377171008267789 0  0.1454591741333096 0.2304662099646422 0  0.1414735563784554 0.221738924436683 0  0.1401081446132369 0.212242277013211 0  0.1414735563784555 0.202745629589739 0  0.1454591741333096 0.1940183440617798 0  0.1517421068306825 0.1867674531996431 0  0.1598133486294725 0.1815803810582709 0  0.1690190155206649 0.1788773533738513 0  0.1786133191209443 0.1788773533738514 0  0.1878189860121367 0.181580381058271 0  0.1958902278109266 0.1867674531996433 0  0.2021731605082994 0.19401834406178 0  0.2061587782631535 0.2027456295897391 0  0.03333333333333333 0 0  0.06666666666666667 0 0  0.1 0 0  0.1333333333333333 0 0  0.1666666666666667 0 0  0.2 0 0  0.2333333333333333 0 0  0.2666666666666667 0 0  0.3 0 0  0.3333333333333333 0 0  0.3666666666666666 0 0  0.4 0 0  0.4333333333333333 0 0  0.4666666666666667 0 0  0.5 0 0  0.5333333333333333 0 0  0.5666666666666667 0 0  0.6 0 0  0.6333333333333333 0 0  0.6666666666666666 0 0  0.7 0 0  0.7333333333333333 0 0  0.7666666666666667 0 0  0.8 0 0  0.8333333333333334 0 0  0.8666666666666667 0 0  0.9 0 0  0.9333333333333333 0 0  0.9666666666666667 0 0  0 0.9666666666666667 0  0 0.9333333333333333 0  0 0.9 0  0 0.8666666666666667 0  0 0.8333333333333334 0  0 0.8 0  0 0.7666666666666666 0  0 0.7333333333333334 0  0 0.7 0  0 0.6666666666666667 0  0 0.6333333333333333 0  0 0.6 0  0 0.5666666666666667 0  0 0.5333333333333333 0  0 0.5 0  0 0.4666666666666667 0  0 0.4333333333333333 0  0 0.4 0  0 0.3666666666666667 0  0 0.3333333333333334 0  0 0.3 0  0 0.2666666666666667 0  0 0.2333333333333333 0  0 0.2 0  0 0.1666666666666666 0  0 0.1333333333333333 0  0 0.09999999999999998 0  0 0.06666666666666665 0  0 0.03333333333333333 0  1 0.03333333333333333 0  1 0.06666666666666667 0  1 0.1 0  1 0.1333333333333333 0  1 0.1666666666666667 0  1 0.2 0  1 0.2333333333333333 0  1 0.2666666666666667 0  1 0.3 0  1 0.3333333333333333 0  1 0.3666666666666666 0  1 0.4 0  1 0.4333333333333333 0  1 0.4666666666666667 0  1 0.5 0  1 0.5333333333333333 0  1 0.5666666666666667 0  1 0.6 0  1 0.6333333333333333 0  1 0.6666666666666666 0  1 0.7 0  1 0.7333333333333333 0  1 0.7666666666666667 0  1 0.8 0  1 0.8333333333333334 0  1 0.8666666666666667 0  1 0.9 0  1 0.9333333333333333 0  1 0.9666666666666667 0  0.9666666666666667 1 0  0.9333333333333333 1 0  0.9 1 0  0.8666666666666667 1 0  0.8333333333333334 1 0  0.8 1 0  0.7666666666666666 1 0  0.7333333333333334 1 0  0.7 1 0  0.6666666666666667 1 0  0.6333333333333333 1 0  0.6 1 0  0.5666666666666667 1 0  0.5333333333333333 1 0  0.5 1 0  0.4666666666666667 1 0  0.4333333333333333 1 0  0.4 1 0  0.3666666666666667 1 0  0.3333333333333334 1 0  0.3 1 0  0.2666666666666667 1 0  0.2333333333333333 1 0  0.2 1 0  0.1666666666666666 1 0  0.1333333333333333 1 0  0.09999999999999998 1 0  0.06666666666666665 1 0  0.03333333333333333 1 0  0.6247072676344306 0.2689501343248463 0  0.6239274716502419 0.2788583817523955 0  0.6226301867455355 0.2887122389026952 0  0.6208189686880621 0.2984846970382296 0  0.6184987819006211 0.3081489705305245 0  0.6156759858539226 0.317678570277693 0  0.6123583176357204 0.3270473763092224 0  0.6085548707439923 0.3362297093789981 0  0.6042760701622942 0.3452004013503318 0  0.5995336437856049 0.3539348641800754 0  0.5943405902749808 0.3624091573127375 0  0.5887111434291297 0.3706000532998825 0  0.582660733170558 0.3784851014649517 0  0.5762059432532257 0.3860426894390078 0  0.5693644658076293 0.3932521023987353 0  0.5621550528479018 0.4000935798443317 0  0.5545974648738458 0.4065483697616639 0  0.5467124167087765 0.4125987800202355 0  0.5385215207216315 0.4182282268660866 0  0.5300472275889694 0.4234212803767108 0  0.5213127647592257 0.4281637067534002 0  0.512342072787892 0.4324425073350981 0  0.5031597397181163 0.4362459542268262 0  0.493790933686587 0.4395636224450283 0  0.4842613339394185 0.4423864184917269 0  0.4745970604471235 0.4447066052791678 0  0.4648246023115891 0.4465178233366412 0  0.4549707451612894 0.4478151082413475 0  0.4450624977337403 0.4485949042255363 0  0.4351270178464268 0.4488550739226177 0  0.4251915379591132 0.4485949042255363 0  0.4152832905315641 0.4478151082413475 0  0.4054294333812644 0.4465178233366411 0  0.39565697524573 0.4447066052791677 0  0.385992701753435 0.4423864184917267 0  0.3764631020062665 0.4395636224450281 0  0.3670942959747371 0.4362459542268259 0  0.3579119629049616 0.4324425073350978 0  0.3489412709336278 0.4281637067533998 0  0.3402068081038843 0.4234212803767103 0  0.3317325149712221 0.4182282268660862 0  0.3235416189840771 0.412598780020235 0  0.3156565708190078 0.4065483697616634 0  0.3080989828449519 0.4000935798443311 0  0.3008895698852244 0.3932521023987346 0  0.2940480924396279 0.3860426894390071 0  0.2875933025222958 0.3784851014649511 0  0.2815428922637242 0.3706000532998818 0  0.2759134454178731 0.3624091573127368 0  0.2707203919072489 0.3539348641800746 0  0.2659779655305596 0.3452004013503309 0  0.2616991649488616 0.3362297093789972 0  0.2578957180571336 0.3270473763092215 0  0.2545780498389315 0.3176785702776921 0  0.251755253792233 0.3081489705305236 0  0.249435067004792 0.2984846970382286 0  0.2476238489473186 0.2887122389026941 0  0.2463265640426123 0.2788583817523945 0  0.2455467680584236 0.2689501343248454 0  0.2452865983613423 0.2590146544375318 0  0.2455467680584237 0.2490791745502182 0  0.2463265640426126 0.2391709271226692 0  0.247623848947319 0.2293170699723696 0  0.2494350670047924 0.2195446118368351 0  0.2517552537922335 0.2098803383445402 0  0.2545780498389321 0.2003507385973717 0  0.2578957180571343 0.1909819325658423 0  0.2616991649488624 0.1817995994960667 0  0.2659779655305604 0.172828907524733 0  0.2707203919072498 0.1640944446949895 0  0.2759134454178741 0.1556201515623273 0  0.2815428922637251 0.1474292555751825 0  0.2875933025222969 0.1395442074101132 0  0.2940480924396291 0.1319866194360571 0  0.3008895698852256 0.1247772064763297 0  0.3080989828449531 0.1179357290307334 0  0.3156565708190092 0.1114809391134012 0  0.3235416189840785 0.1054305288548295 0  0.3317325149712236 0.09980108200897844 0  0.3402068081038856 0.0946080284983544 0  0.3489412709336291 0.08986560212166514 0  0.357911962904963 0.08558680153996717 0  0.3670942959747386 0.08178335464823916 0  0.3764631020062678 0.07846568643003712 0  0.3859927017534364 0.0756428903833386 0  0.3956569752457313 0.0733227035958976 0  0.4054294333812659 0.07151148553842429 0  0.4152832905315654 0.07021420063371797 0  0.4251915379591144 0.0694344046495293 0  0.435127017846428 0.0691742349524479 0  0.4450624977337415 0.06943440464952938 0  0.4549707451612905 0.07021420063371814 0  0.4648246023115901 0.07151148553842454 0  0.4745970604471245 0.07332270359589793 0  0.4842613339394195 0.07564289038333902 0  0.4937909336865879 0.07846568643003757 0  0.5031597397181173 0.0817833546482398 0  0.5123420727878929 0.08558680153996781 0  0.5213127647592265 0.08986560212166581 0  0.53004722758897 0.0946080284983552 0  0.5385215207216321 0.09980108200897933 0  0.5467124167087771 0.1054305288548305 0  0.5545974648738462 0.1114809391134021 0  0.5621550528479023 0.1179357290307343 0  0.5693644658076298 0.1247772064763308 0  0.576205943253226 0.1319866194360582 0  0.5826607331705582 0.1395442074101142 0  0.5887111434291299 0.1474292555751835 0  0.594340590274981 0.1556201515623285 0  0.5995336437856051 0.1640944446949906 0  0.6042760701622945 0.172828907524734 0  0.6085548707439925 0.1817995994960678 0  0.6123583176357205 0.1909819325658435 0  0.6156759858539227 0.2003507385973728 0  0.6184987819006211 0.2098803383445412 0  0.6208189686880622 0.2195446118368362 0  0.6226301867455355 0.2293170699723706 0  0.6239274716502419 0.2391709271226702 0  0.6247072676344306 0.2490791745502192 0  0.203885768735257 0.3325402459548524 0  0.2015714905276826 0.3421799084407872 0  0.1977777294810124 0.3513388578120612 0  0.1925979005829864 0.3597915703383434 0  0.1861595484119405 0.3673299121842922 0  0.1786212065659918 0.373768264355338 0  0.1701684940397096 0.378948093253364 0  0.1610095446684356 0.3827418543000342 0  0.1513698821825007 0.3850561325076086 0  0.1414868670645144 0.3858339426659677 0  0.1316038519465281 0.3850561325076086 0  0.1219641894605933 0.3827418543000343 0  0.1128052400893193 0.378948093253364 0  0.1043525275630371 0.3737682643553381 0  0.09681418571708833 0.3673299121842922 0  0.09037583354604248 0.3597915703383434 0  0.08519600464801645 0.3513388578120612 0  0.08140224360134621 0.3421799084407872 0  0.07908796539377183 0.3325402459548523 0  0.07831015523541281 0.3226572308368659 0  0.07908796539377186 0.3127742157188796 0  0.08140224360134626 0.3031345532329447 0  0.08519600464801655 0.2939756038616707 0  0.0903758335460426 0.2855228913353884 0  0.0968141857
[...]
<PointData  Tensors="$\sigma$"> 
<DataArray  type="Float64"  Name="$\sigma$"  NumberOfComponents="9" format="ascii">1.2141733706764333e+02 3.3900394028167192e+01 0.0000000000000000e+00 3.3900394028166922e+01 7.5971443499462603e+03 0.0000000000000000e+00 0.0000000000000000e+00 0.0000000000000000e+00 0.0000000000000000e+00  9.2348470214419797e+02 8.7891408716776297e+01 0.0000000000000000e+00 8.7891408716776354e+01 3.8099227952675942e+03 0.0000000000000000e+00 0.0000000000000000e+00 0.0000000000000000e+00 0.0000000000000000e+00  -1.6263893473738342e+01 -1.5271991237344579e+01 0.0000000000000000e+00 -1.5271991237344579e+01 4.0674461688660217e+03 0.0000000000000000e+00 0.0000000000000000e+00 0.0000000000000000e+00 0.0000000000000000e+00  6.9415763763813665e+00 -3.9670995415201276e+00 0.0000000000000000e+00 -3.9670995415201502e+00 3.9293178843510800e+03 0.0000000000000000e+00 0.0000000000000000e+00 0.0000000000000000e+00 0.0000000000000000e+00  8.0556161956172154e+00 7.9857929803415679e+00 0.0000000000000000e+00 7.9857929803415777e+00 3.7236966086480620e+03 0.0000000000000000e+00 0.0000000000000000e+00 0.0000000000000000e+00 0.0000000000000000e+00  6.9642226972783675e+01 7.1438064005778699e+01 0.0000000000000000e+00 7.1438064005779026e+01 7.5669794549160033e+03 0.0000000000000000e+00 0.0000000000000000e+00 0.0000000000000000e+00 0.0000000000000000e+00  -6.2927701647711778e+01 1.8791041156621392e+02 0.0000000000000000e+00 1.8791041156621392e+02 2.5885363757740930e+02 0.0000000000000000e+00 0.0000000000000000e+00 0.0000000000000000e+00 0.0000000000000000e+00  5.3285229249639872e+02 3.5612484384506917e+02 0.0000000000000000e+00 3.5612484384506922e+02 8.2825910541708436e+03 0.0000000000000000e+00 0.0000000000000000e+00 0.0000000000000000e+00 0.0000000000000000e+00  2.1338188014472584e+02 -2.7967652534717757e+02 0.0000000000000000e+00 -2.7967652534717752e+02 7.5897196921068753e+03 0.0000000000000000e+00 0.0000000000000000e+00 0.0000000000000000e+00 0.0000000000000000e+00  -1.7387722635691676e+02 4.7721379156190828e+01 0.0000000000000000e+00 4.7721379156191325e+01 -1.1476132524099776e+02 0.0000000000000000e+00 0.0000000000000000e+00 0.0000000000000000e+00 0.0000000000000000e+00  1.5388921890175391e+00 -2.3247366956129007e+01 0.0000000000000000e+00 -2.3247366956128914e+01 -5.1299650319626039e+01 0.0000000000000000e+00 0.0000000000000000e+00 0.0000000000000000e+00 0.0000000000000000e+00  1.0867567367615193e+02 3.3356915211197116e+02 0.0000000000000000e+00 3.3356915211197202e+02 4.2316710785553687e+03 0.0000000000000000e+00 0.0000000000000000e+00 0.0000000000000000e+00 0.0000000000000000e+00  -5.1726103729177346e+01 6.1999774734251787e+01 0.0000000000000000e+00 6.1999774734251766e+01 9.7534814503526013e+03 0.0000000000000000e+00 0.0000000000000000e+00 0.0000000000000000e+00 0.0000000000000000e+00  5.2310785429630855e+01 8.7733684314130926e+01 0.0000000000000000e+00 8.7733684314131111e+01 7.8107641998873223e+03 0.0000000000000000e+00 0.0000000000000000e+00 0.0000000000000000e+00 0.0000000000000000e+00  -6.8947283777681122e+01 -1.6708810858428581e+02 0.0000000000000000e+00 -1.6708810858428592e+02 -9.2874298793000025e+02 0.0000000000000000e+00 0.0000000000000000e+00 0.0000000000000000e+00 0.0000000000000000e+00  -1.3576374428440721e+02 -1.4186126582033029e+02 0.0000000000000000e+00 -1.4186126582033032e+02 -3.8229418915631726e+02 0.0000000000000000e+00 0.0000000000000000e+00 0.0000000000000000e+00 0.0000000000000000e+00  4.5277245300188383e+01 -1.2072408259828934e+02 0.0000000000000000e+00 -1.2072408259828987e+02 4.9299880785494988e+03 0.0000000000000000e+00 0.0000000000000000e+00 0.0000000000000000e+00 0.0000000000000000e+00  1.1502162792901431e+02 8.6977260789573791e+01 0.0000000000000000e+00 8.6977260789573577e+01 5.8702594760228531e+03 0.0000000000000000e+00 0.0000000000000000e+00 0.0000000000000000e+00 0.0000000000000000e+00  3.2204971346528564e+03 9.1508929203055675e+02 0.0000000000000000e+00 9.1508929203055675e+02 1.6648623690158427e+04 0.0000000000000000e+00 0.0000000000000000e+00 0.0000000000000000e+00 0.0000000000000000e+00  2.2133383006495421e+02 -2.5733567215987699e+02 0.0000000000000000e+00 -2.5733567215987716e+02 9.1878052085936088e+03 0.0000000000000000e+00 0.0000000000000000e+00 0.0000000000000000e+00 0.0000000000000000e+00  3.9848453206531623e+01 1.2827738482116885e+02 0.0000000000000000e+00 1.2827738482116834e+02 5.7790677833544887e+03 0.0000000000000000e+00 0.0000000000000000e+00 0.0000000000000000e+00 0.0000000000000000e+00  1.1448129818494796e+02 7.8331144329190803e+00 0.0000000000000000e+00 7.8331144329191238e+00 3.1322846658692652e+03 0.0000000000000000e+00 0.0000000000000000e+00 0.0000000000000000e+00 0.0000000000000000e+00  3.5930211942914997e+02 -9.8469429736088330e+02 0.0000000000000000e+00 -9.8469429736088318e+02 4.7814176064532612e+03 0.0000000000000000e+00 0.0000000000000000e+00 0.0000000000000000e+00 0.0000000000000000e+00  -2.0927991365432516e+02 -3.0632365735589525e+02 0.0000000000000000e+00 -3.0632365735589536e+02 1.3117333197298119e+03 0.0000000000000000e+00 0.0000000000000000e+00 0.0000000000000000e+00 0.0000000000000000e+00  -1.4356284061031020e+03 9.1621603144121480e+02 0.0000000000000000e+00 9.1621603144121536e+02 -6.0711430340688776e+02 0.0000000000000000e+00 0.0000000000000000e+00 0.0000000000000000e+00 0.0000000000000000e+00  -2.9154844519835533e+03 1.0442747179737296e+03 0.0000000000000000e+00 1.0442747179737305e+03 -6.1724671762855564e+02 0.0000000000000000e+00 0.0000000000000000e+00 0.0000000000000000e+00 0.0000000000000000e+00  -2.2714221253025617e+03 6.3045923629366564e+02 0.0000000000000000e+00 6.3045923629366393e+02 -3.7542098831142920e+02 0.0000000000000000e+00 0.0000000000000000e+00 0.0000000000000000e+00 0.0000000000000000e+00  9.8994181842777073e+02 1.5694651011539895e+03 0.0000000000000000e+00 1.5694651011539897e+03 9.9130478787459822e+02 0.0000000000000000e+00 0.0000000000000000e+00 0.0000000000000000e+00 0.0000000000000000e+00  4.9068031605382193e+03 3.1932272880302626e+03 0.0000000000000000e+00 3.1932272880302585e+03 1.8481116817205868e+03 0.0000000000000000e+00 0.0000000000000000e+00 0.0000000000000000e+00 0.0000000000000000e+00  4.9033541965583227e+03 3.8491519074983198e+03 0.0000000000000000e+00 3.8491519074983253e+03 3.5710861632807837e+03 0.0000000000000000e+00 0.0000000000000000e+00 0.0000000000000000e+00 0.0000000000000000e+00  2.2493187131975196e+03 2.9659798594264876e+03 0.0000000000000000e+00 2.9659798594264876e+03 4.1313198426698782e+03 0.0000000000000000e+00 0.0000000000000000e+00 0.0000000000000000e+00 0.0000000000000000e+00  8.1092020085016622e+02 1.3119141853667393e+03 0.0000000000000000e+00 1.3119141853667415e+03 3.4561289632026064e+03 0.0000000000000000e+00 0.0000000000000000e+00 0.0000000000000000e+00 0.0000000000000000e+00  7.5876987849182356e+01 2.1793825646354364e+02 0.0000000000000000e+00 2.1793825646354355e+02 2.9703743066744478e+03 0.0000000000000000e+00 0.0000000000000000e+00 0.0000000000000000e+00 0.0000000000000000e+00  1.3429053675894093e+02 -2.4931053265724711e+02 0.0000000000000000e+00 -2.4931053265724694e+02 1.4597100493437918e+03 0.0000000000000000e+00 0.0000000000000000e+00 0.0000000000000000e+00 0.0000000000000000e+00  -1.1731254881516188e+02 8.5257635622620811e+01 0.0000000000000000e+00 8.5257635622620612e+01 1.7019422527100056e+02 0.0000000000000000e+00 0.0000000000000000e+00 0.0000000000000000e+00 0.0000000000000000e+00  -9.4248991443035732e+02 6.6621917765189926e+02 0.0000000000000000e+00 6.6621917765189971e+02 -4.7966249711695752e+02 0.0000000000000000e+00 0.0000000000000000e+00 0.0000000000000000e+00 0.0000000000000000e+00  -1.8252938949100749e+03 7.1720450626062996e+02 0.0000000000000000e+00 7.1720450626062893e+02 -4.5484530819352318e+02 0.0000000000000000e+00 0.0000000000000000e+00 0.0000000000000000e+00 0.0000000000000000e+00  -1.9003383131137357e+03 3.9547390773689693e+02 0.0000000000000000e+00 3.9547390773689654e+02 -2.5747372711416216e+02 0.0000000000000000e+00 0.0000000000000000e+00 0.0000000000000000e+00 0.0000000000000000e+00  -8.6188207785482041e+02 3.4218781483856432e+01 0.0000000000000000e+00 3.4218781483855672e+01 5.5797623210513521e+01 0.0000000000000000e+00 0.0000000000000000e+00 0.0000000000000000e+00 0.0000000000000000e+00  9.6434114901000157e+02 7.0135601869471998e+02 0.0000000000000000e+00 7.0135601869472032e+02 4.1853584101883843e+02 0.0000000000000000e+00 0.0000000000000000e+00 0.0000000000000000e+00 0.0000000000000000e+00  1.9982044709713891e+03 1.7828543779827937e+03 0.0000000000000000e+00 1.7828543779827949e+03 2.0926208576219792e+03 0.0000000000000000e+00 0.0000000000000000e+00 0.0000000000000000e+00 0.0000000000000000e+00  1.7140221443086602e+03 2.7397848352414835e+03 0.0000000000000000e+00 2.7397848352414849e+03 4.6683083203545766e+03 0.0000000000000000e+00 0.0000000000000000e+00 0.0000000000000000e+00 0.0000000000000000e+00  1.0882685127741356e+03 1.7315105052366061e+03 0.0000000000000000e+00 1.7315105052366084e+03 6.9385560908994894e+03 0.0000000000000000e+00 0.0000000000000000e+00 0.0000000000000000e+00 0.0000000000000000e+00  3.3243124366407875e+02 -2.2100145737642541e+02 0.0000000000000000e+00 -2.2100145737642546e+02 3.1996699060769160e+03 0.0000000000000000e+00 0.0000000000000000e+00 0.0000000000000000e+00 0.0000000000000000e+00  -6.6601993355847952e+01 2.9545966479973128e+01 0.0000000000000000e+00 2.9545966479973131e+01 2.7998407775410592e+03 0.0000000000000000e+00 0.0000000000000000e+00 0.0000000000000000e+00 0.0000000000000000e+00  1.8658240365434105e+02 1.9777400663944340e+00 0.0000000000000000e+00 1.9777400663944507e+00 2.1584884672895892e+03 0.0000000000000000e+00 0.0000000000000000e+00 0.0000000000000000e+00 0.0000000000000000e+00  4.0403049142599370e+00 2.6184088307551743e+01 0.0000000000000000e+00 2.6184088307551775e+01 1.8209071984140751e+03 0.0000000000000000e+00 0.0000000000000000e+00 0.0000000000000000e+00 0.0000000000000000e+00  6.8132700436566665e+01 2.9023342592195021e+01 0.0000000000000000e+00 2.9023342592195004e+01 1.4384118227242086e+03 0.0000000000000000e+00 0.0000000000000000e+00 0.0000000000000000e+00 0.0000000000000000e+00  -2.7949355073349917e+01 1.8917498205671627e+01 0.0000000000000000e+00 1.8917498205671649e+01 1.0921850260125257e+03 0.0000000000000000e+00 0.0000000000000000e+00 0.0000000000000000e+00 0.0000000000000000e+00  -5.5872058050114603e+01 8.6824534282456884e+00 0.0000000000000000e+00 8.6824534282456955e+00 7.9091803615395895e+02 0.0000000000000000e+00 0.0000000000000000e+00 0.0000000000000000e+00 0.0000000000000000e+00  -1.1261132307992108e+02 6.7203750193878378e+00 0.0000000000000000e+00 6.7203750193878315e+00 5.0008104929290255e+02 0.0000000000000000e+00 0.0000000000000000e+00 0.0000000000000000e+00 0.0000000000000000e+00  -1.0800755670670149e+02 7.1599327161482993e+00 0.0000000000000000e+00 7.1599327161482904e+00 2.0873434002786499e+02 0.0000000000000000e+00 0.0000000000000000e+00 0.0000000000000000e+00 0.0000000000000000e+00  -1.3050723688786815e+02 1.1070683166423311e+01 0.0000000000000000e+00 1.1070683166423267e+01 -2.2431459335955999e+01 0.0000000000000000e+00 0.0000000000000000e+00 0.0000000000000000e+00 0.0000000000000000e+00  -1.8777332461559368e+02 8.8667113752876450e+00 0.0000000000000000e+00 8.8667113752876290e+00 -1.1284523568885676e+02 0.0000000000000000e+00 0.0000000000000000e+00 0.0000000000000000e+00 0.0000000000000000e+00  -2.3521580613367146e+02 1.7113136872470452e-01 0.0000000000000000e+00 1.7113136872471010e-01 -1.1317205359836650e+02 0.0000000000000000e+00 0.0000000000000000e+00 0.0000000000000000e+00 0.0000000000000000e+00  -2.7331550586532273e+02 2.4860056806826787e+00 0.0000000000000000e+00 2.4860056806826707e+00 -5.6323720848969330e+01 0.0000000000000000e+00 0.0000000000000000e+00 0.0000000000000000e+00 0.0000000000000000e+00  -2.9940299041332491e+02 -5.1306039169701165e+00 0.0000000000000000e+00 -5.1306039169700925e+00 5.2708175179071063e+01 0.0000000000000000e+00 0.0000000000000000e+00 0.0000000000000000e+00 0.0000000000000000e+00  -3.7815304380010753e+02 4.8597479743654723e+00 0.0000000000000000e+00 4.8597479743653214e+00 3.0111907966532851e+02 0.0000000000000000e+00 0.0000000000000000e+00 0.0000000000000000e+00 0.0000000000000000e+00  -5.6871969959703586e+02 1.8733292341866822e+01 0.0000000000000000e+00 1.8733292341866758e+01 6.4926811305535398e+02 0.0000000000000000e+00 0.0000000000000000e+00 0.0000000000000000e+00 0.0000000000000000e+00  -8.8619001872067076e+02 4.2913915710404993e+01 0.0000000000000000e+00 4.2913915710404943e+01 9.4445002303993135e+02 0.0000000000000000e+00 0.0000000000000000e+00 0.0000000000000000e+00 0.0000000000000000e+00  -1.0152076085397671e+03 -4.4961132754425961e+01 0.0000000000000000e+00 -4.4961132754425954e+01 6.2728731440061586e+02 0.0000000000000000e+00 0.0000000000000000e+00 0.0000000000000000e+00 0.0000000000000000e+00  -7.7168072867754427e+02 5.4136566589429673e+00 0.0000000000000000e+00 5.4136566589429753e+00 -7.4231667629745488e+01 0.0000000000000000e+00 0.0000000000000000e+00 0.0000000000000000e+00 0.0000000000000000e+00  -8.9408628534492630e+02 3.8231745437943701e+01 0.0000000000000000e+00 3.8231745437943800e+01 4.0584602120579251e+02 0.0000000000000000e+00 0.0000000000000000e+00 0.0000000000000000e+00 0.0000000000000000e+00  -7.3794196873120939e+02 -2.7369088108315172e+01 0.0000000000000000e+00 -2.7369088108315268e+01 8.3581087705801565e+02 0.0000000000000000e+00 0.0000000000000000e+00 0.0000000000000000e+00 0.0000000000000000e+00  -3.2611536162568888e+02 -3.8301249275812253e+01 0.0000000000000000e+00 -3.8301249275812069e+01 5.0614978225747734e+02 0.0000000000000000e+00 0.0000000000000000e+00 0.0000000000000000e+00 0.0000000000000000e+00  9.7652115546396317e+01 -2.0458417682649468e+01 0.0000000000000000e+00 -2.0458417682649316e+01 3.8364409349477279e+02 0.0000000000000000e+00 0.0000000000000000e+00 0.0000000000000000e+00 0.0000000000000000e+00  1.7873891172544822e+02 -1.4069774455523902e+01 0.0000000000000000e+00 -1.4069774455523925e+01 5.3322255131699205e+02 0.0000000000000000e+00 0.0000000000000000e+00 0.0000000000000000e+00 0.0000000000000000e+00  2.0321712513971559e+02 -1.0504996221641747e+01 0.0000000000000000e+00 -1.0504996221641733e+01 9.6578170888644649e+02 0.0000000000000000e+00 0.0000000000000000e+00 0.0000000000000000e+00 0.0000000000000000e+00  1.5894737907068338e+02 -2.3179685117140544e+01 0.0000000000000000e+00 -2.3179685117140579e+01 1.5117520478681497e+03 0.0000000000000000e+00 0.0000000000000000e+00 0.0000000000000000e+00 0.0000000000000000e+00  1.6276358495021364e+02 -1.9255603172445156e+01 0.0000000000000000e+00 -1.9255603172445092e+01 2.1493447832448546e+03 0.0000000000000000e+00 0.0000000000000000e+00 0.0000000000000000e+00 0.0000000000000000e+00  3.8404599460583320e+01 -1.3225334137356176e+01 0.0000000000000000e+00 -1.3225334137356233e+01 2.8629330324060152e+03 0.0000000000000000e+00 0.0000000000000000e+00 0.0000000000000000e+00 0.0000000000000000e+00  6.1126939126931155e+01 -2.0049116939123760e+01 0.0000000000000000e+00 -2.0049116939123778e+01 3.4749036590623041e+03 0.0000000000000000e+00 0.0000000000000000e+00 0.0000000000000000e+00 0.0000000000000000e+00  1.3047534310181716e+00 2.9044667202774281e+01 0.0000000000000000e+00 2.9044667202774299e+01 3.9692595957083236e+03 0.0000000000000000e+00 0.0000000000000000e+00 0.0000000000000000e+00 0.0000000000000000e+00  2.3310822384010566e+00 9.5992200323812167e+00 0.0000000000000000e+00 9.5992200323812344e+00 4.1029513144759803e+03 0.0000000000000000e+00 0.0000000000000000e+00 0.0000000000000000e+00 0.0000000000000000e+00  -3.9686358508666730e+00 2.5617090473593997e+01 0.0000000000000000e+00 2.5617090473594065e+01 4.1828880832650430e+03 0.0000000000000000e+00 0.0000000000000000e+00 0.0000000000000000e+00 0.0000000000000000e+00  -5.4524841006037770e+00 9.1976207532429264e+00 0.0000000000000000e+00 9.1976207532429299e+00 4.3076532586051317e+03 0.0000000000000000e+00 0.0000000000000000e+00 0.0000000000000000e+00 0.0000000000000000e+00  1.1169190398994020e+01 7.9258220801556227e+00 0.0000000000000000e+00 7.9258220801555872e+00 4.4610668180864159e+03 0.0000000000000000e+00 0.0000000000000000e+00 0.0000000000000000e+00 0.0000000000000000e+00  -3.1794869146627831e+00 3.6636794839376030e+01 0.0000000000000000e+00 3.6636794839375810e+01 4.5122525396174951e+03 0.0000000000000000e+00 0.0000000000000000e+00 0.0000000000000000e+00 0.0000000000000000e+00  -2.3449210843025593e+01 4.8612525275401481e+01 0.0000000000000000e+00 4.8612525275401467e+01 4.8598332297921297e+03 0.0000000000000000e+00 0.0000000000000000e+00 0.0000000000000000e+00 0.0000000000000000e+00  -3.6655277364488315e-01 9.4949309124041932e+01 0.0000000000000000e+00 9.4949309124042287e+01 5.2812270640205434e+03 0.0000000000000000e+00 0.0000000000000000e+00 0.0000000000000000e+00 0.0000000000000000e+00  -2.4348254285796955e+01 2.8434149340269638e+01 0.0000000000000000e+00 2.8434149340269638e+01 5.8794480932924480e+03 0.0000000000000000e+00 0.0000000000000000e+00 0.0000000000000000e+00 0.0000000000000000e+00  -5.3051272236761683e+01 -8.6052068262827902e+01 0.0000000000000000e+00 -8.6052068262827888e+01 5.7752572099080544e+03 0.0000000000000000e+00 0.0000000000000000e+00 0.0000000000000000e+00 0.0000000000000000e+00  -9.2903730072146175e+01 -3.3172939820993565e+02 0.0000000000000000e+00 -3.3172939820993543e+02 4.9216801019818331e+03 0.0000000000000000e+00 0.0000000000000000e+00 0.0000000000000000e+00 0.0000000000000000e+00  -6.7743060187425002e+01 -4.7663609696362840e+02 0.0000000000000000e+00 -4.7663609696362840e+02 3.5437442564017028e+03 0.0000000000000000e+00 0.0000000000000000e+00 0.0000000000000000e+00 0.0000000000000000e+00  1.4940349569120306e+02 9.7121980911968421e+01 0.0000000000000000e+00 9.7121980911968407e+01 1.9459995645945253e+03 0.0000000000000000e+00 0.0000000000000000e+00 0.0000000000000000e+00 0.0000000000000000e+00  1.1362670921242082e+02 2.8871956955550741e+02 0.0000000000000000e+00 2.8871956955550729e+02 2.0092808262868605e+03 0.0000000000000000e+00 0.0000000000000000e+00 0.0000000000000000e+00 0.0000000000000000e+00  3.6036557175365509e+01 3.7250904128678320e+02 0.0000000000000000e+00 3.7250904128678349e+02 4.5932418251333238e+03 0.0000000000000000e+00 0.0000000000000000e+00 0.0000000000000000e+00 0.0000000000000000e+00  -1.6120808689938249e+00 2.7175171100038943e+02 0.0000000000000000e+00 2.7175171100038864e+02 6.8431900570755033e+03 0.0000000000000000e+00 0.0000000000000000e+00 0.0000000000000000e+00 0.0000000000000000e+00  1.0840196172238254e+01 -3.1673661560363308e+02 0.0000000000000000e+00 -3.1673661560363331e+02 7.3427060701792752e+03 0.0000000000000000e+00 0.0000000000000000e+00 0.0000000000000000e+00 0.0000000000000000e+00  7.8895271144034396e+01 -1.1706598862958836e+02 0.0000000000000000e+00 -1.1706598862958869e+02 4.8865671236014077e+03 0.0000000000000000e+00 0.0000000000000000e+00 0.0000000000000000e+00 0.0000000000000000e+00  -1.4780303518427237e+02 2.1190942413775073e+02 0.0000000000000000e+00 2.1190942413775039e+02 6.1645038077218851e+03 0.0000000000000000e+00 0.0000000000000000e+00 0.0000000000000000e+00 0.0000000000000000e+00  -6.0145956475618618e+00 -1.5639458859489670e+02 0.0000000000000000e+00 -1.5639458859489636e+02 5.9834826044687406e+03 0.0000000000000000e+00 0.0000000000000000e+00 0.0000000000000000e+00 0.0000000000000000e+00  -3.3390486380310854e+01 -1.8839120445251694e+02 0.0000000000000000e+00 -1.8839120445251640e+02 4.5861108533825191e+03 0.0000000000000000e+00 0.0000000000000000e+00 0.0000000000000000e+00 0.0000000000000000e+00  4.5201066612022395e+01 -3.9837163343773159e+00 0.0000000000000000e+00 -3.9837163343775699e+00 4.2652227500251875e+03 0.0000000000000000e+00 0.0000000000000000e+00 0.0000000000000000e+00 0.0000000000000000e+00  -3.0752167043897977e+01 -5.6631484064844333e+00 0.0000000000000000e+00 -5.6631484064844138e+00 4.1605600599127838e+03 0.0000000000000000e+00 0.0000000000000000e+00 0.0000000000000000e+00 0.0000000000000000e+00