<?xml version="1.0"?>
<VTKFile type="UnstructuredGrid"  version="0.1"  >
<UnstructuredGrid>
<Piece  NumberOfPoints="3879" NumberOfCells="6881">
<Points>
<DataArray  type="Float64"  NumberOfComponents="3"  format="ascii">0.207524190028372 0.2122422770132111 0  0 0 0  1 0 0  0 1 0  1 1 0  0.6249674373315121 0.2590146544375328 0  0.204663578893616 0.322657230836866 0  0.09605577522599912 0.4018360776629776 0  0.671351124618251 0.08738059142081528 0  0.7842102907526436 0.1666439122351055 0  0.8512483166984784 0.1985391006160637 0  0.6418797837909295 0.4423157172830166 0  0.9292488447973215 0.3869277868069776 0  0.3197896119137055 0.5509935221980964 0  0.3979283685568406 0.5079871620336583 0  0.1572503457993085 0.7345153245035532 0  0.3032914287999163 0.7872981443735918 0  0.3549464687598876 0.8870324161721976 0  0.9691791685505482 0.5159450047798622 0  0.9447564590470373 0.6146164845729313 0  0.7687603548175107 0.7176858127488035 0  0.8926159261971183 0.7422924070424508 0  0.2061587782631535 0.2217389244366831 0  0.2021731605082994 0.2304662099646423 0  0.1958902278109265 0.2377171008267789 0  0.1878189860121365 0.2429041729681512 0  0.1786133191209442 0.2456072006525708 0  0.1690190155206647 0.2456072006525708 0  0.1598133486294724 0.2429041729681512 0  0.1517421068306824 0.2377171008267789 0  0.1454591741333096 0.2304662099646422 0  0.1414735563784554 0.221738924436683 0  0.1401081446132369 0.212242277013211 0  0.1414735563784555 0.202745629589739 0  0.1454591741333096 0.1940183440617798 0  0.1517421068306825 0.1867674531996431 0  0.1598133486294725 0.1815803810582709 0  0.1690190155206649 0.1788773533738513 0  0.1786133191209443 0.1788773533738514 0  0.1878189860121367 0.181580381058271 0  0.1958902278109266 0.1867674531996433 0  0.2021731605082994 0.19401834406178 0  0.2061587782631535 0.2027456295897391 0  0.03333333333333333 0 0  0.06666666666666667 0 0  0.1 0 0  0.1333333333333333 0 0  0.1666666666666667 0 0  0.2 0 0  0.2333333333333333 0 0  0.2666666666666667 0 0  0.3 0 0  0.3333333333333333 0 0  0.3666666666666666 0 0  0.4 0 0  0.4333333333333333 0 0  0.4666666666666667 0 0  0.5 0 0  0.5333333333333333 0 0  0.5666666666666667 0 0  0.6 0 0  0.6333333333333333 0 0  0.6666666666666666 0 0  0.7 0 0  0.7333333333333333 0 0  0.7666666666666667 0 0  0.8 0 0  0.8333333333333334 0 0  0.8666666666666667 0 0  0.9 0 0  0.9333333333333333 0 0  0.9666666666666667 0 0  0 0.9666666666666667 0  0 0.9333333333333333 0  0 0.9 0  0 0.8666666666666667 0  0 0.8333333333333334 0  0 0.8 0  0 0.7666666666666666 0  0 0.7333333333333334 0  0 0.7 0  0 0.6666666666666667 0  0 0.6333333333333333 0  0 0.6 0  0 0.5666666666666667 0  0 0.5333333333333333 0  0 0.5 0  0 0.4666666666666667 0  0 0.4333333333333333 0  0 0.4 0  0 0.3666666666666667 0  0 0.3333333333333334 0  0 0.3 0  0 0.2666666666666667 0  0 0.2333333333333333 0  0 0.2 0  0 0.1666666666666666 0  0 0.1333333333333333 0  0 0.09999999999999998 0  0 0.06666666666666665 0  0 0.03333333333333333 0  1 0.03333333333333333 0  1 0.06666666666666667 0  1 0.1 0  1 0.1333333333333333 0  1 0.1666666666666667 0  1 0.2 0  1 0.2333333333333333 0  1 0.2666666666666667 0  1 0.3 0  1 0.3333333333333333 0  1 0.3666666666666666 0  1 0.4 0  1 0.4333333333333333 0  1 0.4666666666666667 0  1 0.5 0  1 0.5333333333333333 0  1 0.5666666666666667 0  1 0.6 0  1 0.6333333333333333 0  1 0.6666666666666666 0  1 0.7 0  1 0.7333333333333333 0  1 0.7666666666666667 0  1 0.8 0  1 0.8333333333333334 0  1 0.8666666666666667 0  1 0.9 0  1 0.9333333333333333 0  1 0.9666666666666667 0  0.9666666666666667 1 0  0.9333333333333333 1 0  0.9 1 0  0.8666666666666667 1 0  0.8333333333333334 1 0  0.8 1 0  0.7666666666666666 1 0  0.7333333333333334 1 0  0.7 1 0  0.6666666666666667 1 0  0.6333333333333333 1 0  0.6 1 0  0.5666666666666667 1 0  0.5333333333333333 1 0  0.5 1 0  0.4666666666666667 1 0  0.4333333333333333 1 0  0.4 1 0  0.3666666666666667 1 0  0.3333333333333334 1 0  0.3 1 0  0.2666666666666667 1 0  0.2333333333333333 1 0  0.2 1 0  0.1666666666666666 1 0  0.1333333333333333 1 0  0.09999999999999998 1 0  0.06666666666666665 1 0  0.03333333333333333 1 0  0.6247072676344306 0.2689501343248463 0  0.6239274716502419 0.2788583817523955 0  0.6226301867455355 0.2887122389026952 0  0.6208189686880621 0.2984846970382296 0  0.6184987819006211 0.3081489705305245 0  0.6156759858539226 0.317678570277693 0  0.6123583176357204 0.3270473763092224 0  0.6085548707439923 0.3362297093789981 0  0.6042760701622942 0.3452004013503318 0  0.5995336437856049 0.3539348641800754 0  0.5943405902749808 0.3624091573127375 0  0.5887111434291297 0.3706000532998825 0  0.582660733170558 0.3784851014649517 0  0.5762059432532257 0.3860426894390078 0  0.5693644658076293 0.3932521023987353 0  0.5621550528479018 0.4000935798443317 0  0.5545974648738458 0.4065483697616639 0  0.5467124167087765 0.4125987800202355 0  0.5385215207216315 0.4182282268660866 0  0.5300472275889694 0.4234212803767108 0  0.5213127647592257 0.4281637067534002 0  0.512342072787892 0.4324425073350981 0  0.5031597397181163 0.4362459542268262 0  0.493790933686587 0.4395636224450283 0  0.4842613339394185 0.4423864184917269 0  0.4745970604471235 0.4447066052791678 0  0.4648246023115891 0.4465178233366412 0  0.4549707451612894 0.4478151082413475 0  0.4450624977337403 0.4485949042255363 0  0.4351270178464268 0.4488550739226177 0  0.4251915379591132 0.4485949042255363 0  0.4152832905315641 0.4478151082413475 0  0.4054294333812644 0.4465178233366411 0  0.39565697524573 0.4447066052791677 0  0.385992701753435 0.4423864184917267 0  0.3764631020062665 0.4395636224450281 0  0.3670942959747371 0.4362459542268259 0  0.3579119629049616 0.4324425073350978 0  0.3489412709336278 0.4281637067533998 0  0.3402068081038843 0.4234212803767103 0  0.3317325149712221 0.4182282268660862 0  0.3235416189840771 0.412598780020235 0  0.3156565708190078 0.4065483697616634 0  0.3080989828449519 0.4000935798443311 0  0.3008895698852244 0.3932521023987346 0  0.2940480924396279 0.3860426894390071 0  0.2875933025222958 0.3784851014649511 0  0.2815428922637242 0.3706000532998818 0  0.2759134454178731 0.3624091573127368 0  0.2707203919072489 0.3539348641800746 0  0.2659779655305596 0.3452004013503309 0  0.2616991649488616 0.3362297093789972 0  0.2578957180571336 0.3270473763092215 0  0.2545780498389315 0.3176785702776921 0  0.251755253792233 0.3081489705305236 0  0.249435067004792 0.2984846970382286 0  0.2476238489473186 0.2887122389026941 0  0.2463265640426123 0.2788583817523945 0  0.2455467680584236 0.2689501343248454 0  0.2452865983613423 0.2590146544375318 0  0.2455467680584237 0.2490791745502182 0  0.2463265640426126 0.2391709271226692 0  0.247623848947319 0.2293170699723696 0  0.2494350670047924 0.2195446118368351 0  0.2517552537922335 0.2098803383445402 0  0.2545780498389321 0.2003507385973717 0  0.2578957180571343 0.1909819325658423 0  0.2616991649488624 0.1817995994960667 0  0.2659779655305604 0.172828907524733 0  0.2707203919072498 0.1640944446949895 0  0.2759134454178741 0.1556201515623273 0  0.2815428922637251 0.1474292555751825 0  0.2875933025222969 0.1395442074101132 0  0.2940480924396291 0.1319866194360571 0  0.3008895698852256 0.1247772064763297 0  0.3080989828449531 0.1179357290307334 0  0.3156565708190092 0.1114809391134012 0  0.3235416189840785 0.1054305288548295 0  0.3317325149712236 0.09980108200897844 0  0.3402068081038856 0.0946080284983544 0  0.3489412709336291 0.08986560212166514 0  0.357911962904963 0.08558680153996717 0  0.3670942959747386 0.08178335464823916 0  0.3764631020062678 0.07846568643003712 0  0.3859927017534364 0.0756428903833386 0  0.3956569752457313 0.0733227035958976 0  0.4054294333812659 0.07151148553842429 0  0.4152832905315654 0.07021420063371797 0  0.4251915379591144 0.0694344046495293 0  0.435127017846428 0.0691742349524479 0  0.4450624977337415 0.06943440464952938 0  0.4549707451612905 0.07021420063371814 0  0.4648246023115901 0.07151148553842454 0  0.4745970604471245 0.07332270359589793 0  0.4842613339394195 0.07564289038333902 0  0.4937909336865879 0.07846568643003757 0  0.5031597397181173 0.0817833546482398 0  0.5123420727878929 0.08558680153996781 0  0.5213127647592265 0.08986560212166581 0  0.53004722758897 0.0946080284983552 0  0.5385215207216321 0.09980108200897933 0  0.5467124167087771 0.1054305288548305 0  0.5545974648738462 0.1114809391134021 0  0.5621550528479023 0.1179357290307343 0  0.5693644658076298 0.1247772064763308 0  0.576205943253226 0.1319866194360582 0  0.5826607331705582 0.1395442074101142 0  0.5887111434291299 0.1474292555751835 0  0.594340590274981 0.1556201515623285 0  0.5995336437856051 0.1640944446949906 0  0.6042760701622945 0.172828907524734 0  0.6085548707439925 0.1817995994960678 0  0.6123583176357205 0.1909819325658435 0  0.6156759858539227 0.2003507385973728 0  0.6184987819006211 0.2098803383445412 0  0.6208189686880622 0.2195446118368362 0  0.6226301867455355 0.2293170699723706 0  0.6239274716502419 0.2391709271226702 0  0.6247072676344306 0.2490791745502192 0  0.203885768735257 0.3325402459548524 0  0.2015714905276826 0.3421799084407872 0  0.1977777294810124 0.3513388578120612 0  0.1925979005829864 0.3597915703383434 0  0.1861595484119405 0.3673299121842922 0  0.1786212065659918 0.373768264355338 0  0.1701684940397096 0.378948093253364 0  0.1610095446684356 0.3827418543000342 0  0.1513698821825007 0.3850561325076086 0  0.1414868670645144 0.3858339426659677 0  0.1316038519465281 0.3850561325076086 0  0.1219641894605933 0.3827418543000343 0  0.1128052400893193 0.378948093253364 0  0.1043525275630371 0.3737682643553381 0  0.09681418571708833 0.3673299121842922 0  0.09037583354604248 0.3597915703383434 0  0.08519600464801645 0.3513388578120612 0  0.08140224360134621 0.3421799084407872 0  0.07908796539377183 0.3325402459548523 0  0.07831015523541281 0.3226572308368659 0  0.07908796539377186 0.3127742157188796 0  0.08140224360134626 0.3031345532329447 0  0.08519600464801655 0.2939756038616707 0  0.0903758335460426 0.2855228913353884 0  0.0968141857
[...]
<PointData  Tensors="$\sigma$"> 
<DataArray  type="Float64"  Name="$\sigma$"  NumberOfComponents="9" format="ascii">6.0533965620970314e+01 3.7982150064917761e+01 0.0000000000000000e+00 3.7982150064917761e+01 2.0991329746934207e+03 0.0000000000000000e+00 0.0000000000000000e+00 0.0000000000000000e+00 0.0000000000000000e+00  2.6625636959957120e+02 3.7613318504478926e+01 0.0000000000000000e+00 3.7613318504478926e+01 1.0636268552924359e+03 0.0000000000000000e+00 0.0000000000000000e+00 0.0000000000000000e+00 0.0000000000000000e+00  -4.0446224428902039e-01 -3.8768827889664719e+00 0.0000000000000000e+00 -3.8768827889664719e+00 1.1351631679511891e+03 0.0000000000000000e+00 0.0000000000000000e+00 0.0000000000000000e+00 0.0000000000000000e+00  5.9739709565322983e+00 -2.3918896463156951e+00 0.0000000000000000e+00 -2.3918896463156951e+00 1.0888480693536153e+03 0.0000000000000000e+00 0.0000000000000000e+00 0.0000000000000000e+00 0.0000000000000000e+00  4.6519268325968071e+00 2.7347175548514033e+00 0.0000000000000000e+00 2.7347175548514033e+00 1.0393025117750039e+03 0.0000000000000000e+00 0.0000000000000000e+00 0.0000000000000000e+00 0.0000000000000000e+00  3.5179799906109857e+01 3.1085127551003112e+01 0.0000000000000000e+00 3.1085127551003112e+01 2.1010967796935051e+03 0.0000000000000000e+00 0.0000000000000000e+00 0.0000000000000000e+00 0.0000000000000000e+00  -1.7237722303850415e+01 6.9508546832811305e+01 0.0000000000000000e+00 6.9508546832811305e+01 1.0629700576325864e+02 0.0000000000000000e+00 0.0000000000000000e+00 0.0000000000000000e+00 0.0000000000000000e+00  2.1572985686940777e+02 1.3550424949382779e+02 0.0000000000000000e+00 1.3550424949382779e+02 2.2801576352370344e+03 0.0000000000000000e+00 0.0000000000000000e+00 0.0000000000000000e+00 0.0000000000000000e+00  1.2689569850372276e+02 -1.4320680283256848e+02 0.0000000000000000e+00 -1.4320680283256848e+02 2.0829876602944696e+03 0.0000000000000000e+00 0.0000000000000000e+00 0.0000000000000000e+00 0.0000000000000000e+00  -3.0561043109167887e+00 -1.3510475328222562e+01 0.0000000000000000e+00 -1.3510475328222562e+01 -1.6625597321443070e+01 0.0000000000000000e+00 0.0000000000000000e+00 0.0000000000000000e+00 0.0000000000000000e+00  -1.9190522746490421e-01 -8.9579387368897692e+00 0.0000000000000000e+00 -8.9579387368897692e+00 4.2072244680230062e+00 0.0000000000000000e+00 0.0000000000000000e+00 0.0000000000000000e+00 0.0000000000000000e+00  6.2608382077940568e+01 1.3380881816097994e+02 0.0000000000000000e+00 1.3380881816098000e+02 1.1989256401479950e+03 0.0000000000000000e+00 0.0000000000000000e+00 0.0000000000000000e+00 0.0000000000000000e+00  -4.5947490410586384e-01 2.9155962605179631e+01 0.0000000000000000e+00 2.9155962605179631e+01 2.7281437467309888e+03 0.0000000000000000e+00 0.0000000000000000e+00 0.0000000000000000e+00 0.0000000000000000e+00  3.3197792881281252e+01 2.1571843360599100e+01 0.0000000000000000e+00 2.1571843360599100e+01 2.1765395136270049e+03 0.0000000000000000e+00 0.0000000000000000e+00 0.0000000000000000e+00 0.0000000000000000e+00  -1.5211794026292877e+01 -6.9938188366248440e+01 0.0000000000000000e+00 -6.9938188366248440e+01 -2.4336305830237671e+02 0.0000000000000000e+00 0.0000000000000000e+00 0.0000000000000000e+00 0.0000000000000000e+00  -7.3540973149094908e+00 -5.1826344767384484e+01 0.0000000000000000e+00 -5.1826344767384512e+01 -1.9863553069130486e+01 0.0000000000000000e+00 0.0000000000000000e+00 0.0000000000000000e+00 0.0000000000000000e+00  2.1406780522224519e+01 -7.2023523310782977e+01 0.0000000000000000e+00 -7.2023523310782977e+01 1.3818027839526414e+03 0.0000000000000000e+00 0.0000000000000000e+00 0.0000000000000000e+00 0.0000000000000000e+00  7.0291080899170026e+01 5.0915498999250936e+01 0.0000000000000000e+00 5.0915498999250936e+01 1.6437657458772699e+03 0.0000000000000000e+00 0.0000000000000000e+00 0.0000000000000000e+00 0.0000000000000000e+00  5.2907439375126080e+02 4.4089043599847014e+02 0.0000000000000000e+00 4.4089043599847014e+02 4.8629082134216960e+03 0.0000000000000000e+00 0.0000000000000000e+00 0.0000000000000000e+00 0.0000000000000000e+00  8.9063673515983865e+01 -7.2523441055768458e+01 0.0000000000000000e+00 -7.2523441055768458e+01 2.5839624330968672e+03 0.0000000000000000e+00 0.0000000000000000e+00 0.0000000000000000e+00 0.0000000000000000e+00  2.0548475986043538e+01 4.7212039731827716e+01 0.0000000000000000e+00 4.7212039731827716e+01 1.6108005547569999e+03 0.0000000000000000e+00 0.0000000000000000e+00 0.0000000000000000e+00 0.0000000000000000e+00  5.0717066804763803e+01 -1.7453313773025050e+00 0.0000000000000000e+00 -1.7453313773025050e+00 8.8718875866289341e+02 0.0000000000000000e+00 0.0000000000000000e+00 0.0000000000000000e+00 0.0000000000000000e+00  7.9922150026017036e+01 -2.0257013580333404e+02 0.0000000000000000e+00 -2.0257013580333404e+02 1.3571780452221471e+03 0.0000000000000000e+00 0.0000000000000000e+00 0.0000000000000000e+00 0.0000000000000000e+00  -9.8434988701295495e+01 -5.1978587381297302e+01 0.0000000000000000e+00 -5.1978587381297302e+01 4.3824513524077400e+02 0.0000000000000000e+00 0.0000000000000000e+00 0.0000000000000000e+00 0.0000000000000000e+00  -4.6540603623755794e+02 2.5690546083133671e+02 0.0000000000000000e+00 2.5690546083133671e+02 -1.2207305651342786e+02 0.0000000000000000e+00 0.0000000000000000e+00 0.0000000000000000e+00 0.0000000000000000e+00  -7.3863997961437099e+02 2.5990374110016802e+02 0.0000000000000000e+00 2.5990374110016802e+02 -1.8238219373576558e+02 0.0000000000000000e+00 0.0000000000000000e+00 0.0000000000000000e+00 0.0000000000000000e+00  -6.1012155136339982e+02 2.2228054180030099e+02 0.0000000000000000e+00 2.2228054180030099e+02 -9.5711789390802750e+01 0.0000000000000000e+00 0.0000000000000000e+00 0.0000000000000000e+00 0.0000000000000000e+00  3.2938460233599784e+02 4.7101590114127106e+02 0.0000000000000000e+00 4.7101590114127106e+02 2.8438465235478913e+02 0.0000000000000000e+00 0.0000000000000000e+00 0.0000000000000000e+00 0.0000000000000000e+00  1.2756377530286713e+03 8.6175893273995837e+02 0.0000000000000000e+00 8.6175893273995837e+02 5.7110647255360857e+02 0.0000000000000000e+00 0.0000000000000000e+00 0.0000000000000000e+00 0.0000000000000000e+00  1.3271594618654367e+03 1.0423721614901688e+03 0.0000000000000000e+00 1.0423721614901688e+03 9.8254360496039953e+02 0.0000000000000000e+00 0.0000000000000000e+00 0.0000000000000000e+00 0.0000000000000000e+00  6.9447954311728165e+02 8.1565039101986781e+02 0.0000000000000000e+00 8.1565039101986781e+02 1.1169533542515978e+03 0.0000000000000000e+00 0.0000000000000000e+00 0.0000000000000000e+00 0.0000000000000000e+00  2.8227574788483690e+02 3.8522533842410070e+02 0.0000000000000000e+00 3.8522533842410070e+02 9.5439272220668659e+02 0.0000000000000000e+00 0.0000000000000000e+00 0.0000000000000000e+00 0.0000000000000000e+00  5.3232504131488660e+01 8.4161180676125355e+01 0.0000000000000000e+00 8.4161180676125355e+01 8.2931241615204078e+02 0.0000000000000000e+00 0.0000000000000000e+00 0.0000000000000000e+00 0.0000000000000000e+00  3.3576732602370868e+01 -5.2515786408417064e+01 0.0000000000000000e+00 -5.2515786408417064e+01 4.3908614116957972e+02 0.0000000000000000e+00 0.0000000000000000e+00 0.0000000000000000e+00 0.0000000000000000e+00  -4.4061558888624759e+01 2.6503500587122332e+01 0.0000000000000000e+00 2.6503500587122332e+01 8.0515662769143390e+01 0.0000000000000000e+00 0.0000000000000000e+00 0.0000000000000000e+00 0.0000000000000000e+00  -2.8108980703271254e+02 1.7269019798228567e+02 0.0000000000000000e+00 1.7269019798228567e+02 -1.0749391688946550e+02 0.0000000000000000e+00 0.0000000000000000e+00 0.0000000000000000e+00 0.0000000000000000e+00  -5.0286032708120410e+02 1.8108277652555685e+02 0.0000000000000000e+00 1.8108277652555685e+02 -1.1400414053153659e+02 0.0000000000000000e+00 0.0000000000000000e+00 0.0000000000000000e+00 0.0000000000000000e+00  -5.0728006874603460e+02 1.1911879100141290e+02 0.0000000000000000e+00 1.1911879100141290e+02 -8.5838773635237203e+01 0.0000000000000000e+00 0.0000000000000000e+00 0.0000000000000000e+00 0.0000000000000000e+00  -2.3219880212970307e+02 4.5608747853930510e+01 0.0000000000000000e+00 4.5608747853930510e+01 1.9054859802426755e+01 0.0000000000000000e+00 0.0000000000000000e+00 0.0000000000000000e+00 0.0000000000000000e+00  2.4020898309388028e+02 2.2215617097003243e+02 0.0000000000000000e+00 2.2215617097003243e+02 1.6636255831917430e+02 0.0000000000000000e+00 0.0000000000000000e+00 0.0000000000000000e+00 0.0000000000000000e+00  5.1183736218026797e+02 4.8705523762777005e+02 0.0000000000000000e+00 4.8705523762777005e+02 6.4563646721629709e+02 0.0000000000000000e+00 0.0000000000000000e+00 0.0000000000000000e+00 0.0000000000000000e+00  4.6842660890977493e+02 7.3709361763335278e+02 0.0000000000000000e+00 7.3709361763335278e+02 1.3572935392678730e+03 0.0000000000000000e+00 0.0000000000000000e+00 0.0000000000000000e+00 0.0000000000000000e+00  3.4446547668638613e+02 4.4647209023223962e+02 0.0000000000000000e+00 4.4647209023223962e+02 1.8864022702228162e+03 0.0000000000000000e+00 0.0000000000000000e+00 0.0000000000000000e+00 0.0000000000000000e+00  1.1332024561402169e+02 -5.0908952694359137e+01 0.0000000000000000e+00 -5.0908952694359137e+01 8.8986271015491047e+02 0.0000000000000000e+00 0.0000000000000000e+00 0.0000000000000000e+00 0.0000000000000000e+00  -2.5216063609887847e+01 2.4295507942415222e+00 0.0000000000000000e+00 2.4295507942415222e+00 7.6977042366048158e+02 0.0000000000000000e+00 0.0000000000000000e+00 0.0000000000000000e+00 0.0000000000000000e+00  4.0170828811984876e+01 5.5641171085404197e+00 0.0000000000000000e+00 5.5641171085404197e+00 6.0379455677221461e+02 0.0000000000000000e+00 0.0000000000000000e+00 0.0000000000000000e+00 0.0000000000000000e+00  8.8451492012535819e+00 6.7156658362480703e+00 0.0000000000000000e+00 6.7156658362480703e+00 5.1447138134058798e+02 0.0000000000000000e+00 0.0000000000000000e+00 0.0000000000000000e+00 0.0000000000000000e+00  1.4391096200526240e+01 1.0436208587504032e+01 0.0000000000000000e+00 1.0436208587504032e+01 4.0445250662672800e+02 0.0000000000000000e+00 0.0000000000000000e+00 0.0000000000000000e+00 0.0000000000000000e+00  -6.0273150202465002e+00 7.2311713204274524e+00 0.0000000000000000e+00 7.2311713204274524e+00 3.0556439850948578e+02 0.0000000000000000e+00 0.0000000000000000e+00 0.0000000000000000e+00 0.0000000000000000e+00  -1.6097771257280659e+01 3.8941664652034356e+00 0.0000000000000000e+00 3.8941664652034356e+00 2.2030327080833970e+02 0.0000000000000000e+00 0.0000000000000000e+00 0.0000000000000000e+00 0.0000000000000000e+00  -3.0381166844611162e+01 3.0887553417608804e+00 0.0000000000000000e+00 3.0887553417608804e+00 1.4290314391697322e+02 0.0000000000000000e+00 0.0000000000000000e+00 0.0000000000000000e+00 0.0000000000000000e+00  -3.0448332972926494e+01 3.5489065251672338e+00 0.0000000000000000e+00 3.5489065251672338e+00 6.0803086976758685e+01 0.0000000000000000e+00 0.0000000000000000e+00 0.0000000000000000e+00 0.0000000000000000e+00  -3.6035254380343417e+01 4.6909208015874508e+00 0.0000000000000000e+00 4.6909208015874508e+00 -6.6826705632893333e+00 0.0000000000000000e+00 0.0000000000000000e+00 0.0000000000000000e+00 0.0000000000000000e+00  -5.2554032019274644e+01 3.5026999105610752e+00 0.0000000000000000e+00 3.5026999105610752e+00 -3.1179322980754666e+01 0.0000000000000000e+00 0.0000000000000000e+00 0.0000000000000000e+00 0.0000000000000000e+00  -6.5546182904673358e+01 2.8520945058597924e-01 0.0000000000000000e+00 2.8520945058597924e-01 -3.1356998594269164e+01 0.0000000000000000e+00 0.0000000000000000e+00 0.0000000000000000e+00 0.0000000000000000e+00  -7.6984766637733713e+01 3.6266249756168117e-01 0.0000000000000000e+00 3.6266249756168112e-01 -1.5218785210404691e+01 0.0000000000000000e+00 0.0000000000000000e+00 0.0000000000000000e+00 0.0000000000000000e+00  -8.2018811272174617e+01 -1.2247097859610512e+00 0.0000000000000000e+00 -1.2247097859610512e+00 1.4327420730295669e+01 0.0000000000000000e+00 0.0000000000000000e+00 0.0000000000000000e+00 0.0000000000000000e+00  -1.0657831150244228e+02 2.6710104929515195e+00 0.0000000000000000e+00 2.6710104929515195e+00 8.5891782740167059e+01 0.0000000000000000e+00 0.0000000000000000e+00 0.0000000000000000e+00 0.0000000000000000e+00  -1.5361765719584679e+02 8.9722563276278926e+00 0.0000000000000000e+00 8.9722563276278926e+00 1.8113824286746888e+02 0.0000000000000000e+00 0.0000000000000000e+00 0.0000000000000000e+00 0.0000000000000000e+00  -2.4599742832978362e+02 1.3826046746156287e+01 0.0000000000000000e+00 1.3826046746156287e+01 2.5940019503028111e+02 0.0000000000000000e+00 0.0000000000000000e+00 0.0000000000000000e+00 0.0000000000000000e+00  -2.7748912468434338e+02 -1.1510962500896198e+01 0.0000000000000000e+00 -1.1510962500896198e+01 1.7553897455392848e+02 0.0000000000000000e+00 0.0000000000000000e+00 0.0000000000000000e+00 0.0000000000000000e+00  -2.1061142395947752e+02 -1.0846291165297599e+00 0.0000000000000000e+00 -1.0846291165297599e+00 -1.2172891821174444e+01 0.0000000000000000e+00 0.0000000000000000e+00 0.0000000000000000e+00 0.0000000000000000e+00  -2.4489048396573889e+02 9.4983392217560088e+00 0.0000000000000000e+00 9.4983392217560088e+00 1.1820317561547253e+02 0.0000000000000000e+00 0.0000000000000000e+00 0.0000000000000000e+00 0.0000000000000000e+00  -2.0151653510154745e+02 -9.7203181216120882e+00 0.0000000000000000e+00 -9.7203181216120882e+00 2.3197213580768553e+02 0.0000000000000000e+00 0.0000000000000000e+00 0.0000000000000000e+00 0.0000000000000000e+00  -8.7710659344952404e+01 -1.4869622091578821e+01 0.0000000000000000e+00 -1.4869622091578821e+01 1.4060468996263714e+02 0.0000000000000000e+00 0.0000000000000000e+00 0.0000000000000000e+00 0.0000000000000000e+00  2.6986666915366406e+01 -7.5652750102315034e+00 0.0000000000000000e+00 -7.5652750102315034e+00 1.0461973372372823e+02 0.0000000000000000e+00 0.0000000000000000e+00 0.0000000000000000e+00 0.0000000000000000e+00  5.1146789646283452e+01 -6.9740125289254955e+00 0.0000000000000000e+00 -6.9740125289254955e+00 1.5086599298508307e+02 0.0000000000000000e+00 0.0000000000000000e+00 0.0000000000000000e+00 0.0000000000000000e+00  5.6728207569840151e+01 -5.4848637638325304e+00 0.0000000000000000e+00 -5.4848637638325304e+00 2.7124147495652699e+02 0.0000000000000000e+00 0.0000000000000000e+00 0.0000000000000000e+00 0.0000000000000000e+00  4.6401411718284713e+01 -1.0483175029945192e+01 0.0000000000000000e+00 -1.0483175029945192e+01 4.2573729172050969e+02 0.0000000000000000e+00 0.0000000000000000e+00 0.0000000000000000e+00 0.0000000000000000e+00  4.3388091567666692e+01 -7.4355920280776147e+00 0.0000000000000000e+00 -7.4355920280776147e+00 6.0365676423043908e+02 0.0000000000000000e+00 0.0000000000000000e+00 0.0000000000000000e+00 0.0000000000000000e+00  1.3102291792281545e+01 -5.0941399142016479e+00 0.0000000000000000e+00 -5.0941399142016479e+00 8.0916071298846771e+02 0.0000000000000000e+00 0.0000000000000000e+00 0.0000000000000000e+00 0.0000000000000000e+00  1.6822931210240402e+01 -6.2682704709283339e+00 0.0000000000000000e+00 -6.2682704709283339e+00 9.6514224476962193e+02 0.0000000000000000e+00 0.0000000000000000e+00 0.0000000000000000e+00 0.0000000000000000e+00  -1.9946855507967332e+00 1.1820496412845634e+01 0.0000000000000000e+00 1.1820496412845634e+01 1.1089459696684823e+03 0.0000000000000000e+00 0.0000000000000000e+00 0.0000000000000000e+00 0.0000000000000000e+00  3.9835896667703435e-01 1.5834961396384746e+00 0.0000000000000000e+00 1.5834961396384746e+00 1.1391772140330322e+03 0.0000000000000000e+00 0.0000000000000000e+00 0.0000000000000000e+00 0.0000000000000000e+00  -1.5062654498208874e+00 1.1168302424005139e+01 0.0000000000000000e+00 1.1168302424005139e+01 1.1646856503749457e+03 0.0000000000000000e+00 0.0000000000000000e+00 0.0000000000000000e+00 0.0000000000000000e+00  -6.8618278115924347e-01 2.9430349005619583e+00 0.0000000000000000e+00 2.9430349005619587e+00 1.1974693902185786e+03 0.0000000000000000e+00 0.0000000000000000e+00 0.0000000000000000e+00 0.0000000000000000e+00  6.9644037018512561e-01 4.8624036490640945e+00 0.0000000000000000e+00 4.8624036490640963e+00 1.2382641057185654e+03 0.0000000000000000e+00 0.0000000000000000e+00 0.0000000000000000e+00 0.0000000000000000e+00  1.0868787311299071e+00 1.2131971255012168e+01 0.0000000000000000e+00 1.2131971255012168e+01 1.2539709854154862e+03 0.0000000000000000e+00 0.0000000000000000e+00 0.0000000000000000e+00 0.0000000000000000e+00  -6.4345295606585102e+00 1.9995852420714066e+01 0.0000000000000000e+00 1.9995852420714066e+01 1.3509569235746717e+03 0.0000000000000000e+00 0.0000000000000000e+00 0.0000000000000000e+00 0.0000000000000000e+00  -1.2829276650153232e-01 3.1745756147242741e+01 0.0000000000000000e+00 3.1745756147242741e+01 1.4666597140804088e+03 0.0000000000000000e+00 0.0000000000000000e+00 0.0000000000000000e+00 0.0000000000000000e+00  -1.1783631012992865e+01 1.4679103872437071e+01 0.0000000000000000e+00 1.4679103872437071e+01 1.6175194629189718e+03 0.0000000000000000e+00 0.0000000000000000e+00 0.0000000000000000e+00 0.0000000000000000e+00  -2.9700067421074699e+01 -2.6500122272571517e+01 0.0000000000000000e+00 -2.6500122272571517e+01 1.5873795247035812e+03 0.0000000000000000e+00 0.0000000000000000e+00 0.0000000000000000e+00 0.0000000000000000e+00  -3.0726635831440003e+01 -1.1211496615231009e+02 0.0000000000000000e+00 -1.1211496615231009e+02 1.3607157692443675e+03 0.0000000000000000e+00 0.0000000000000000e+00 0.0000000000000000e+00 0.0000000000000000e+00  -3.2885448741718637e+00 -1.2496538649442026e+02 0.0000000000000000e+00 -1.2496538649442026e+02 1.0133908561235744e+03 0.0000000000000000e+00 0.0000000000000000e+00 0.0000000000000000e+00 0.0000000000000000e+00  7.1194706772064222e+01 1.3510380585812984e+01 0.0000000000000000e+00 1.3510380585812984e+01 5.4192297683030733e+02 0.0000000000000000e+00 0.0000000000000000e+00 0.0000000000000000e+00 0.0000000000000000e+00  4.5316963113842050e+01 8.5013645460038887e+01 0.0000000000000000e+00 8.5013645460038887e+01 6.2525888827971244e+02 0.0000000000000000e+00 0.0000000000000000e+00 0.0000000000000000e+00 0.0000000000000000e+00  1.8034197881675752e+01 1.3154571393998219e+02 0.0000000000000000e+00 1.3154571393998219e+02 1.2582270359880092e+03 0.0000000000000000e+00 0.0000000000000000e+00 0.0000000000000000e+00 0.0000000000000000e+00  -1.3070560769164477e+01 1.0207746700536454e+02 0.0000000000000000e+00 1.0207746700536454e+02 1.8546862202548459e+03 0.0000000000000000e+00 0.0000000000000000e+00 0.0000000000000000e+00 0.0000000000000000e+00  -2.7921433955844588e+01 -1.0627819907137615e+02 0.0000000000000000e+00 -1.0627819907137615e+02 1.9886179916122987e+03 0.0000000000000000e+00 0.0000000000000000e+00 0.0000000000000000e+00 0.0000000000000000e+00  6.0343701671194466e+01 -3.2419629776789378e+01 0.0000000000000000e+00 -3.2419629776789378e+01 1.4501792239147599e+03 0.0000000000000000e+00 0.0000000000000000e+00 0.0000000000000000e+00 0.0000000000000000e+00  -5.2680962988737960e+01 6.5445524817956056e+01 0.0000000000000000e+00 6.5445524817956056e+01 1.7023994741344404e+03 0.0000000000000000e+00 0.0000000000000000e+00 0.0000000000000000e+00 0.0000000000000000e+00  -2.7961897442262913e+00 -5.2496183249857729e+01 0.0000000000000000e+00 -5.2496183249857729e+01 1.6362078771724900e+03 0.0000000000000000e+00 0.0000000000000000e+00 0.0000000000000000e+00 0.0000000000000000e+00  1.8242068952489460e-01 -6.2829360032958554e+01 0.0000000000000000e+00 -6.2829360032958554e+01 1.2830612631947420e+03 0.0000000000000000e+00 0.0000000000000000e+00 0.0000000000000000e+00 0.0000000000000000e+00  1.4053767383163489e+01 -6.7568222268211402e+00 0.0000000000000000e+00 -6.7568222268211402e+00 1.1826954014338107e+03 0.0000000000000000e+00 0.0000000000000000e+00 0.0000000000000000e+00 0.0000000000000000e+00  -4.3306519035242479e+00 1.0251381466715070e-01 0.0000000000000000e+00 1.0251381466715070e-01 1.1553299070876808e+03 0.0000000000000000e+00 0.0000000000000000e+00 0.0000000000000000e+00 0.0000000000000000