<?xml version="1.0"?>
<VTKFile type="UnstructuredGrid"  version="0.1"  >
<UnstructuredGrid>
<Piece  NumberOfPoints="3879" NumberOfCells="6881">
<Points>
<DataArray  type="Float64"  NumberOfComponents="3"  format="ascii">0.207524190028372 0.2122422770132111 0  0 0 0  1 0 0  0 1 0  1 1 0  0.6249674373315121 0.2590146544375328 0  0.204663578893616 0.322657230836866 0  0.09605577522599912 0.4018360776629776 0  0.671351124618251 0.08738059142081528 0  0.7842102907526436 0.1666439122351055 0  0.8512483166984784 0.1985391006160637 0  0.6418797837909295 0.4423157172830166 0  0.9292488447973215 0.3869277868069776 0  0.3197896119137055 0.5509935221980964 0  0.3979283685568406 0.5079871620336583 0  0.1572503457993085 0.7345153245035532 0  0.3032914287999163 0.7872981443735918 0  0.3549464687598876 0.8870324161721976 0  0.9691791685505482 0.5159450047798622 0  0.9447564590470373 0.6146164845729313 0  0.7687603548175107 0.7176858127488035 0  0.8926159261971183 0.7422924070424508 0  0.2061587782631535 0.2217389244366831 0  0.2021731605082994 0.2304662099646423 0  0.1958902278109265 0.2377171008267789 0  0.1878189860121365 0.2429041729681512 0  0.1786133191209442 0.2456072006525708 0  0.1690190155206647 0.2456072006525708 0  0.1598133486294724 0.2429041729681512 0  0.1517421068306824 0.2377171008267789 0  0.1454591741333096 0.2304662099646422 0  0.1414735563784554 0.221738924436683 0  0.1401081446132369 0.212242277013211 0  0.1414735563784555 0.202745629589739 0  0.1454591741333096 0.1940183440617798 0  0.1517421068306825 0.1867674531996431 0  0.1598133486294725 0.1815803810582709 0  0.1690190155206649 0.1788773533738513 0  0.1786133191209443 0.1788773533738514 0  0.1878189860121367 0.181580381058271 0  0.1958902278109266 0.1867674531996433 0  0.2021731605082994 0.19401834406178 0  0.2061587782631535 0.2027456295897391 0  0.03333333333333333 0 0  0.06666666666666667 0 0  0.1 0 0  0.1333333333333333 0 0  0.1666666666666667 0 0  0.2 0 0  0.2333333333333333 0 0  0.2666666666666667 0 0  0.3 0 0  0.3333333333333333 0 0  0.3666666666666666 0 0  0.4 0 0  0.4333333333333333 0 0  0.4666666666666667 0 0  0.5 0 0  0.5333333333333333 0 0  0.5666666666666667 0 0  0.6 0 0  0.6333333333333333 0 0  0.6666666666666666 0 0  0.7 0 0  0.7333333333333333 0 0  0.7666666666666667 0 0  0.8 0 0  0.8333333333333334 0 0  0.8666666666666667 0 0  0.9 0 0  0.9333333333333333 0 0  0.9666666666666667 0 0  0 0.9666666666666667 0  0 0.9333333333333333 0  0 0.9 0  0 0.8666666666666667 0  0 0.8333333333333334 0  0 0.8 0  0 0.7666666666666666 0  0 0.7333333333333334 0  0 0.7 0  0 0.6666666666666667 0  0 0.6333333333333333 0  0 0.6 0  0 0.5666666666666667 0  0 0.5333333333333333 0  0 0.5 0  0 0.4666666666666667 0  0 0.4333333333333333 0  0 0.4 0  0 0.3666666666666667 0  0 0.3333333333333334 0  0 0.3 0  0 0.2666666666666667 0  0 0.2333333333333333 0  0 0.2 0  0 0.1666666666666666 0  0 0.1333333333333333 0  0 0.09999999999999998 0  0 0.06666666666666665 0  0 0.03333333333333333 0  1 0.03333333333333333 0  1 0.06666666666666667 0  1 0.1 0  1 0.1333333333333333 0  1 0.1666666666666667 0  1 0.2 0  1 0.2333333333333333 0  1 0.2666666666666667 0  1 0.3 0  1 0.3333333333333333 0  1 0.3666666666666666 0  1 0.4 0  1 0.4333333333333333 0  1 0.4666666666666667 0  1 0.5 0  1 0.5333333333333333 0  1 0.5666666666666667 0  1 0.6 0  1 0.6333333333333333 0  1 0.6666666666666666 0  1 0.7 0  1 0.7333333333333333 0  1 0.7666666666666667 0  1 0.8 0  1 0.8333333333333334 0  1 0.8666666666666667 0  1 0.9 0  1 0.9333333333333333 0  1 0.9666666666666667 0  0.9666666666666667 1 0  0.9333333333333333 1 0  0.9 1 0  0.8666666666666667 1 0  0.8333333333333334 1 0  0.8 1 0  0.7666666666666666 1 0  0.7333333333333334 1 0  0.7 1 0  0.6666666666666667 1 0  0.6333333333333333 1 0  0.6 1 0  0.5666666666666667 1 0  0.5333333333333333 1 0  0.5 1 0  0.4666666666666667 1 0  0.4333333333333333 1 0  0.4 1 0  0.3666666666666667 1 0  0.3333333333333334 1 0  0.3 1 0  0.2666666666666667 1 0  0.2333333333333333 1 0  0.2 1 0  0.1666666666666666 1 0  0.1333333333333333 1 0  0.09999999999999998 1 0  0.06666666666666665 1 0  0.03333333333333333 1 0  0.6247072676344306 0.2689501343248463 0  0.6239274716502419 0.2788583817523955 0  0.6226301867455355 0.2887122389026952 0  0.6208189686880621 0.2984846970382296 0  0.6184987819006211 0.3081489705305245 0  0.6156759858539226 0.317678570277693 0  0.6123583176357204 0.3270473763092224 0  0.6085548707439923 0.3362297093789981 0  0.6042760701622942 0.3452004013503318 0  0.5995336437856049 0.3539348641800754 0  0.5943405902749808 0.3624091573127375 0  0.5887111434291297 0.3706000532998825 0  0.582660733170558 0.3784851014649517 0  0.5762059432532257 0.3860426894390078 0  0.5693644658076293 0.3932521023987353 0  0.5621550528479018 0.4000935798443317 0  0.5545974648738458 0.4065483697616639 0  0.5467124167087765 0.4125987800202355 0  0.5385215207216315 0.4182282268660866 0  0.5300472275889694 0.4234212803767108 0  0.5213127647592257 0.4281637067534002 0  0.512342072787892 0.4324425073350981 0  0.5031597397181163 0.4362459542268262 0  0.493790933686587 0.4395636224450283 0  0.4842613339394185 0.4423864184917269 0  0.4745970604471235 0.4447066052791678 0  0.4648246023115891 0.4465178233366412 0  0.4549707451612894 0.4478151082413475 0  0.4450624977337403 0.4485949042255363 0  0.4351270178464268 0.4488550739226177 0  0.4251915379591132 0.4485949042255363 0  0.4152832905315641 0.4478151082413475 0  0.4054294333812644 0.4465178233366411 0  0.39565697524573 0.4447066052791677 0  0.385992701753435 0.4423864184917267 0  0.3764631020062665 0.4395636224450281 0  0.3670942959747371 0.4362459542268259 0  0.3579119629049616 0.4324425073350978 0  0.3489412709336278 0.4281637067533998 0  0.3402068081038843 0.4234212803767103 0  0.3317325149712221 0.4182282268660862 0  0.3235416189840771 0.412598780020235 0  0.3156565708190078 0.4065483697616634 0  0.3080989828449519 0.4000935798443311 0  0.3008895698852244 0.3932521023987346 0  0.2940480924396279 0.3860426894390071 0  0.2875933025222958 0.3784851014649511 0  0.2815428922637242 0.3706000532998818 0  0.2759134454178731 0.3624091573127368 0  0.2707203919072489 0.3539348641800746 0  0.2659779655305596 0.3452004013503309 0  0.2616991649488616 0.3362297093789972 0  0.2578957180571336 0.3270473763092215 0  0.2545780498389315 0.3176785702776921 0  0.251755253792233 0.3081489705305236 0  0.249435067004792 0.2984846970382286 0  0.2476238489473186 0.2887122389026941 0  0.2463265640426123 0.2788583817523945 0  0.2455467680584236 0.2689501343248454 0  0.2452865983613423 0.2590146544375318 0  0.2455467680584237 0.2490791745502182 0  0.2463265640426126 0.2391709271226692 0  0.247623848947319 0.2293170699723696 0  0.2494350670047924 0.2195446118368351 0  0.2517552537922335 0.2098803383445402 0  0.2545780498389321 0.2003507385973717 0  0.2578957180571343 0.1909819325658423 0  0.2616991649488624 0.1817995994960667 0  0.2659779655305604 0.172828907524733 0  0.2707203919072498 0.1640944446949895 0  0.2759134454178741 0.1556201515623273 0  0.2815428922637251 0.1474292555751825 0  0.2875933025222969 0.1395442074101132 0  0.2940480924396291 0.1319866194360571 0  0.3008895698852256 0.1247772064763297 0  0.3080989828449531 0.1179357290307334 0  0.3156565708190092 0.1114809391134012 0  0.3235416189840785 0.1054305288548295 0  0.3317325149712236 0.09980108200897844 0  0.3402068081038856 0.0946080284983544 0  0.3489412709336291 0.08986560212166514 0  0.357911962904963 0.08558680153996717 0  0.3670942959747386 0.08178335464823916 0  0.3764631020062678 0.07846568643003712 0  0.3859927017534364 0.0756428903833386 0  0.3956569752457313 0.0733227035958976 0  0.4054294333812659 0.07151148553842429 0  0.4152832905315654 0.07021420063371797 0  0.4251915379591144 0.0694344046495293 0  0.435127017846428 0.0691742349524479 0  0.4450624977337415 0.06943440464952938 0  0.4549707451612905 0.07021420063371814 0  0.4648246023115901 0.07151148553842454 0  0.4745970604471245 0.07332270359589793 0  0.4842613339394195 0.07564289038333902 0  0.4937909336865879 0.07846568643003757 0  0.5031597397181173 0.0817833546482398 0  0.5123420727878929 0.08558680153996781 0  0.5213127647592265 0.08986560212166581 0  0.53004722758897 0.0946080284983552 0  0.5385215207216321 0.09980108200897933 0  0.5467124167087771 0.1054305288548305 0  0.5545974648738462 0.1114809391134021 0  0.5621550528479023 0.1179357290307343 0  0.5693644658076298 0.1247772064763308 0  0.576205943253226 0.1319866194360582 0  0.5826607331705582 0.1395442074101142 0  0.5887111434291299 0.1474292555751835 0  0.594340590274981 0.1556201515623285 0  0.5995336437856051 0.1640944446949906 0  0.6042760701622945 0.172828907524734 0  0.6085548707439925 0.1817995994960678 0  0.6123583176357205 0.1909819325658435 0  0.6156759858539227 0.2003507385973728 0  0.6184987819006211 0.2098803383445412 0  0.6208189686880622 0.2195446118368362 0  0.6226301867455355 0.2293170699723706 0  0.6239274716502419 0.2391709271226702 0  0.6247072676344306 0.2490791745502192 0  0.203885768735257 0.3325402459548524 0  0.2015714905276826 0.3421799084407872 0  0.1977777294810124 0.3513388578120612 0  0.1925979005829864 0.3597915703383434 0  0.1861595484119405 0.3673299121842922 0  0.1786212065659918 0.373768264355338 0  0.1701684940397096 0.378948093253364 0  0.1610095446684356 0.3827418543000342 0  0.1513698821825007 0.3850561325076086 0  0.1414868670645144 0.3858339426659677 0  0.1316038519465281 0.3850561325076086 0  0.1219641894605933 0.3827418543000343 0  0.1128052400893193 0.378948093253364 0  0.1043525275630371 0.3737682643553381 0  0.09681418571708833 0.3673299121842922 0  0.09037583354604248 0.3597915703383434 0  0.08519600464801645 0.3513388578120612 0  0.08140224360134621 0.3421799084407872 0  0.07908796539377183 0.3325402459548523 0  0.07831015523541281 0.3226572308368659 0  0.07908796539377186 0.3127742157188796 0  0.08140224360134626 0.3031345532329447 0  0.08519600464801655 0.2939756038616707 0  0.0903758335460426 0.2855228913353884 0  0.0968141857
[...]
<PointData  Tensors="$\sigma$"> 
<DataArray  type="Float64"  Name="$\sigma$"  NumberOfComponents="9" format="ascii">9.0984114731677414e+02 -1.6961167892389386e+02 0.0000000000000000e+00 -1.6961167892389341e+02 1.3743233701797222e+04 0.0000000000000000e+00 0.0000000000000000e+00 0.0000000000000000e+00 0.0000000000000000e+00  1.6636066871003561e+03 1.0714863541724765e+02 0.0000000000000000e+00 1.0714863541724782e+02 6.9730357516842396e+03 0.0000000000000000e+00 0.0000000000000000e+00 0.0000000000000000e+00 0.0000000000000000e+00  -4.0799076205398414e+01 -3.3797894532064284e+01 0.0000000000000000e+00 -3.3797894532064355e+01 7.2981317551438206e+03 0.0000000000000000e+00 0.0000000000000000e+00 0.0000000000000000e+00 0.0000000000000000e+00  9.6248480097326201e+00 -6.1638173490168837e+00 0.0000000000000000e+00 -6.1638173490168970e+00 7.7678772469301448e+03 0.0000000000000000e+00 0.0000000000000000e+00 0.0000000000000000e+00 0.0000000000000000e+00  1.0186918094048579e+01 1.5965433845000181e+01 0.0000000000000000e+00 1.5965433845000215e+01 6.4789954467467960e+03 0.0000000000000000e+00 0.0000000000000000e+00 0.0000000000000000e+00 0.0000000000000000e+00  5.2485404005683336e+02 -2.2056861577074972e+02 0.0000000000000000e+00 -2.2056861577074886e+02 1.2060861187279123e+04 0.0000000000000000e+00 0.0000000000000000e+00 0.0000000000000000e+00 0.0000000000000000e+00  -6.8500471028997922e+01 4.2387110340752650e+02 0.0000000000000000e+00 4.2387110340752901e+02 -1.6914779489403213e+02 0.0000000000000000e+00 0.0000000000000000e+00 0.0000000000000000e+00 0.0000000000000000e+00  1.5240639566758477e+03 1.0945102225311807e+02 0.0000000000000000e+00 1.0945102225311895e+02 1.5122351215403052e+04 0.0000000000000000e+00 0.0000000000000000e+00 0.0000000000000000e+00 0.0000000000000000e+00  5.8562963746728542e+02 1.9891506788191316e+02 0.0000000000000000e+00 1.9891506788191143e+02 1.3178576684998183e+04 0.0000000000000000e+00 0.0000000000000000e+00 0.0000000000000000e+00 0.0000000000000000e+00  -6.0747976542569972e+02 2.8671665804299681e+02 0.0000000000000000e+00 2.8671665804299658e+02 -9.1355048465122002e+02 0.0000000000000000e+00 0.0000000000000000e+00 0.0000000000000000e+00 0.0000000000000000e+00  -3.5914763379751868e+01 -1.3457452294073951e+02 0.0000000000000000e+00 -1.3457452294073974e+02 -1.5219115887008288e+03 0.0000000000000000e+00 0.0000000000000000e+00 0.0000000000000000e+00 0.0000000000000000e+00  3.3135598420740067e+01 3.8578692854362936e+02 0.0000000000000000e+00 3.8578692854362771e+02 9.6108407721803997e+03 0.0000000000000000e+00 0.0000000000000000e+00 0.0000000000000000e+00 0.0000000000000000e+00  -5.8899830646104203e+02 -1.1083894967163377e+02 0.0000000000000000e+00 -1.1083894967163327e+02 1.1004242157948487e+04 0.0000000000000000e+00 0.0000000000000000e+00 0.0000000000000000e+00 0.0000000000000000e+00  2.9337514008681796e+02 1.5383326450056947e+02 0.0000000000000000e+00 1.5383326450056938e+02 1.1805654224072152e+04 0.0000000000000000e+00 0.0000000000000000e+00 0.0000000000000000e+00 0.0000000000000000e+00  -1.4002983343283242e+02 -2.6129968811004346e+02 0.0000000000000000e+00 -2.6129968811004170e+02 -1.2728265535039848e+03 0.0000000000000000e+00 0.0000000000000000e+00 0.0000000000000000e+00 0.0000000000000000e+00  -8.0255734834985958e+02 -4.3906741051594867e+02 0.0000000000000000e+00 -4.3906741051594861e+02 -4.3445027259022772e+03 0.0000000000000000e+00 0.0000000000000000e+00 0.0000000000000000e+00 0.0000000000000000e+00  -1.7763864131988980e+00 -9.0805989091696247e+01 0.0000000000000000e+00 -9.0805989091697583e+01 8.4477607654703770e+03 0.0000000000000000e+00 0.0000000000000000e+00 0.0000000000000000e+00 0.0000000000000000e+00  2.0610902997023254e+02 8.4584722110440893e+01 0.0000000000000000e+00 8.4584722110443209e+01 1.2803241818974684e+04 0.0000000000000000e+00 0.0000000000000000e+00 0.0000000000000000e+00 0.0000000000000000e+00  7.1009969831405815e+03 1.1474174113110380e+03 0.0000000000000000e+00 1.1474174113110378e+03 1.9664502906896658e+04 0.0000000000000000e+00 0.0000000000000000e+00 0.0000000000000000e+00 0.0000000000000000e+00  1.9936799880037790e+02 2.3782801201929706e+02 0.0000000000000000e+00 2.3782801201929783e+02 1.1818852325367643e+04 0.0000000000000000e+00 0.0000000000000000e+00 0.0000000000000000e+00 0.0000000000000000e+00  2.0305760342289172e+01 1.0518689074086069e+02 0.0000000000000000e+00 1.0518689074086018e+02 1.1837373479868435e+04 0.0000000000000000e+00 0.0000000000000000e+00 0.0000000000000000e+00 0.0000000000000000e+00  6.9449923926305217e+01 1.1475045270107945e+02 0.0000000000000000e+00 1.1475045270107820e+02 4.7751890378924727e+03 0.0000000000000000e+00 0.0000000000000000e+00 0.0000000000000000e+00 0.0000000000000000e+00  6.4821316203670392e+02 -2.4353701342664945e+03 0.0000000000000000e+00 -2.4353701342664945e+03 9.7152722744826660e+03 0.0000000000000000e+00 0.0000000000000000e+00 0.0000000000000000e+00 0.0000000000000000e+00  -1.4606069661428197e+02 -8.6561693187476385e+02 0.0000000000000000e+00 -8.6561693187476362e+02 2.6507705793352825e+03 0.0000000000000000e+00 0.0000000000000000e+00 0.0000000000000000e+00 0.0000000000000000e+00  -2.6558319330861746e+03 1.6797944499010609e+03 0.0000000000000000e+00 1.6797944499010666e+03 -1.2037440857500012e+03 0.0000000000000000e+00 0.0000000000000000e+00 0.0000000000000000e+00 0.0000000000000000e+00  -6.6349493883096511e+03 2.4048822584998547e+03 0.0000000000000000e+00 2.4048822584998602e+03 -1.3160926251836117e+03 0.0000000000000000e+00 0.0000000000000000e+00 0.0000000000000000e+00 0.0000000000000000e+00  -5.9951495928548457e+03 1.0956775301854502e+03 0.0000000000000000e+00 1.0956775301854477e+03 -7.8174247418674656e+02 0.0000000000000000e+00 0.0000000000000000e+00 0.0000000000000000e+00 0.0000000000000000e+00  1.3146956430166858e+03 3.0189649497951609e+03 0.0000000000000000e+00 3.0189649497951618e+03 1.8848553777341149e+03 0.0000000000000000e+00 0.0000000000000000e+00 0.0000000000000000e+00 0.0000000000000000e+00  9.9496035504615647e+03 5.4777078311291361e+03 0.0000000000000000e+00 5.4777078311291389e+03 3.3949253594517390e+03 0.0000000000000000e+00 0.0000000000000000e+00 0.0000000000000000e+00 0.0000000000000000e+00  9.0886579431178689e+03 6.1637495400161333e+03 0.0000000000000000e+00 6.1637495400161506e+03 7.4632174152315356e+03 0.0000000000000000e+00 0.0000000000000000e+00 0.0000000000000000e+00 0.0000000000000000e+00  4.0975169908266225e+03 5.9015437716865908e+03 0.0000000000000000e+00 5.9015437716865899e+03 8.5967825247986548e+03 0.0000000000000000e+00 0.0000000000000000e+00 0.0000000000000000e+00 0.0000000000000000e+00  1.4134427152043679e+03 2.6579702899118815e+03 0.0000000000000000e+00 2.6579702899118765e+03 6.9737428762570671e+03 0.0000000000000000e+00 0.0000000000000000e+00 0.0000000000000000e+00 0.0000000000000000e+00  -1.0012808710668093e+00 4.1957854039014330e+02 0.0000000000000000e+00 4.1957854039014506e+02 5.4929913531690318e+03 0.0000000000000000e+00 0.0000000000000000e+00 0.0000000000000000e+00 0.0000000000000000e+00  1.5629295491783483e+02 -2.5237915872412418e+02 0.0000000000000000e+00 -2.5237915872412435e+02 2.0044554155446401e+03 0.0000000000000000e+00 0.0000000000000000e+00 0.0000000000000000e+00 0.0000000000000000e+00  -5.8360397692408958e+02 6.1150867707081170e+02 0.0000000000000000e+00 6.1150867707081181e+02 -4.8660908691666458e+02 0.0000000000000000e+00 0.0000000000000000e+00 0.0000000000000000e+00 0.0000000000000000e+00  -2.2891374687103180e+03 1.7953288132299651e+03 0.0000000000000000e+00 1.7953288132299676e+03 -1.4725367918797785e+03 0.0000000000000000e+00 0.0000000000000000e+00 0.0000000000000000e+00 0.0000000000000000e+00  -4.1259354834034202e+03 1.7361838151454162e+03 0.0000000000000000e+00 1.7361838151454117e+03 -1.0808644141517811e+03 0.0000000000000000e+00 0.0000000000000000e+00 0.0000000000000000e+00 0.0000000000000000e+00  -4.1011715973323844e+03 8.3978669098087710e+02 0.0000000000000000e+00 8.3978669098087653e+02 -4.8614540997653523e+02 0.0000000000000000e+00 0.0000000000000000e+00 0.0000000000000000e+00 0.0000000000000000e+00  -1.8783319388356197e+03 -2.9219175906630998e+01 0.0000000000000000e+00 -2.9219175906631051e+01 1.2261131722795521e+02 0.0000000000000000e+00 0.0000000000000000e+00 0.0000000000000000e+00 0.0000000000000000e+00  1.9969504426737687e+03 1.3125310258463917e+03 0.0000000000000000e+00 1.3125310258463958e+03 6.8292503468437633e+02 0.0000000000000000e+00 0.0000000000000000e+00 0.0000000000000000e+00 0.0000000000000000e+00  4.0843082666635023e+03 3.5305038555114188e+03 0.0000000000000000e+00 3.5305038555114238e+03 3.8782280438085290e+03 0.0000000000000000e+00 0.0000000000000000e+00 0.0000000000000000e+00 0.0000000000000000e+00  3.3001076988378559e+03 5.4376638078002088e+03 0.0000000000000000e+00 5.4376638078002297e+03 8.7947522987061202e+03 0.0000000000000000e+00 0.0000000000000000e+00 0.0000000000000000e+00 0.0000000000000000e+00  2.4069459515893245e+03 3.3509469476646309e+03 0.0000000000000000e+00 3.3509469476646341e+03 1.3149564939363459e+04 0.0000000000000000e+00 0.0000000000000000e+00 0.0000000000000000e+00 0.0000000000000000e+00  5.2713968334379661e+02 -4.1959371096357586e+02 0.0000000000000000e+00 -4.1959371096357620e+02 5.8323783160502644e+03 0.0000000000000000e+00 0.0000000000000000e+00 0.0000000000000000e+00 0.0000000000000000e+00  -1.0487903287217385e+02 8.0264879813824649e+01 0.0000000000000000e+00 8.0264879813824521e+01 5.0811344196943610e+03 0.0000000000000000e+00 0.0000000000000000e+00 0.0000000000000000e+00 0.0000000000000000e+00  3.5050928996325206e+02 -2.7029008051409431e+01 0.0000000000000000e+00 -2.7029008051409413e+01 3.8453573765727929e+03 0.0000000000000000e+00 0.0000000000000000e+00 0.0000000000000000e+00 0.0000000000000000e+00  -9.1935952885460040e+01 6.8993964607338228e+01 0.0000000000000000e+00 6.8993964607338171e+01 3.2146820995018338e+03 0.0000000000000000e+00 0.0000000000000000e+00 0.0000000000000000e+00 0.0000000000000000e+00  5.0140429522944267e+01 4.4765904014205084e+01 0.0000000000000000e+00 4.4765904014205042e+01 2.5519537993078525e+03 0.0000000000000000e+00 0.0000000000000000e+00 0.0000000000000000e+00 0.0000000000000000e+00  -2.1601187561249503e+02 3.7915915016042725e+01 0.0000000000000000e+00 3.7915915016042725e+01 1.9598531778008680e+03 0.0000000000000000e+00 0.0000000000000000e+00 0.0000000000000000e+00 0.0000000000000000e+00  -2.8237912204928654e+02 1.1783626435487475e+01 0.0000000000000000e+00 1.1783626435487472e+01 1.4420673438147603e+03 0.0000000000000000e+00 0.0000000000000000e+00 0.0000000000000000e+00 0.0000000000000000e+00  -4.2710804621897228e+02 8.7325444823139566e+00 0.0000000000000000e+00 8.7325444823139655e+00 9.0203244133809301e+02 0.0000000000000000e+00 0.0000000000000000e+00 0.0000000000000000e+00 0.0000000000000000e+00  -4.4554519312751910e+02 1.2427497167951136e+01 0.0000000000000000e+00 1.2427497167951120e+01 3.5883338049774773e+02 0.0000000000000000e+00 0.0000000000000000e+00 0.0000000000000000e+00 0.0000000000000000e+00  -5.1150986939199174e+02 1.9520605556140293e+01 0.0000000000000000e+00 1.9520605556140200e+01 -7.1415934839933840e+01 0.0000000000000000e+00 0.0000000000000000e+00 0.0000000000000000e+00 0.0000000000000000e+00  -6.3885887963461516e+02 1.6895078295491135e+01 0.0000000000000000e+00 1.6895078295491032e+01 -2.5782627233072088e+02 0.0000000000000000e+00 0.0000000000000000e+00 0.0000000000000000e+00 0.0000000000000000e+00  -7.4345060039577140e+02 -4.5946402680494924e-01 0.0000000000000000e+00 -4.5946402680492693e-01 -2.6832836014155669e+02 0.0000000000000000e+00 0.0000000000000000e+00 0.0000000000000000e+00 0.0000000000000000e+00  -8.2574958183877368e+02 5.7456322876533390e+00 0.0000000000000000e+00 5.7456322876532591e+00 -1.5082197180525412e+02 0.0000000000000000e+00 0.0000000000000000e+00 0.0000000000000000e+00 0.0000000000000000e+00  -8.8664301612937720e+02 -1.1592478194954994e+01 0.0000000000000000e+00 -1.1592478194954952e+01 1.0419277945724399e+02 0.0000000000000000e+00 0.0000000000000000e+00 0.0000000000000000e+00 0.0000000000000000e+00  -1.0545118997487780e+03 8.3658020928467280e+00 0.0000000000000000e+00 8.3658020928463745e+00 6.6658141528890985e+02 0.0000000000000000e+00 0.0000000000000000e+00 0.0000000000000000e+00 0.0000000000000000e+00  -1.5127906849357535e+03 2.9434482163239938e+01 0.0000000000000000e+00 2.9434482163239750e+01 1.4572218194297118e+03 0.0000000000000000e+00 0.0000000000000000e+00 0.0000000000000000e+00 0.0000000000000000e+00  -2.2274714001945949e+03 9.5821976406743971e+01 0.0000000000000000e+00 9.5821976406744426e+01 2.1412601946074310e+03 0.0000000000000000e+00 0.0000000000000000e+00 0.0000000000000000e+00 0.0000000000000000e+00  -2.5565160094139992e+03 -8.8917875658119499e+01 0.0000000000000000e+00 -8.8917875658119456e+01 1.3728248981158904e+03 0.0000000000000000e+00 0.0000000000000000e+00 0.0000000000000000e+00 0.0000000000000000e+00  -2.0162054952149597e+03 2.0225770067636930e+01 0.0000000000000000e+00 2.0225770067636926e+01 -3.4977803021450342e+02 0.0000000000000000e+00 0.0000000000000000e+00 0.0000000000000000e+00 0.0000000000000000e+00  -2.2223907821334151e+03 7.1608219307481207e+01 0.0000000000000000e+00 7.1608219307481491e+01 5.3024659800238942e+02 0.0000000000000000e+00 0.0000000000000000e+00 0.0000000000000000e+00 0.0000000000000000e+00  -1.8763104877169710e+03 -7.1763663845376229e+01 0.0000000000000000e+00 -7.1763663845375930e+01 1.5093512544817156e+03 0.0000000000000000e+00 0.0000000000000000e+00 0.0000000000000000e+00 0.0000000000000000e+00  -1.0574384415937277e+03 -6.7765357528022165e+01 0.0000000000000000e+00 -6.7765357528022605e+01 8.8821657243542688e+02 0.0000000000000000e+00 0.0000000000000000e+00 0.0000000000000000e+00 0.0000000000000000e+00  -1.3052818838650916e+02 -4.0393900799838661e+01 0.0000000000000000e+00 -4.0393900799838342e+01 5.8813964522199967e+02 0.0000000000000000e+00 0.0000000000000000e+00 0.0000000000000000e+00 0.0000000000000000e+00  8.9527424705731576e+01 -2.1716312711213117e+01 0.0000000000000000e+00 -2.1716312711213106e+01 7.6259185700745604e+02 0.0000000000000000e+00 0.0000000000000000e+00 0.0000000000000000e+00 0.0000000000000000e+00  2.2076867282985467e+02 -2.2901909182684676e+01 0.0000000000000000e+00 -2.2901909182684594e+01 1.5132917400733188e+03 0.0000000000000000e+00 0.0000000000000000e+00 0.0000000000000000e+00 0.0000000000000000e+00  1.8550469591019626e+02 -3.5274028879782222e+01 0.0000000000000000e+00 -3.5274028879782250e+01 2.4672920659587912e+03 0.0000000000000000e+00 0.0000000000000000e+00 0.0000000000000000e+00 0.0000000000000000e+00  2.6160678849682193e+02 -3.8222383258775466e+01 0.0000000000000000e+00 -3.8222383258775444e+01 3.6420533026586104e+03 0.0000000000000000e+00 0.0000000000000000e+00 0.0000000000000000e+00 0.0000000000000000e+00  3.7646875101886785e+01 -2.4076073136940085e+01 0.0000000000000000e+00 -2.4076073136940167e+01 4.9543187223282293e+03 0.0000000000000000e+00 0.0000000000000000e+00 0.0000000000000000e+00 0.0000000000000000e+00  1.1300328531512764e+02 -3.7601967588767948e+01 0.0000000000000000e+00 -3.7601967588767984e+01 6.1559791120075697e+03 0.0000000000000000e+00 0.0000000000000000e+00 0.0000000000000000e+00 0.0000000000000000e+00  8.8775851278226146e+00 5.4986596285533260e+01 0.0000000000000000e+00 5.4986596285533210e+01 7.8140194908296544e+03 0.0000000000000000e+00 0.0000000000000000e+00 0.0000000000000000e+00 0.0000000000000000e+00  -1.4637646092366898e+00 2.2637260699787262e+01 0.0000000000000000e+00 2.2637260699787380e+01 8.0932710637316841e+03 0.0000000000000000e+00 0.0000000000000000e+00 0.0000000000000000e+00 0.0000000000000000e+00  -1.6430306014238212e+00 3.4578088298721241e+01 0.0000000000000000e+00 3.4578088298721411e+01 8.2368494654118804e+03 0.0000000000000000e+00 0.0000000000000000e+00 0.0000000000000000e+00 0.0000000000000000e+00  -2.1282001799276525e+01 1.6735809044283350e+01 0.0000000000000000e+00 1.6735809044283286e+01 8.4500188290866772e+03 0.0000000000000000e+00 0.0000000000000000e+00 0.0000000000000000e+00 0.0000000000000000e+00  3.5521594655026611e+01 4.1350718255147312e+00 0.0000000000000000e+00 4.1350718255146184e+00 8.7920768184636472e+03 0.0000000000000000e+00 0.0000000000000000e+00 0.0000000000000000e+00 0.0000000000000000e+00  -5.5815534175657486e+00 1.0497944582580496e+02 0.0000000000000000e+00 1.0497944582580463e+02 8.9381177801599497e+03 0.0000000000000000e+00 0.0000000000000000e+00 0.0000000000000000e+00 0.0000000000000000e+00  -6.5517669013945664e+01 1.0282380806741826e+02 0.0000000000000000e+00 1.0282380806741816e+02 9.7879029980341693e+03 0.0000000000000000e+00 0.0000000000000000e+00 0.0000000000000000e+00 0.0000000000000000e+00  -1.3277804031111637e+01 1.5905866192177601e+02 0.0000000000000000e+00 1.5905866192177581e+02 1.0741587003632498e+04 0.0000000000000000e+00 0.0000000000000000e+00 0.0000000000000000e+00 0.0000000000000000e+00  4.8887254936687876e+00 9.3477940583987447e+01 0.0000000000000000e+00 9.3477940583987007e+01 1.1852438276996469e+04 0.0000000000000000e+00 0.0000000000000000e+00 0.0000000000000000e+00 0.0000000000000000e+00  2.0648171717314591e+02 -2.4150561726760550e+01 0.0000000000000000e+00 -2.4150561726760813e+01 1.2230055258834636e+04 0.0000000000000000e+00 0.0000000000000000e+00 0.0000000000000000e+00 0.0000000000000000e+00  1.0158588376247168e+02 -1.9517031783989648e+02 0.0000000000000000e+00 -1.9517031783989566e+02 1.2198418845964134e+04 0.0000000000000000e+00 0.0000000000000000e+00 0.0000000000000000e+00 0.0000000000000000e+00  -1.6265654124352574e+02 -7.3299627635734657e+02 0.0000000000000000e+00 -7.3299627635734532e+02 9.7066398064383211e+03 0.0000000000000000e+00 0.0000000000000000e+00 0.0000000000000000e+00 0.0000000000000000e+00  1.0367757901952637e+03 1.3900376671277968e+02 0.0000000000000000e+00 1.3900376671278073e+02 3.5938715704800834e+03 0.0000000000000000e+00 0.0000000000000000e+00 0.0000000000000000e+00 0.0000000000000000e+00  9.2254661193975676e+02 1.4598952758788241e+03 0.0000000000000000e+00 1.4598952758788248e+03 3.5072846828490951e+03 0.0000000000000000e+00 0.0000000000000000e+00 0.0000000000000000e+00 0.0000000000000000e+00  4.9208600768995092e+02 -1.4931465138018652e+01 0.0000000000000000e+00 -1.4931465138018982e+01 1.2341119275071020e+04 0.0000000000000000e+00 0.0000000000000000e+00 0.0000000000000000e+00 0.0000000000000000e+00  1.7110788294943013e+03 -2.8014258409290937e+02 0.0000000000000000e+00 -2.8014258409290977e+02 1.3714367814705383e+04 0.0000000000000000e+00 0.0000000000000000e+00 0.0000000000000000e+00 0.0000000000000000e+00  2.0276289585657523e+03 -8.9659112385064861e+02 0.0000000000000000e+00 -8.9659112385064930e+02 1.3774752949420068e+04 0.0000000000000000e+00 0.0000000000000000e+00 0.0000000000000000e+00 0.0000000000000000e+00  -1.9569555626529980e+03 -2.4825633247221356e+02 0.0000000000000000e+00 -2.4825633247221373e+02 9.3667570618162590e+03 0.0000000000000000e+00 0.0000000000000000e+00 0.0000000000000000e+00 0.0000000000000000e+00  3.8153172570951608e+02 4.5469971539963996e+02 0.0000000000000000e+00 4.5469971539964030e+02 1.2111055335980647e+04 0.0000000000000000e+00 0.0000000000000000e+00 0.0000000000000000e+00 0.0000000000000000e+00  3.5944321586242131e+02 -4.3268633815770272e+02 0.0000000000000000e+00 -4.3268633815770312e+02 1.1703041969011458e+04 0.0000000000000000e+00 0.0000000000000000e+00 0.0000000000000000e+00 0.0000000000000000e+00  -1.7265166649742497e+02 -3.6778813996375135e+02 0.0000000000000000e+00 -3.6778813996375067e+02 8.5958270031351713e+03 0.0000000000000000e+00 0.0000000000000000e+00 0.0000000000000000e+00 0.0000000000000000e+00  1.1846763543445300e+02 3.8865199386060754e+00 0.0000000000000000e+00 3.8865199386057148e+00 7.7445875897079459e+03 0.0000000000000000e+00 0.0000000000000000e+00 0.0000000000000000e+00 0.0000000000000000e+00  -8.9007108027833084e+01 -3.6332820084298383e+01 0.0000000000000000e+00 -3.6332820084298319e+01 7.5311469966513077e+03 0.0000000000000000e+00 0.0000000000000000e+00 0.0000000000000000e+00 0.0000000