<?xml version="1.0"?>
<VTKFile type="UnstructuredGrid"  version="0.1"  >
<UnstructuredGrid>
<Piece  NumberOfPoints="3879" NumberOfCells="6881">
<Points>
<DataArray  type="Float64"  NumberOfComponents="3"  format="ascii">0.207524190028372 0.2122422770132111 0  0 0 0  1 0 0  0 1 0  1 1 0  0.6249674373315121 0.2590146544375328 0  0.204663578893616 0.322657230836866 0  0.09605577522599912 0.4018360776629776 0  0.671351124618251 0.08738059142081528 0  0.7842102907526436 0.1666439122351055 0  0.8512483166984784 0.1985391006160637 0  0.6418797837909295 0.4423157172830166 0  0.9292488447973215 0.3869277868069776 0  0.3197896119137055 0.5509935221980964 0  0.3979283685568406 0.5079871620336583 0  0.1572503457993085 0.7345153245035532 0  0.3032914287999163 0.7872981443735918 0  0.3549464687598876 0.8870324161721976 0  0.9691791685505482 0.5159450047798622 0  0.9447564590470373 0.6146164845729313 0  0.7687603548175107 0.7176858127488035 0  0.8926159261971183 0.7422924070424508 0  0.2061587782631535 0.2217389244366831 0  0.2021731605082994 0.2304662099646423 0  0.1958902278109265 0.2377171008267789 0  0.1878189860121365 0.2429041729681512 0  0.1786133191209442 0.2456072006525708 0  0.1690190155206647 0.2456072006525708 0  0.1598133486294724 0.2429041729681512 0  0.1517421068306824 0.2377171008267789 0  0.1454591741333096 0.2304662099646422 0  0.1414735563784554 0.221738924436683 0  0.1401081446132369 0.212242277013211 0  0.1414735563784555 0.202745629589739 0  0.1454591741333096 0.1940183440617798 0  0.1517421068306825 0.1867674531996431 0  0.1598133486294725 0.1815803810582709 0  0.1690190155206649 0.1788773533738513 0  0.1786133191209443 0.1788773533738514 0  0.1878189860121367 0.181580381058271 0  0.1958902278109266 0.1867674531996433 0  0.2021731605082994 0.19401834406178 0  0.2061587782631535 0.2027456295897391 0  0.03333333333333333 0 0  0.06666666666666667 0 0  0.1 0 0  0.1333333333333333 0 0  0.1666666666666667 0 0  0.2 0 0  0.2333333333333333 0 0  0.2666666666666667 0 0  0.3 0 0  0.3333333333333333 0 0  0.3666666666666666 0 0  0.4 0 0  0.4333333333333333 0 0  0.4666666666666667 0 0  0.5 0 0  0.5333333333333333 0 0  0.5666666666666667 0 0  0.6 0 0  0.6333333333333333 0 0  0.6666666666666666 0 0  0.7 0 0  0.7333333333333333 0 0  0.7666666666666667 0 0  0.8 0 0  0.8333333333333334 0 0  0.8666666666666667 0 0  0.9 0 0  0.9333333333333333 0 0  0.9666666666666667 0 0  0 0.9666666666666667 0  0 0.9333333333333333 0  0 0.9 0  0 0.8666666666666667 0  0 0.8333333333333334 0  0 0.8 0  0 0.7666666666666666 0  0 0.7333333333333334 0  0 0.7 0  0 0.6666666666666667 0  0 0.6333333333333333 0  0 0.6 0  0 0.5666666666666667 0  0 0.5333333333333333 0  0 0.5 0  0 0.4666666666666667 0  0 0.4333333333333333 0  0 0.4 0  0 0.3666666666666667 0  0 0.3333333333333334 0  0 0.3 0  0 0.2666666666666667 0  0 0.2333333333333333 0  0 0.2 0  0 0.1666666666666666 0  0 0.1333333333333333 0  0 0.09999999999999998 0  0 0.06666666666666665 0  0 0.03333333333333333 0  1 0.03333333333333333 0  1 0.06666666666666667 0  1 0.1 0  1 0.1333333333333333 0  1 0.1666666666666667 0  1 0.2 0  1 0.2333333333333333 0  1 0.2666666666666667 0  1 0.3 0  1 0.3333333333333333 0  1 0.3666666666666666 0  1 0.4 0  1 0.4333333333333333 0  1 0.4666666666666667 0  1 0.5 0  1 0.5333333333333333 0  1 0.5666666666666667 0  1 0.6 0  1 0.6333333333333333 0  1 0.6666666666666666 0  1 0.7 0  1 0.7333333333333333 0  1 0.7666666666666667 0  1 0.8 0  1 0.8333333333333334 0  1 0.8666666666666667 0  1 0.9 0  1 0.9333333333333333 0  1 0.9666666666666667 0  0.9666666666666667 1 0  0.9333333333333333 1 0  0.9 1 0  0.8666666666666667 1 0  0.8333333333333334 1 0  0.8 1 0  0.7666666666666666 1 0  0.7333333333333334 1 0  0.7 1 0  0.6666666666666667 1 0  0.6333333333333333 1 0  0.6 1 0  0.5666666666666667 1 0  0.5333333333333333 1 0  0.5 1 0  0.4666666666666667 1 0  0.4333333333333333 1 0  0.4 1 0  0.3666666666666667 1 0  0.3333333333333334 1 0  0.3 1 0  0.2666666666666667 1 0  0.2333333333333333 1 0  0.2 1 0  0.1666666666666666 1 0  0.1333333333333333 1 0  0.09999999999999998 1 0  0.06666666666666665 1 0  0.03333333333333333 1 0  0.6247072676344306 0.2689501343248463 0  0.6239274716502419 0.2788583817523955 0  0.6226301867455355 0.2887122389026952 0  0.6208189686880621 0.2984846970382296 0  0.6184987819006211 0.3081489705305245 0  0.6156759858539226 0.317678570277693 0  0.6123583176357204 0.3270473763092224 0  0.6085548707439923 0.3362297093789981 0  0.6042760701622942 0.3452004013503318 0  0.5995336437856049 0.3539348641800754 0  0.5943405902749808 0.3624091573127375 0  0.5887111434291297 0.3706000532998825 0  0.582660733170558 0.3784851014649517 0  0.5762059432532257 0.3860426894390078 0  0.5693644658076293 0.3932521023987353 0  0.5621550528479018 0.4000935798443317 0  0.5545974648738458 0.4065483697616639 0  0.5467124167087765 0.4125987800202355 0  0.5385215207216315 0.4182282268660866 0  0.5300472275889694 0.4234212803767108 0  0.5213127647592257 0.4281637067534002 0  0.512342072787892 0.4324425073350981 0  0.5031597397181163 0.4362459542268262 0  0.493790933686587 0.4395636224450283 0  0.4842613339394185 0.4423864184917269 0  0.4745970604471235 0.4447066052791678 0  0.4648246023115891 0.4465178233366412 0  0.4549707451612894 0.4478151082413475 0  0.4450624977337403 0.4485949042255363 0  0.4351270178464268 0.4488550739226177 0  0.4251915379591132 0.4485949042255363 0  0.4152832905315641 0.4478151082413475 0  0.4054294333812644 0.4465178233366411 0  0.39565697524573 0.4447066052791677 0  0.385992701753435 0.4423864184917267 0  0.3764631020062665 0.4395636224450281 0  0.3670942959747371 0.4362459542268259 0  0.3579119629049616 0.4324425073350978 0  0.3489412709336278 0.4281637067533998 0  0.3402068081038843 0.4234212803767103 0  0.3317325149712221 0.4182282268660862 0  0.3235416189840771 0.412598780020235 0  0.3156565708190078 0.4065483697616634 0  0.3080989828449519 0.4000935798443311 0  0.3008895698852244 0.3932521023987346 0  0.2940480924396279 0.3860426894390071 0  0.2875933025222958 0.3784851014649511 0  0.2815428922637242 0.3706000532998818 0  0.2759134454178731 0.3624091573127368 0  0.2707203919072489 0.3539348641800746 0  0.2659779655305596 0.3452004013503309 0  0.2616991649488616 0.3362297093789972 0  0.2578957180571336 0.3270473763092215 0  0.2545780498389315 0.3176785702776921 0  0.251755253792233 0.3081489705305236 0  0.249435067004792 0.2984846970382286 0  0.2476238489473186 0.2887122389026941 0  0.2463265640426123 0.2788583817523945 0  0.2455467680584236 0.2689501343248454 0  0.2452865983613423 0.2590146544375318 0  0.2455467680584237 0.2490791745502182 0  0.2463265640426126 0.2391709271226692 0  0.247623848947319 0.2293170699723696 0  0.2494350670047924 0.2195446118368351 0  0.2517552537922335 0.2098803383445402 0  0.2545780498389321 0.2003507385973717 0  0.2578957180571343 0.1909819325658423 0  0.2616991649488624 0.1817995994960667 0  0.2659779655305604 0.172828907524733 0  0.2707203919072498 0.1640944446949895 0  0.2759134454178741 0.1556201515623273 0  0.2815428922637251 0.1474292555751825 0  0.2875933025222969 0.1395442074101132 0  0.2940480924396291 0.1319866194360571 0  0.3008895698852256 0.1247772064763297 0  0.3080989828449531 0.1179357290307334 0  0.3156565708190092 0.1114809391134012 0  0.3235416189840785 0.1054305288548295 0  0.3317325149712236 0.09980108200897844 0  0.3402068081038856 0.0946080284983544 0  0.3489412709336291 0.08986560212166514 0  0.357911962904963 0.08558680153996717 0  0.3670942959747386 0.08178335464823916 0  0.3764631020062678 0.07846568643003712 0  0.3859927017534364 0.0756428903833386 0  0.3956569752457313 0.0733227035958976 0  0.4054294333812659 0.07151148553842429 0  0.4152832905315654 0.07021420063371797 0  0.4251915379591144 0.0694344046495293 0  0.435127017846428 0.0691742349524479 0  0.4450624977337415 0.06943440464952938 0  0.4549707451612905 0.07021420063371814 0  0.4648246023115901 0.07151148553842454 0  0.4745970604471245 0.07332270359589793 0  0.4842613339394195 0.07564289038333902 0  0.4937909336865879 0.07846568643003757 0  0.5031597397181173 0.0817833546482398 0  0.5123420727878929 0.08558680153996781 0  0.5213127647592265 0.08986560212166581 0  0.53004722758897 0.0946080284983552 0  0.5385215207216321 0.09980108200897933 0  0.5467124167087771 0.1054305288548305 0  0.5545974648738462 0.1114809391134021 0  0.5621550528479023 0.1179357290307343 0  0.5693644658076298 0.1247772064763308 0  0.576205943253226 0.1319866194360582 0  0.5826607331705582 0.1395442074101142 0  0.5887111434291299 0.1474292555751835 0  0.594340590274981 0.1556201515623285 0  0.5995336437856051 0.1640944446949906 0  0.6042760701622945 0.172828907524734 0  0.6085548707439925 0.1817995994960678 0  0.6123583176357205 0.1909819325658435 0  0.6156759858539227 0.2003507385973728 0  0.6184987819006211 0.2098803383445412 0  0.6208189686880622 0.2195446118368362 0  0.6226301867455355 0.2293170699723706 0  0.6239274716502419 0.2391709271226702 0  0.6247072676344306 0.2490791745502192 0  0.203885768735257 0.3325402459548524 0  0.2015714905276826 0.3421799084407872 0  0.1977777294810124 0.3513388578120612 0  0.1925979005829864 0.3597915703383434 0  0.1861595484119405 0.3673299121842922 0  0.1786212065659918 0.373768264355338 0  0.1701684940397096 0.378948093253364 0  0.1610095446684356 0.3827418543000342 0  0.1513698821825007 0.3850561325076086 0  0.1414868670645144 0.3858339426659677 0  0.1316038519465281 0.3850561325076086 0  0.1219641894605933 0.3827418543000343 0  0.1128052400893193 0.378948093253364 0  0.1043525275630371 0.3737682643553381 0  0.09681418571708833 0.3673299121842922 0  0.09037583354604248 0.3597915703383434 0  0.08519600464801645 0.3513388578120612 0  0.08140224360134621 0.3421799084407872 0  0.07908796539377183 0.3325402459548523 0  0.07831015523541281 0.3226572308368659 0  0.07908796539377186 0.3127742157188796 0  0.08140224360134626 0.3031345532329447 0  0.08519600464801655 0.2939756038616707 0  0.0903758335460426 0.2855228913353884 0  0.0968141857
[...]
<PointData  Tensors="$\sigma$"> 
<DataArray  type="Float64"  Name="$\sigma$"  NumberOfComponents="9" format="ascii">4.8169094470398545e+02 -2.3375921978354356e+01 0.0000000000000000e+00 -2.3375921978354356e+01 1.3426355272983032e+04 0.0000000000000000e+00 0.0000000000000000e+00 0.0000000000000000e+00 0.0000000000000000e+00  1.5688685188321281e+03 1.1056977195837565e+02 0.0000000000000000e+00 1.1056977195837585e+02 6.5540486360950772e+03 0.0000000000000000e+00 0.0000000000000000e+00 0.0000000000000000e+00 0.0000000000000000e+00  -3.5639434392360279e+01 -2.9515754145876418e+01 0.0000000000000000e+00 -2.9515754145876482e+01 6.7437945179735680e+03 0.0000000000000000e+00 0.0000000000000000e+00 0.0000000000000000e+00 0.0000000000000000e+00  8.6590843601653376e+00 -5.8233368681229774e+00 0.0000000000000000e+00 -5.8233368681230280e+00 7.0562859369428761e+03 0.0000000000000000e+00 0.0000000000000000e+00 0.0000000000000000e+00 0.0000000000000000e+00  8.9372966284400324e+00 1.4242717235665920e+01 0.0000000000000000e+00 1.4242717235665944e+01 6.0163121992265305e+03 0.0000000000000000e+00 0.0000000000000000e+00 0.0000000000000000e+00 0.0000000000000000e+00  4.7688976837059579e+02 -2.3653502796565414e+02 0.0000000000000000e+00 -2.3653502796565348e+02 1.2225143636185379e+04 0.0000000000000000e+00 0.0000000000000000e+00 0.0000000000000000e+00 0.0000000000000000e+00  -7.7704855284123127e+01 3.8777710733543631e+02 0.0000000000000000e+00 3.8777710733543722e+02 -1.8669094962823564e+01 0.0000000000000000e+00 0.0000000000000000e+00 0.0000000000000000e+00 0.0000000000000000e+00  9.1615012920365393e+02 2.6672155152653340e+02 0.0000000000000000e+00 2.6672155152653397e+02 1.4110647671025361e+04 0.0000000000000000e+00 0.0000000000000000e+00 0.0000000000000000e+00 0.0000000000000000e+00  1.9982954331597878e+02 -8.2487927655503697e+01 0.0000000000000000e+00 -8.2487927655505672e+01 1.3022718578661084e+04 0.0000000000000000e+00 0.0000000000000000e+00 0.0000000000000000e+00 0.0000000000000000e+00  -4.8014160987406751e+02 2.0767657283040725e+02 0.0000000000000000e+00 2.0767657283040734e+02 -5.9090962359992170e+02 0.0000000000000000e+00 0.0000000000000000e+00 0.0000000000000000e+00 0.0000000000000000e+00  -2.5481892890815448e+01 -1.0312714355114839e+02 0.0000000000000000e+00 -1.0312714355114856e+02 -9.7939849047988469e+02 0.0000000000000000e+00 0.0000000000000000e+00 0.0000000000000000e+00 0.0000000000000000e+00  1.5134343821715075e+02 5.5643398492182394e+02 0.0000000000000000e+00 5.5643398492182303e+02 7.9971139251924960e+03 0.0000000000000000e+00 0.0000000000000000e+00 0.0000000000000000e+00 0.0000000000000000e+00  -2.5510741311451352e+02 -3.0371895302648120e+01 0.0000000000000000e+00 -3.0371895302648387e+01 1.1250652024097646e+04 0.0000000000000000e+00 0.0000000000000000e+00 0.0000000000000000e+00 0.0000000000000000e+00  3.7103107913583477e+02 7.0582540163227236e+01 0.0000000000000000e+00 7.0582540163227506e+01 1.2146945729241228e+04 0.0000000000000000e+00 0.0000000000000000e+00 0.0000000000000000e+00 0.0000000000000000e+00  -1.4475986327962201e+02 -2.6273032087905943e+02 0.0000000000000000e+00 -2.6273032087905784e+02 -1.7074599482162942e+03 0.0000000000000000e+00 0.0000000000000000e+00 0.0000000000000000e+00 0.0000000000000000e+00  -5.2137550665649394e+02 -2.8351108863075638e+02 0.0000000000000000e+00 -2.8351108863075660e+02 -2.7456456310531989e+03 0.0000000000000000e+00 0.0000000000000000e+00 0.0000000000000000e+00 0.0000000000000000e+00  3.4142729461751737e+00 -1.2166018979887095e+02 0.0000000000000000e+00 -1.2166018979887345e+02 8.2326121507148819e+03 0.0000000000000000e+00 0.0000000000000000e+00 0.0000000000000000e+00 0.0000000000000000e+00  1.3733559502438837e+02 1.2847228328291138e+02 0.0000000000000000e+00 1.2847228328291234e+02 1.1325181899316616e+04 0.0000000000000000e+00 0.0000000000000000e+00 0.0000000000000000e+00 0.0000000000000000e+00  6.6685185908281019e+03 9.4131518380198600e+02 0.0000000000000000e+00 9.4131518380198736e+02 1.9064116951989708e+04 0.0000000000000000e+00 0.0000000000000000e+00 0.0000000000000000e+00 0.0000000000000000e+00  8.7247798355282077e+02 3.1138505188558099e+02 0.0000000000000000e+00 3.1138505188558082e+02 1.2393252831915541e+04 0.0000000000000000e+00 0.0000000000000000e+00 0.0000000000000000e+00 0.0000000000000000e+00  3.6884611189012972e+01 1.8790849051252019e+02 0.0000000000000000e+00 1.8790849051251899e+02 1.0967072549611963e+04 0.0000000000000000e+00 0.0000000000000000e+00 0.0000000000000000e+00 0.0000000000000000e+00  9.6545609925189154e+01 7.5607303178467021e+01 0.0000000000000000e+00 7.5607303178466523e+01 4.7160419789196267e+03 0.0000000000000000e+00 0.0000000000000000e+00 0.0000000000000000e+00 0.0000000000000000e+00  6.6930956846962124e+02 -2.0568448586742525e+03 0.0000000000000000e+00 -2.0568448586742511e+03 8.8059823133871596e+03 0.0000000000000000e+00 0.0000000000000000e+00 0.0000000000000000e+00 0.0000000000000000e+00  -2.3131217404859325e+02 -7.0982206744727557e+02 0.0000000000000000e+00 -7.0982206744727637e+02 2.3682031043668826e+03 0.0000000000000000e+00 0.0000000000000000e+00 0.0000000000000000e+00 0.0000000000000000e+00  -2.4679923106734650e+03 1.5721083898804086e+03 0.0000000000000000e+00 1.5721083898804131e+03 -1.0823522610557798e+03 0.0000000000000000e+00 0.0000000000000000e+00 0.0000000000000000e+00 0.0000000000000000e+00  -5.7795123283953671e+03 2.0638776045468062e+03 0.0000000000000000e+00 2.0638776045468112e+03 -1.0804267221054397e+03 0.0000000000000000e+00 0.0000000000000000e+00 0.0000000000000000e+00 0.0000000000000000e+00  -4.6697543944482768e+03 1.0685927771650872e+03 0.0000000000000000e+00 1.0685927771650825e+03 -7.1481210656062694e+02 0.0000000000000000e+00 0.0000000000000000e+00 0.0000000000000000e+00 0.0000000000000000e+00  1.4728517314662149e+03 2.8494476477226017e+03 0.0000000000000000e+00 2.8494476477226031e+03 1.7336606192052348e+03 0.0000000000000000e+00 0.0000000000000000e+00 0.0000000000000000e+00 0.0000000000000000e+00  9.2272082814518308e+03 5.6286478555527538e+03 0.0000000000000000e+00 5.6286478555527492e+03 3.2657782266579825e+03 0.0000000000000000e+00 0.0000000000000000e+00 0.0000000000000000e+00 0.0000000000000000e+00  8.8809060877120628e+03 6.3576335920114607e+03 0.0000000000000000e+00 6.3576335920114698e+03 6.9471188415946199e+03 0.0000000000000000e+00 0.0000000000000000e+00 0.0000000000000000e+00 0.0000000000000000e+00  3.9320908545635452e+03 5.6510280921500762e+03 0.0000000000000000e+00 5.6510280921500780e+03 7.8598626223027850e+03 0.0000000000000000e+00 0.0000000000000000e+00 0.0000000000000000e+00 0.0000000000000000e+00  1.4014767535503195e+03 2.4355168501139246e+03 0.0000000000000000e+00 2.4355168501139233e+03 6.4205974601127209e+03 0.0000000000000000e+00 0.0000000000000000e+00 0.0000000000000000e+00 0.0000000000000000e+00  2.6840396851772390e+01 3.9829967838917401e+02 0.0000000000000000e+00 3.9829967838917457e+02 5.2166248145231912e+03 0.0000000000000000e+00 0.0000000000000000e+00 0.0000000000000000e+00 0.0000000000000000e+00  1.7843368844777916e+02 -3.1995051131600371e+02 0.0000000000000000e+00 -3.1995051131600400e+02 2.1447166832137295e+03 0.0000000000000000e+00 0.0000000000000000e+00 0.0000000000000000e+00 0.0000000000000000e+00  -4.1523293203063247e+02 4.0670130847445853e+02 0.0000000000000000e+00 4.0670130847445864e+02 -1.8438237240118275e+02 0.0000000000000000e+00 0.0000000000000000e+00 0.0000000000000000e+00 0.0000000000000000e+00  -1.9380122801982914e+03 1.4866925205369118e+03 0.0000000000000000e+00 1.4866925205369137e+03 -1.1902093121124096e+03 0.0000000000000000e+00 0.0000000000000000e+00 0.0000000000000000e+00 0.0000000000000000e+00  -3.6005683481243964e+03 1.4924960961815425e+03 0.0000000000000000e+00 1.4924960961815400e+03 -9.3762006826143545e+02 0.0000000000000000e+00 0.0000000000000000e+00 0.0000000000000000e+00 0.0000000000000000e+00  -3.6344801933673330e+03 7.4639049014038244e+02 0.0000000000000000e+00 7.4639049014038198e+02 -4.4756054306758625e+02 0.0000000000000000e+00 0.0000000000000000e+00 0.0000000000000000e+00 0.0000000000000000e+00  -1.6551487265492196e+03 -5.6558270489595568e+00 0.0000000000000000e+00 -5.6558270489612710e+00 1.0935980899801365e+02 0.0000000000000000e+00 0.0000000000000000e+00 0.0000000000000000e+00 0.0000000000000000e+00  1.8301455478315233e+03 1.2256239185978031e+03 0.0000000000000000e+00 1.2256239185978059e+03 6.5713604195861933e+02 0.0000000000000000e+00 0.0000000000000000e+00 0.0000000000000000e+00 0.0000000000000000e+00  3.7169593073251854e+03 3.2398899219447517e+03 0.0000000000000000e+00 3.2398899219447508e+03 3.6206971582960423e+03 0.0000000000000000e+00 0.0000000000000000e+00 0.0000000000000000e+00 0.0000000000000000e+00  3.0904753390812771e+03 4.9993722789897947e+03 0.0000000000000000e+00 4.9993722789898056e+03 8.2633197822178772e+03 0.0000000000000000e+00 0.0000000000000000e+00 0.0000000000000000e+00 0.0000000000000000e+00  1.8980737314825026e+03 3.2027040535199699e+03 0.0000000000000000e+00 3.2027040535199712e+03 1.2587282281896023e+04 0.0000000000000000e+00 0.0000000000000000e+00 0.0000000000000000e+00 0.0000000000000000e+00  5.1017623135977726e+02 -3.9373368108018519e+02 0.0000000000000000e+00 -3.9373368108018565e+02 5.4924485656780444e+03 0.0000000000000000e+00 0.0000000000000000e+00 0.0000000000000000e+00 0.0000000000000000e+00  -1.0221807802770438e+02 7.0396329010374075e+01 0.0000000000000000e+00 7.0396329010373975e+01 4.7980982569600574e+03 0.0000000000000000e+00 0.0000000000000000e+00 0.0000000000000000e+00 0.0000000000000000e+00  3.3029993502839022e+02 -1.8779079791224117e+01 0.0000000000000000e+00 -1.8779079791224117e+01 3.6505807845695931e+03 0.0000000000000000e+00 0.0000000000000000e+00 0.0000000000000000e+00 0.0000000000000000e+00  -6.1414531105799526e+01 5.9515673158584043e+01 0.0000000000000000e+00 5.9515673158583986e+01 3.0592023355982060e+03 0.0000000000000000e+00 0.0000000000000000e+00 0.0000000000000000e+00 0.0000000000000000e+00  7.2962978839567995e+01 4.3648477273012048e+01 0.0000000000000000e+00 4.3648477273011977e+01 2.4232061829308032e+03 0.0000000000000000e+00 0.0000000000000000e+00 0.0000000000000000e+00 0.0000000000000000e+00  -1.5090821640887424e+02 3.3981831539850532e+01 0.0000000000000000e+00 3.3981831539850496e+01 1.8515741634926692e+03 0.0000000000000000e+00 0.0000000000000000e+00 0.0000000000000000e+00 0.0000000000000000e+00  -2.0457588599232179e+02 1.1918959519656074e+01 0.0000000000000000e+00 1.1918959519656125e+01 1.3516528612414836e+03 0.0000000000000000e+00 0.0000000000000000e+00 0.0000000000000000e+00 0.0000000000000000e+00  -3.2765991482110564e+02 8.9609819906074861e+00 0.0000000000000000e+00 8.9609819906074808e+00 8.4296717909052916e+02 0.0000000000000000e+00 0.0000000000000000e+00 0.0000000000000000e+00 0.0000000000000000e+00  -3.3634062185561589e+02 1.1444709523788921e+01 0.0000000000000000e+00 1.1444709523788923e+01 3.3653202524238810e+02 0.0000000000000000e+00 0.0000000000000000e+00 0.0000000000000000e+00 0.0000000000000000e+00  -3.9179598791685476e+02 1.8221810206711023e+01 0.0000000000000000e+00 1.8221810206710938e+01 -6.1697959600806549e+01 0.0000000000000000e+00 0.0000000000000000e+00 0.0000000000000000e+00 0.0000000000000000e+00  -5.0511116728278949e+02 1.5376154486921394e+01 0.0000000000000000e+00 1.5376154486921347e+01 -2.2780556002991227e+02 0.0000000000000000e+00 0.0000000000000000e+00 0.0000000000000000e+00 0.0000000000000000e+00  -5.9830882780847833e+02 -1.2922544027378777e-01 0.0000000000000000e+00 -1.2922544027375990e-01 -2.3275730888204558e+02 0.0000000000000000e+00 0.0000000000000000e+00 0.0000000000000000e+00 0.0000000000000000e+00  -6.7167791518977242e+02 4.9634074352116722e+00 0.0000000000000000e+00 4.9634074352116127e+00 -1.2696514892179283e+02 0.0000000000000000e+00 0.0000000000000000e+00 0.0000000000000000e+00 0.0000000000000000e+00  -7.2456556675353670e+02 -9.9888269201146613e+00 0.0000000000000000e+00 -9.9888269201146240e+00 9.3435830094097298e+01 0.0000000000000000e+00 0.0000000000000000e+00 0.0000000000000000e+00 0.0000000000000000e+00  -8.7118210603055297e+02 7.6392033677216693e+00 0.0000000000000000e+00 7.6392033677214783e+00 5.8065533522659280e+02 0.0000000000000000e+00 0.0000000000000000e+00 0.0000000000000000e+00 0.0000000000000000e+00  -1.2635339172059983e+03 2.7518319218168561e+01 0.0000000000000000e+00 2.7518319218168436e+01 1.2652658984992129e+03 0.0000000000000000e+00 0.0000000000000000e+00 0.0000000000000000e+00 0.0000000000000000e+00  -1.8772382235290479e+03 8.2630378339210964e+01 0.0000000000000000e+00 8.2630378339211418e+01 1.8532750012012639e+03 0.0000000000000000e+00 0.0000000000000000e+00 0.0000000000000000e+00 0.0000000000000000e+00  -2.1506993751044120e+03 -8.0752629174522070e+01 0.0000000000000000e+00 -8.0752629174521843e+01 1.1995545089355571e+03 0.0000000000000000e+00 0.0000000000000000e+00 0.0000000000000000e+00 0.0000000000000000e+00  -1.6813928071972343e+03 1.6806912469469580e+01 0.0000000000000000e+00 1.6806912469469570e+01 -2.4944925480006248e+02 0.0000000000000000e+00 0.0000000000000000e+00 0.0000000000000000e+00 0.0000000000000000e+00  -1.8880583364588160e+03 6.6376676221455710e+01 0.0000000000000000e+00 6.6376676221455824e+01 6.0193062247513330e+02 0.0000000000000000e+00 0.0000000000000000e+00 0.0000000000000000e+00 0.0000000000000000e+00  -1.5810328332268914e+03 -6.1316311750387790e+01 0.0000000000000000e+00 -6.1316311750387662e+01 1.4599803700596701e+03 0.0000000000000000e+00 0.0000000000000000e+00 0.0000000000000000e+00 0.0000000000000000e+00  -8.3265925869572857e+02 -6.2506511730515506e+01 0.0000000000000000e+00 -6.2506511730515797e+01 8.6195667921970266e+02 0.0000000000000000e+00 0.0000000000000000e+00 0.0000000000000000e+00 0.0000000000000000e+00  -1.4722067238142733e+01 -3.5407296850494426e+01 0.0000000000000000e+00 -3.5407296850494113e+01 5.9217235640417925e+02 0.0000000000000000e+00 0.0000000000000000e+00 0.0000000000000000e+00 0.0000000000000000e+00  1.6378795066035246e+02 -1.9419980078693261e+01 0.0000000000000000e+00 -1.9419980078693250e+01 7.6921382715354866e+02 0.0000000000000000e+00 0.0000000000000000e+00 0.0000000000000000e+00 0.0000000000000000e+00  2.5681557850521938e+02 -1.8785564865317969e+01 0.0000000000000000e+00 -1.8785564865317884e+01 1.4689335166505564e+03 0.0000000000000000e+00 0.0000000000000000e+00 0.0000000000000000e+00 0.0000000000000000e+00  2.0752709822326230e+02 -3.2633300159567597e+01 0.0000000000000000e+00 -3.2633300159567604e+01 2.3568618640022196e+03 0.0000000000000000e+00 0.0000000000000000e+00 0.0000000000000000e+00 0.0000000000000000e+00  2.5592286234457870e+02 -3.2907127570652662e+01 0.0000000000000000e+00 -3.2907127570652648e+01 3.4333539154724149e+03 0.0000000000000000e+00 0.0000000000000000e+00 0.0000000000000000e+00 0.0000000000000000e+00  4.5894158234889112e+01 -2.1499621712683219e+01 0.0000000000000000e+00 -2.1499621712683339e+01 4.6332174988726983e+03 0.0000000000000000e+00 0.0000000000000000e+00 0.0000000000000000e+00 0.0000000000000000e+00  1.0344479119667980e+02 -3.3867285630486734e+01 0.0000000000000000e+00 -3.3867285630486798e+01 5.7176229833968291e+03 0.0000000000000000e+00 0.0000000000000000e+00 0.0000000000000000e+00 0.0000000000000000e+00  7.1671715447081423e+00 4.9340389865474997e+01 0.0000000000000000e+00 4.9340389865475039e+01 7.1044370208308619e+03 0.0000000000000000e+00 0.0000000000000000e+00 0.0000000000000000e+00 0.0000000000000000e+00  -4.0763738996234261e-01 2.0112172942248080e+01 0.0000000000000000e+00 2.0112172942248147e+01 7.3572143241034209e+03 0.0000000000000000e+00 0.0000000000000000e+00 0.0000000000000000e+00 0.0000000000000000e+00  -2.5030412817627714e+00 3.4249914761100129e+01 0.0000000000000000e+00 3.4249914761100442e+01 7.4952939690247586e+03 0.0000000000000000e+00 0.0000000000000000e+00 0.0000000000000000e+00 0.0000000000000000e+00  -1.7410595660399590e+01 1.6415342590168787e+01 0.0000000000000000e+00 1.6415342590168805e+01 7.7021846904843032e+03 0.0000000000000000e+00 0.0000000000000000e+00 0.0000000000000000e+00 0.0000000000000000e+00  3.0437326256805164e+01 6.7290361543206174e+00 0.0000000000000000e+00 6.7290361543205375e+00 8.0129623392680460e+03 0.0000000000000000e+00 0.0000000000000000e+00 0.0000000000000000e+00 0.0000000000000000e+00  -5.9943937048912357e+00 8.8028604245430316e+01 0.0000000000000000e+00 8.8028604245430017e+01 8.1436613339134947e+03 0.0000000000000000e+00 0.0000000000000000e+00 0.0000000000000000e+00 0.0000000000000000e+00  -5.5685123583470734e+01 9.5437523196628248e+01 0.0000000000000000e+00 9.5437523196628007e+01 8.8892805021524982e+03 0.0000000000000000e+00 0.0000000000000000e+00 0.0000000000000000e+00 0.0000000000000000e+00  -7.3767538344932477e+00 1.6303183327844690e+02 0.0000000000000000e+00 1.6303183327844681e+02 9.7839005934485558e+03 0.0000000000000000e+00 0.0000000000000000e+00 0.0000000000000000e+00 0.0000000000000000e+00  -8.9569401670627400e+00 9.5904499181779201e+01 0.0000000000000000e+00 9.5904499181778931e+01 1.0890767834147056e+04 0.0000000000000000e+00 0.0000000000000000e+00 0.0000000000000000e+00 0.0000000000000000e+00  -5.5553462334530785e+01 -2.5439645183804711e+01 0.0000000000000000e+00 -2.5439645183804892e+01 1.1345407874458708e+04 0.0000000000000000e+00 0.0000000000000000e+00 0.0000000000000000e+00 0.0000000000000000e+00  -2.4787930671215914e+01 -3.0329006816901239e+02 0.0000000000000000e+00 -3.0329006816901170e+02 1.0739857053851503e+04 0.0000000000000000e+00 0.0000000000000000e+00 0.0000000000000000e+00 0.0000000000000000e+00  -3.1968336239123744e+02 -8.6676788088987701e+02 0.0000000000000000e+00 -8.6676788088987621e+02 8.2147740636845774e+03 0.0000000000000000e+00 0.0000000000000000e+00 0.0000000000000000e+00 0.0000000000000000e+00  7.9250330864939770e+02 1.7376420423628556e+02 0.0000000000000000e+00 1.7376420423628585e+02 2.5167299262958759e+03 0.0000000000000000e+00 0.0000000000000000e+00 0.0000000000000000e+00 0.0000000000000000e+00  9.8087076233338087e+02 1.2105778786834642e+03 0.0000000000000000e+00 1.2105778786834624e+03 2.7532287928877872e+03 0.0000000000000000e+00 0.0000000000000000e+00 0.0000000000000000e+00 0.0000000000000000e+00  1.5323454461120028e+02 3.5265110288308028e+02 0.0000000000000000e+00 3.5265110288308023e+02 1.0662871967187244e+04 0.0000000000000000e+00 0.0000000000000000e+00 0.0000000000000000e+00 0.0000000000000000e+00  8.7708115601609495e+02 1.7202900724004767e+01 0.0000000000000000e+00 1.7202900724003722e+01 1.2978245622217610e+04 0.0000000000000000e+00 0.0000000000000000e+00 0.0000000000000000e+00 0.0000000000000000e+00  1.4858898213131965e+03 -8.0703390249165363e+02 0.0000000000000000e+00 -8.0703390249165454e+02 1.3171834781057680e+04 0.0000000000000000e+00 0.0000000000000000e+00 0.0000000000000000e+00 0.0000000000000000e+00  -1.2478279072340615e+03 -4.4642111538039381e+02 0.0000000000000000e+00 -4.4642111538039404e+02 8.8697852912044727e+03 0.0000000000000000e+00 0.0000000000000000e+00 0.0000000000000000e+00 0.0000000000000000e+00  -1.7543590584260212e+02 4.7433043482028268e+02 0.0000000000000000e+00 4.7433043482028324e+02 1.1520717758832505e+04 0.0000000000000000e+00 0.0000000000000000e+00 0.0000000000000000e+00 0.0000000000000000e+00  1.0868531641826500e+02 -3.2537667917068734e+02 0.0000000000000000e+00 -3.2537667917068802e+02 1.0761500204261809e+04 0.0000000000000000e+00 0.0000000000000000e+00 0.0000000000000000e+00 0.0000000000000000e+00  -1.2984360880295668e+02 -3.5563668860854438e+02 0.0000000000000000e+00 -3.5563668860854392e+02 8.0877139820595230e+03 0.0000000000000000e+00 0.0000000000000000e+00 0.0000000000000000e+00 0.0000000000000000e+00  9.5471245890213766e+01 -6.9827118970915256e+00 0.0000000000000000e+00 -6.9827118970916793e+00 7.3968039319497111e+03 0.0000000000000000e+00 0.0000000000000000e+00 0.0000000000000000e+00 0.0000000000000000e+00  -7.2688067295609329e+01 -3.1274306393103871e+01 0.0000000000000000e+00 -3.1274306393103757e+01 7.1188542703022167e+03 0.0000000000000000e+00 0.0000000000000000e+00 0.0000000000000000e+00 0.00000