<?xml version="1.0"?>
<VTKFile type="UnstructuredGrid"  version="0.1"  >
<UnstructuredGrid>
<Piece  NumberOfPoints="3879" NumberOfCells="6881">
<Points>
<DataArray  type="Float64"  NumberOfComponents="3"  format="ascii">0.207524190028372 0.2122422770132111 0  0 0 0  1 0 0  0 1 0  1 1 0  0.6249674373315121 0.2590146544375328 0  0.204663578893616 0.322657230836866 0  0.09605577522599912 0.4018360776629776 0  0.671351124618251 0.08738059142081528 0  0.7842102907526436 0.1666439122351055 0  0.8512483166984784 0.1985391006160637 0  0.6418797837909295 0.4423157172830166 0  0.9292488447973215 0.3869277868069776 0  0.3197896119137055 0.5509935221980964 0  0.3979283685568406 0.5079871620336583 0  0.1572503457993085 0.7345153245035532 0  0.3032914287999163 0.7872981443735918 0  0.3549464687598876 0.8870324161721976 0  0.9691791685505482 0.5159450047798622 0  0.9447564590470373 0.6146164845729313 0  0.7687603548175107 0.7176858127488035 0  0.8926159261971183 0.7422924070424508 0  0.2061587782631535 0.2217389244366831 0  0.2021731605082994 0.2304662099646423 0  0.1958902278109265 0.2377171008267789 0  0.1878189860121365 0.2429041729681512 0  0.1786133191209442 0.2456072006525708 0  0.1690190155206647 0.2456072006525708 0  0.1598133486294724 0.2429041729681512 0  0.1517421068306824 0.2377171008267789 0  0.1454591741333096 0.2304662099646422 0  0.1414735563784554 0.221738924436683 0  0.1401081446132369 0.212242277013211 0  0.1414735563784555 0.202745629589739 0  0.1454591741333096 0.1940183440617798 0  0.1517421068306825 0.1867674531996431 0  0.1598133486294725 0.1815803810582709 0  0.1690190155206649 0.1788773533738513 0  0.1786133191209443 0.1788773533738514 0  0.1878189860121367 0.181580381058271 0  0.1958902278109266 0.1867674531996433 0  0.2021731605082994 0.19401834406178 0  0.2061587782631535 0.2027456295897391 0  0.03333333333333333 0 0  0.06666666666666667 0 0  0.1 0 0  0.1333333333333333 0 0  0.1666666666666667 0 0  0.2 0 0  0.2333333333333333 0 0  0.2666666666666667 0 0  0.3 0 0  0.3333333333333333 0 0  0.3666666666666666 0 0  0.4 0 0  0.4333333333333333 0 0  0.4666666666666667 0 0  0.5 0 0  0.5333333333333333 0 0  0.5666666666666667 0 0  0.6 0 0  0.6333333333333333 0 0  0.6666666666666666 0 0  0.7 0 0  0.7333333333333333 0 0  0.7666666666666667 0 0  0.8 0 0  0.8333333333333334 0 0  0.8666666666666667 0 0  0.9 0 0  0.9333333333333333 0 0  0.9666666666666667 0 0  0 0.9666666666666667 0  0 0.9333333333333333 0  0 0.9 0  0 0.8666666666666667 0  0 0.8333333333333334 0  0 0.8 0  0 0.7666666666666666 0  0 0.7333333333333334 0  0 0.7 0  0 0.6666666666666667 0  0 0.6333333333333333 0  0 0.6 0  0 0.5666666666666667 0  0 0.5333333333333333 0  0 0.5 0  0 0.4666666666666667 0  0 0.4333333333333333 0  0 0.4 0  0 0.3666666666666667 0  0 0.3333333333333334 0  0 0.3 0  0 0.2666666666666667 0  0 0.2333333333333333 0  0 0.2 0  0 0.1666666666666666 0  0 0.1333333333333333 0  0 0.09999999999999998 0  0 0.06666666666666665 0  0 0.03333333333333333 0  1 0.03333333333333333 0  1 0.06666666666666667 0  1 0.1 0  1 0.1333333333333333 0  1 0.1666666666666667 0  1 0.2 0  1 0.2333333333333333 0  1 0.2666666666666667 0  1 0.3 0  1 0.3333333333333333 0  1 0.3666666666666666 0  1 0.4 0  1 0.4333333333333333 0  1 0.4666666666666667 0  1 0.5 0  1 0.5333333333333333 0  1 0.5666666666666667 0  1 0.6 0  1 0.6333333333333333 0  1 0.6666666666666666 0  1 0.7 0  1 0.7333333333333333 0  1 0.7666666666666667 0  1 0.8 0  1 0.8333333333333334 0  1 0.8666666666666667 0  1 0.9 0  1 0.9333333333333333 0  1 0.9666666666666667 0  0.9666666666666667 1 0  0.9333333333333333 1 0  0.9 1 0  0.8666666666666667 1 0  0.8333333333333334 1 0  0.8 1 0  0.7666666666666666 1 0  0.7333333333333334 1 0  0.7 1 0  0.6666666666666667 1 0  0.6333333333333333 1 0  0.6 1 0  0.5666666666666667 1 0  0.5333333333333333 1 0  0.5 1 0  0.4666666666666667 1 0  0.4333333333333333 1 0  0.4 1 0  0.3666666666666667 1 0  0.3333333333333334 1 0  0.3 1 0  0.2666666666666667 1 0  0.2333333333333333 1 0  0.2 1 0  0.1666666666666666 1 0  0.1333333333333333 1 0  0.09999999999999998 1 0  0.06666666666666665 1 0  0.03333333333333333 1 0  0.6247072676344306 0.2689501343248463 0  0.6239274716502419 0.2788583817523955 0  0.6226301867455355 0.2887122389026952 0  0.6208189686880621 0.2984846970382296 0  0.6184987819006211 0.3081489705305245 0  0.6156759858539226 0.317678570277693 0  0.6123583176357204 0.3270473763092224 0  0.6085548707439923 0.3362297093789981 0  0.6042760701622942 0.3452004013503318 0  0.5995336437856049 0.3539348641800754 0  0.5943405902749808 0.3624091573127375 0  0.5887111434291297 0.3706000532998825 0  0.582660733170558 0.3784851014649517 0  0.5762059432532257 0.3860426894390078 0  0.5693644658076293 0.3932521023987353 0  0.5621550528479018 0.4000935798443317 0  0.5545974648738458 0.4065483697616639 0  0.5467124167087765 0.4125987800202355 0  0.5385215207216315 0.4182282268660866 0  0.5300472275889694 0.4234212803767108 0  0.5213127647592257 0.4281637067534002 0  0.512342072787892 0.4324425073350981 0  0.5031597397181163 0.4362459542268262 0  0.493790933686587 0.4395636224450283 0  0.4842613339394185 0.4423864184917269 0  0.4745970604471235 0.4447066052791678 0  0.4648246023115891 0.4465178233366412 0  0.4549707451612894 0.4478151082413475 0  0.4450624977337403 0.4485949042255363 0  0.4351270178464268 0.4488550739226177 0  0.4251915379591132 0.4485949042255363 0  0.4152832905315641 0.4478151082413475 0  0.4054294333812644 0.4465178233366411 0  0.39565697524573 0.4447066052791677 0  0.385992701753435 0.4423864184917267 0  0.3764631020062665 0.4395636224450281 0  0.3670942959747371 0.4362459542268259 0  0.3579119629049616 0.4324425073350978 0  0.3489412709336278 0.4281637067533998 0  0.3402068081038843 0.4234212803767103 0  0.3317325149712221 0.4182282268660862 0  0.3235416189840771 0.412598780020235 0  0.3156565708190078 0.4065483697616634 0  0.3080989828449519 0.4000935798443311 0  0.3008895698852244 0.3932521023987346 0  0.2940480924396279 0.3860426894390071 0  0.2875933025222958 0.3784851014649511 0  0.2815428922637242 0.3706000532998818 0  0.2759134454178731 0.3624091573127368 0  0.2707203919072489 0.3539348641800746 0  0.2659779655305596 0.3452004013503309 0  0.2616991649488616 0.3362297093789972 0  0.2578957180571336 0.3270473763092215 0  0.2545780498389315 0.3176785702776921 0  0.251755253792233 0.3081489705305236 0  0.249435067004792 0.2984846970382286 0  0.2476238489473186 0.2887122389026941 0  0.2463265640426123 0.2788583817523945 0  0.2455467680584236 0.2689501343248454 0  0.2452865983613423 0.2590146544375318 0  0.2455467680584237 0.2490791745502182 0  0.2463265640426126 0.2391709271226692 0  0.247623848947319 0.2293170699723696 0  0.2494350670047924 0.2195446118368351 0  0.2517552537922335 0.2098803383445402 0  0.2545780498389321 0.2003507385973717 0  0.2578957180571343 0.1909819325658423 0  0.2616991649488624 0.1817995994960667 0  0.2659779655305604 0.172828907524733 0  0.2707203919072498 0.1640944446949895 0  0.2759134454178741 0.1556201515623273 0  0.2815428922637251 0.1474292555751825 0  0.2875933025222969 0.1395442074101132 0  0.2940480924396291 0.1319866194360571 0  0.3008895698852256 0.1247772064763297 0  0.3080989828449531 0.1179357290307334 0  0.3156565708190092 0.1114809391134012 0  0.3235416189840785 0.1054305288548295 0  0.3317325149712236 0.09980108200897844 0  0.3402068081038856 0.0946080284983544 0  0.3489412709336291 0.08986560212166514 0  0.357911962904963 0.08558680153996717 0  0.3670942959747386 0.08178335464823916 0  0.3764631020062678 0.07846568643003712 0  0.3859927017534364 0.0756428903833386 0  0.3956569752457313 0.0733227035958976 0  0.4054294333812659 0.07151148553842429 0  0.4152832905315654 0.07021420063371797 0  0.4251915379591144 0.0694344046495293 0  0.435127017846428 0.0691742349524479 0  0.4450624977337415 0.06943440464952938 0  0.4549707451612905 0.07021420063371814 0  0.4648246023115901 0.07151148553842454 0  0.4745970604471245 0.07332270359589793 0  0.4842613339394195 0.07564289038333902 0  0.4937909336865879 0.07846568643003757 0  0.5031597397181173 0.0817833546482398 0  0.5123420727878929 0.08558680153996781 0  0.5213127647592265 0.08986560212166581 0  0.53004722758897 0.0946080284983552 0  0.5385215207216321 0.09980108200897933 0  0.5467124167087771 0.1054305288548305 0  0.5545974648738462 0.1114809391134021 0  0.5621550528479023 0.1179357290307343 0  0.5693644658076298 0.1247772064763308 0  0.576205943253226 0.1319866194360582 0  0.5826607331705582 0.1395442074101142 0  0.5887111434291299 0.1474292555751835 0  0.594340590274981 0.1556201515623285 0  0.5995336437856051 0.1640944446949906 0  0.6042760701622945 0.172828907524734 0  0.6085548707439925 0.1817995994960678 0  0.6123583176357205 0.1909819325658435 0  0.6156759858539227 0.2003507385973728 0  0.6184987819006211 0.2098803383445412 0  0.6208189686880622 0.2195446118368362 0  0.6226301867455355 0.2293170699723706 0  0.6239274716502419 0.2391709271226702 0  0.6247072676344306 0.2490791745502192 0  0.203885768735257 0.3325402459548524 0  0.2015714905276826 0.3421799084407872 0  0.1977777294810124 0.3513388578120612 0  0.1925979005829864 0.3597915703383434 0  0.1861595484119405 0.3673299121842922 0  0.1786212065659918 0.373768264355338 0  0.1701684940397096 0.378948093253364 0  0.1610095446684356 0.3827418543000342 0  0.1513698821825007 0.3850561325076086 0  0.1414868670645144 0.3858339426659677 0  0.1316038519465281 0.3850561325076086 0  0.1219641894605933 0.3827418543000343 0  0.1128052400893193 0.378948093253364 0  0.1043525275630371 0.3737682643553381 0  0.09681418571708833 0.3673299121842922 0  0.09037583354604248 0.3597915703383434 0  0.08519600464801645 0.3513388578120612 0  0.08140224360134621 0.3421799084407872 0  0.07908796539377183 0.3325402459548523 0  0.07831015523541281 0.3226572308368659 0  0.07908796539377186 0.3127742157188796 0  0.08140224360134626 0.3031345532329447 0  0.08519600464801655 0.2939756038616707 0  0.0903758335460426 0.2855228913353884 0  0.0968141857
[...]
<PointData  Tensors="$\sigma$"> 
<DataArray  type="Float64"  Name="$\sigma$"  NumberOfComponents="9" format="ascii">9.7575837002434596e+01 3.4359894867064533e+01 0.0000000000000000e+00 3.4359894867064483e+01 5.0669285041628145e+03 0.0000000000000000e+00 0.0000000000000000e+00 0.0000000000000000e+00 0.0000000000000000e+00  6.2147169988949906e+02 6.8239452782733835e+01 0.0000000000000000e+00 6.8239452782733835e+01 2.5448708322183470e+03 0.0000000000000000e+00 0.0000000000000000e+00 0.0000000000000000e+00 0.0000000000000000e+00  -8.6340296118100319e+00 -9.7416636332216981e+00 0.0000000000000000e+00 -9.7416636332217053e+00 2.7191658323991778e+03 0.0000000000000000e+00 0.0000000000000000e+00 0.0000000000000000e+00 0.0000000000000000e+00  6.6511428587114194e+00 -3.3447628834953602e+00 0.0000000000000000e+00 -3.3447628834953647e+00 2.6183695614561120e+03 0.0000000000000000e+00 0.0000000000000000e+00 0.0000000000000000e+00 0.0000000000000000e+00  6.7559222265977912e+00 5.3246972601758742e+00 0.0000000000000000e+00 5.3246972601758777e+00 2.4901657675184024e+03 0.0000000000000000e+00 0.0000000000000000e+00 0.0000000000000000e+00 0.0000000000000000e+00  5.6409624308117792e+01 5.5637282867010335e+01 0.0000000000000000e+00 5.5637282867010526e+01 5.0421054254188521e+03 0.0000000000000000e+00 0.0000000000000000e+00 0.0000000000000000e+00 0.0000000000000000e+00  -4.4271226605487563e+01 1.3501172755366142e+02 0.0000000000000000e+00 1.3501172755366156e+02 1.9159750275081754e+02 0.0000000000000000e+00 0.0000000000000000e+00 0.0000000000000000e+00 0.0000000000000000e+00  4.0162810128675790e+02 2.6915061333500535e+02 0.0000000000000000e+00 2.6915061333500535e+02 5.5244624298947219e+03 0.0000000000000000e+00 0.0000000000000000e+00 0.0000000000000000e+00 0.0000000000000000e+00  1.9302386909623320e+02 -2.3423745426919635e+02 0.0000000000000000e+00 -2.3423745426919635e+02 5.0557020647312265e+03 0.0000000000000000e+00 0.0000000000000000e+00 0.0000000000000000e+00 0.0000000000000000e+00  -8.3896065068033948e+01 1.0991030797928337e+01 0.0000000000000000e+00 1.0991030797928573e+01 -8.0691365624123151e+01 0.0000000000000000e+00 0.0000000000000000e+00 0.0000000000000000e+00 0.0000000000000000e+00  -2.1839536300801685e-01 -1.4888665912536771e+01 0.0000000000000000e+00 -1.4888665912536736e+01 -1.9391627022555237e+01 0.0000000000000000e+00 0.0000000000000000e+00 0.0000000000000000e+00 0.0000000000000000e+00  9.3256316730300114e+01 2.4943992232001554e+02 0.0000000000000000e+00 2.4943992232001563e+02 2.8427748725751717e+03 0.0000000000000000e+00 0.0000000000000000e+00 0.0000000000000000e+00 0.0000000000000000e+00  -3.1173240474524661e+01 5.3684941893048311e+01 0.0000000000000000e+00 5.3684941893048311e+01 6.5305292828717684e+03 0.0000000000000000e+00 0.0000000000000000e+00 0.0000000000000000e+00 0.0000000000000000e+00  4.3472876631382711e+01 5.5037535911437288e+01 0.0000000000000000e+00 5.5037535911437288e+01 5.2129905241079050e+03 0.0000000000000000e+00 0.0000000000000000e+00 0.0000000000000000e+00 0.0000000000000000e+00  -4.4007411605614159e+01 -1.2419218629152826e+02 0.0000000000000000e+00 -1.2419218629152861e+02 -6.2022756695646501e+02 0.0000000000000000e+00 0.0000000000000000e+00 0.0000000000000000e+00 0.0000000000000000e+00  -7.7350485204492372e+01 -1.0166677771853810e+02 0.0000000000000000e+00 -1.0166677771853776e+02 -1.9439595384757524e+02 0.0000000000000000e+00 0.0000000000000000e+00 0.0000000000000000e+00 0.0000000000000000e+00  3.3417975349606699e+01 -1.0728347291504073e+02 0.0000000000000000e+00 -1.0728347291504105e+02 3.2887355496705318e+03 0.0000000000000000e+00 0.0000000000000000e+00 0.0000000000000000e+00 0.0000000000000000e+00  1.0193003784219650e+02 7.5037681589037135e+01 0.0000000000000000e+00 7.5037681589037092e+01 3.9253679600074265e+03 0.0000000000000000e+00 0.0000000000000000e+00 0.0000000000000000e+00 0.0000000000000000e+00  1.0161247009878776e+03 9.7441469300843312e+02 0.0000000000000000e+00 9.7441469300843312e+02 1.2260595746870969e+04 0.0000000000000000e+00 0.0000000000000000e+00 0.0000000000000000e+00 0.0000000000000000e+00  1.6710714380005857e+02 -1.6818818932416394e+02 0.0000000000000000e+00 -1.6818818932416394e+02 6.1782234121637248e+03 0.0000000000000000e+00 0.0000000000000000e+00 0.0000000000000000e+00 0.0000000000000000e+00  3.4955086646217126e+01 9.1966378597554865e+01 0.0000000000000000e+00 9.1966378597554822e+01 3.8554317721906045e+03 0.0000000000000000e+00 0.0000000000000000e+00 0.0000000000000000e+00 0.0000000000000000e+00  8.9820944362885626e+01 1.9378347525077328e+00 0.0000000000000000e+00 1.9378347525077877e+00 2.1042947648814411e+03 0.0000000000000000e+00 0.0000000000000000e+00 0.0000000000000000e+00 0.0000000000000000e+00  2.2616234240958786e+02 -6.1192782469199847e+02 0.0000000000000000e+00 -6.1192782469199847e+02 3.2120169835814240e+03 0.0000000000000000e+00 0.0000000000000000e+00 0.0000000000000000e+00 0.0000000000000000e+00  -1.6279298066916940e+02 -1.8410999985724325e+02 0.0000000000000000e+00 -1.8410999985724322e+02 9.2029357382227556e+02 0.0000000000000000e+00 0.0000000000000000e+00 0.0000000000000000e+00 0.0000000000000000e+00  -1.0046553788336637e+03 6.1943129086161184e+02 0.0000000000000000e+00 6.1943129086161184e+02 -3.8340842903825074e+02 0.0000000000000000e+00 0.0000000000000000e+00 0.0000000000000000e+00 0.0000000000000000e+00  -1.9022160928867279e+03 6.7339992242962660e+02 0.0000000000000000e+00 6.7339992242962694e+02 -4.2737755400399504e+02 0.0000000000000000e+00 0.0000000000000000e+00 0.0000000000000000e+00 0.0000000000000000e+00  -1.5234609004656247e+03 4.4977774805551030e+02 0.0000000000000000e+00 4.4977774805550968e+02 -2.4698795281670175e+02 0.0000000000000000e+00 0.0000000000000000e+00 0.0000000000000000e+00 0.0000000000000000e+00  6.9639283762622301e+02 1.0673364681505752e+03 0.0000000000000000e+00 1.0673364681505757e+03 6.6773694583121426e+02 0.0000000000000000e+00 0.0000000000000000e+00 0.0000000000000000e+00 0.0000000000000000e+00  3.2213162550817715e+03 2.1207152006196116e+03 0.0000000000000000e+00 2.1207152006196116e+03 1.2824348295865195e+03 0.0000000000000000e+00 0.0000000000000000e+00 0.0000000000000000e+00 0.0000000000000000e+00  3.2480353125956617e+03 2.5468228715351561e+03 0.0000000000000000e+00 2.5468228715351561e+03 2.3689017899864125e+03 0.0000000000000000e+00 0.0000000000000000e+00 0.0000000000000000e+00 0.0000000000000000e+00  1.5522231545627708e+03 1.9787061167741738e+03 0.0000000000000000e+00 1.9787061167741740e+03 2.7377153995288054e+03 0.0000000000000000e+00 0.0000000000000000e+00 0.0000000000000000e+00 0.0000000000000000e+00  5.7389194252450795e+02 8.8886896932182140e+02 0.0000000000000000e+00 8.8886896932182151e+02 2.2979057840719779e+03 0.0000000000000000e+00 0.0000000000000000e+00 0.0000000000000000e+00 0.0000000000000000e+00  7.4516870049752157e+01 1.6092213393286630e+02 0.0000000000000000e+00 1.6092213393286633e+02 1.9813643523859093e+03 0.0000000000000000e+00 0.0000000000000000e+00 0.0000000000000000e+00 0.0000000000000000e+00  8.7022599085073281e+01 -1.5942733909768467e+02 0.0000000000000000e+00 -1.5942733909768464e+02 9.9393885130817523e+02 0.0000000000000000e+00 0.0000000000000000e+00 0.0000000000000000e+00 0.0000000000000000e+00  -8.1880279319018854e+01 5.8586148123870672e+01 0.0000000000000000e+00 5.8586148123870608e+01 1.3079232873322402e+02 0.0000000000000000e+00 0.0000000000000000e+00 0.0000000000000000e+00 0.0000000000000000e+00  -6.4297050789179764e+02 4.3754896329577338e+02 0.0000000000000000e+00 4.3754896329577338e+02 -3.0481636437950323e+02 0.0000000000000000e+00 0.0000000000000000e+00 0.0000000000000000e+00 0.0000000000000000e+00  -1.2155785687846494e+03 4.6664233414835189e+02 0.0000000000000000e+00 4.6664233414835144e+02 -2.9766287707437004e+02 0.0000000000000000e+00 0.0000000000000000e+00 0.0000000000000000e+00 0.0000000000000000e+00  -1.2595302039138908e+03 2.6896423742478748e+02 0.0000000000000000e+00 2.6896423742478714e+02 -1.8267983559302698e+02 0.0000000000000000e+00 0.0000000000000000e+00 0.0000000000000000e+00 0.0000000000000000e+00  -5.7050087578019941e+02 4.3725139343203601e+01 0.0000000000000000e+00 4.3725139343203793e+01 3.7076554514645970e+01 0.0000000000000000e+00 0.0000000000000000e+00 0.0000000000000000e+00 0.0000000000000000e+00  6.2337485903139896e+02 4.8146220480563738e+02 0.0000000000000000e+00 4.8146220480563761e+02 3.0708402438931978e+02 0.0000000000000000e+00 0.0000000000000000e+00 0.0000000000000000e+00 0.0000000000000000e+00  1.3061287643707860e+03 1.1832115729126249e+03 0.0000000000000000e+00 1.1832115729126253e+03 1.4365841126036751e+03 0.0000000000000000e+00 0.0000000000000000e+00 0.0000000000000000e+00 0.0000000000000000e+00  1.1397309008237914e+03 1.8150190046188911e+03 0.0000000000000000e+00 1.8150190046188911e+03 3.1517247574376938e+03 0.0000000000000000e+00 0.0000000000000000e+00 0.0000000000000000e+00 0.0000000000000000e+00  7.5890694125534162e+02 1.1313138335836536e+03 0.0000000000000000e+00 1.1313138335836538e+03 4.6045413861774487e+03 0.0000000000000000e+00 0.0000000000000000e+00 0.0000000000000000e+00 0.0000000000000000e+00  2.3566988665194756e+02 -1.4239146867070954e+02 0.0000000000000000e+00 -1.4239146867070949e+02 2.1344283435531593e+03 0.0000000000000000e+00 0.0000000000000000e+00 0.0000000000000000e+00 0.0000000000000000e+00  -4.9281114356406121e+01 1.5566565396860442e+01 0.0000000000000000e+00 1.5566565396860430e+01 1.8622279516123544e+03 0.0000000000000000e+00 0.0000000000000000e+00 0.0000000000000000e+00 0.0000000000000000e+00  1.1756960559568662e+02 5.9722898993676479e+00 0.0000000000000000e+00 5.9722898993676656e+00 1.4428584227266081e+03 0.0000000000000000e+00 0.0000000000000000e+00 0.0000000000000000e+00 0.0000000000000000e+00  9.3315543629702695e+00 1.5914298311498213e+01 0.0000000000000000e+00 1.5914298311498202e+01 1.2199159766290013e+03 0.0000000000000000e+00 0.0000000000000000e+00 0.0000000000000000e+00 0.0000000000000000e+00  4.2222427969110498e+01 2.0998828051642541e+01 0.0000000000000000e+00 2.0998828051642537e+01 9.6238630345125546e+02 0.0000000000000000e+00 0.0000000000000000e+00 0.0000000000000000e+00 0.0000000000000000e+00  -1.6164261275150256e+01 1.3571734567927152e+01 0.0000000000000000e+00 1.3571734567927171e+01 7.2962885045535870e+02 0.0000000000000000e+00 0.0000000000000000e+00 0.0000000000000000e+00 0.0000000000000000e+00  -3.7502478280968610e+01 6.6907145890182793e+00 0.0000000000000000e+00 6.6907145890182775e+00 5.2749094564487177e+02 0.0000000000000000e+00 0.0000000000000000e+00 0.0000000000000000e+00 0.0000000000000000e+00  -7.4185790499297823e+01 5.2771195141587723e+00 0.0000000000000000e+00 5.2771195141587723e+00 3.3600197856448136e+02 0.0000000000000000e+00 0.0000000000000000e+00 0.0000000000000000e+00 0.0000000000000000e+00  -7.1759946324280449e+01 5.6701677104037671e+00 0.0000000000000000e+00 5.6701677104037680e+00 1.4115956444024482e+02 0.0000000000000000e+00 0.0000000000000000e+00 0.0000000000000000e+00 0.0000000000000000e+00  -8.6351789364811637e+01 8.3370233266480529e+00 0.0000000000000000e+00 8.3370233266480458e+00 -1.5271686829431035e+01 0.0000000000000000e+00 0.0000000000000000e+00 0.0000000000000000e+00 0.0000000000000000e+00  -1.2491814318494380e+02 6.5634958627905302e+00 0.0000000000000000e+00 6.5634958627905382e+00 -7.4998615670805762e+01 0.0000000000000000e+00 0.0000000000000000e+00 0.0000000000000000e+00 0.0000000000000000e+00  -1.5645891513411044e+02 2.2484141498408503e-01 0.0000000000000000e+00 2.2484141498408922e-01 -7.5299381527479937e+01 0.0000000000000000e+00 0.0000000000000000e+00 0.0000000000000000e+00 0.0000000000000000e+00  -1.8223316271664223e+02 1.4829641194037502e+00 0.0000000000000000e+00 1.4829641194037562e+00 -3.7045107135707426e+01 0.0000000000000000e+00 0.0000000000000000e+00 0.0000000000000000e+00 0.0000000000000000e+00  -1.9821774946573646e+02 -3.3952936570988617e+00 0.0000000000000000e+00 -3.3952936570988532e+00 3.4864548045764828e+01 0.0000000000000000e+00 0.0000000000000000e+00 0.0000000000000000e+00 0.0000000000000000e+00  -2.5285218564451560e+02 4.0343519134623067e+00 0.0000000000000000e+00 4.0343519134622357e+00 2.0230122064655916e+02 0.0000000000000000e+00 0.0000000000000000e+00 0.0000000000000000e+00 0.0000000000000000e+00  -3.7494902829082480e+02 1.5183536138957384e+01 0.0000000000000000e+00 1.5183536138957288e+01 4.3367342318488534e+02 0.0000000000000000e+00 0.0000000000000000e+00 0.0000000000000000e+00 0.0000000000000000e+00  -5.9093566710342327e+02 2.9692793425738504e+01 0.0000000000000000e+00 2.9692793425738536e+01 6.2743235800541322e+02 0.0000000000000000e+00 0.0000000000000000e+00 0.0000000000000000e+00 0.0000000000000000e+00  -6.7397913124255433e+02 -2.9869044829647695e+01 0.0000000000000000e+00 -2.9869044829647674e+01 4.1859063819749986e+02 0.0000000000000000e+00 0.0000000000000000e+00 0.0000000000000000e+00 0.0000000000000000e+00  -5.1062485597190494e+02 1.8301918255222855e+00 0.0000000000000000e+00 1.8301918255222749e+00 -4.5177253854226919e+01 0.0000000000000000e+00 0.0000000000000000e+00 0.0000000000000000e+00 0.0000000000000000e+00  -5.9371566547990733e+02 2.5577106346764499e+01 0.0000000000000000e+00 2.5577106346764527e+01 2.7336472527538655e+02 0.0000000000000000e+00 0.0000000000000000e+00 0.0000000000000000e+00 0.0000000000000000e+00  -4.9039466790369568e+02 -1.8440394577772782e+01 0.0000000000000000e+00 -1.8440394577772835e+01 5.5531546111703983e+02 0.0000000000000000e+00 0.0000000000000000e+00 0.0000000000000000e+00 0.0000000000000000e+00  -2.1523176825749087e+02 -2.8077165056819858e+01 0.0000000000000000e+00 -2.8077165056819876e+01 3.3567574484699196e+02 0.0000000000000000e+00 0.0000000000000000e+00 0.0000000000000000e+00 0.0000000000000000e+00  6.5398749322872689e+01 -1.4737528101150632e+01 0.0000000000000000e+00 -1.4737528101150643e+01 2.5415892443154513e+02 0.0000000000000000e+00 0.0000000000000000e+00 0.0000000000000000e+00 0.0000000000000000e+00  1.2083165917979775e+02 -1.1483924518342048e+01 0.0000000000000000e+00 -1.1483924518342050e+01 3.5818459370329902e+02 0.0000000000000000e+00 0.0000000000000000e+00 0.0000000000000000e+00 0.0000000000000000e+00  1.3613613156183985e+02 -8.4688379514073748e+00 0.0000000000000000e+00 -8.4688379514073802e+00 6.4685936377646976e+02 0.0000000000000000e+00 0.0000000000000000e+00 0.0000000000000000e+00 0.0000000000000000e+00  1.0784121128630997e+02 -1.8052874331534365e+01 0.0000000000000000e+00 -1.8052874331534365e+01 1.0132529556550659e+03 0.0000000000000000e+00 0.0000000000000000e+00 0.0000000000000000e+00 0.0000000000000000e+00  1.0755360704762587e+02 -1.4183787899841297e+01 0.0000000000000000e+00 -1.4183787899841288e+01 1.4390223824828392e+03 0.0000000000000000e+00 0.0000000000000000e+00 0.0000000000000000e+00 0.0000000000000000e+00  2.7208483680881596e+01 -9.7065213025455979e+00 0.0000000000000000e+00 -9.7065213025456085e+00 1.9199144033351984e+03 0.0000000000000000e+00 0.0000000000000000e+00 0.0000000000000000e+00 0.0000000000000000e+00  4.0906617898831790e+01 -1.3795213645862066e+01 0.0000000000000000e+00 -1.3795213645862074e+01 2.3203246710514986e+03 0.0000000000000000e+00 0.0000000000000000e+00 0.0000000000000000e+00 0.0000000000000000e+00  -7.2623620553796797e-01 2.1393899733478548e+01 0.0000000000000000e+00 2.1393899733478541e+01 2.6512904195693141e+03 0.0000000000000000e+00 0.0000000000000000e+00 0.0000000000000000e+00 0.0000000000000000e+00  1.9856104129436822e+00 5.3092913329767590e+00 0.0000000000000000e+00 5.3092913329767564e+00 2.7363557426201401e+03 0.0000000000000000e+00 0.0000000000000000e+00 0.0000000000000000e+00 0.0000000000000000e+00  -3.4043980348767802e+00 1.9967287660508013e+01 0.0000000000000000e+00 1.9967287660508028e+01 2.7906110681579644e+03 0.0000000000000000e+00 0.0000000000000000e+00 0.0000000000000000e+00 0.0000000000000000e+00  -2.4486345037451169e+00 6.1255328544543612e+00 0.0000000000000000e+00 6.1255328544543763e+00 2.8743758910132360e+03 0.0000000000000000e+00 0.0000000000000000e+00 0.0000000000000000e+00 0.0000000000000000e+00  5.7782586893068482e+00 7.5519094403771625e+00 0.0000000000000000e+00 7.5519094403771625e+00 2.9737134273145962e+03 0.0000000000000000e+00 0.0000000000000000e+00 0.0000000000000000e+00 0.0000000000000000e+00  -1.1745793064317258e+00 2.5231045694887797e+01 0.0000000000000000e+00 2.5231045694887726e+01 3.0088729660333324e+03 0.0000000000000000e+00 0.0000000000000000e+00 0.0000000000000000e+00 0.0000000000000000e+00  -1.5262029881763326e+01 3.6132129541180461e+01 0.0000000000000000e+00 3.6132129541180397e+01 3.2417731936379596e+03 0.0000000000000000e+00 0.0000000000000000e+00 0.0000000000000000e+00 0.0000000000000000e+00  4.0279925167470665e-01 6.6860956427997905e+01 0.0000000000000000e+00 6.6860956427997976e+01 3.5183360484601030e+03 0.0000000000000000e+00 0.0000000000000000e+00 0.0000000000000000e+00 0.0000000000000000e+00  -1.9923515797451426e+01 2.3422770638703277e+01 0.0000000000000000e+00 2.3422770638703291e+01 3.9105481219403332e+03 0.0000000000000000e+00 0.0000000000000000e+00 0.0000000000000000e+00 0.0000000000000000e+00  -4.4314601332365399e+01 -5.8897601409334477e+01 0.0000000000000000e+00 -5.8897601409334463e+01 3.8377981016510239e+03 0.0000000000000000e+00 0.0000000000000000e+00 0.0000000000000000e+00 0.0000000000000000e+00  -6.6326899262975232e+01 -2.3621744996986723e+02 0.0000000000000000e+00 -2.3621744996986718e+02 3.2716431933409031e+03 0.0000000000000000e+00 0.0000000000000000e+00 0.0000000000000000e+00 0.0000000000000000e+00  -3.0224832098207706e+01 -3.1020591024026311e+02 0.0000000000000000e+00 -3.1020591024026334e+02 2.3781288932263728e+03 0.0000000000000000e+00 0.0000000000000000e+00 0.0000000000000000e+00 0.0000000000000000e+00  1.1155619814482618e+02 5.6011217125249544e+01 0.0000000000000000e+00 5.6011217125249566e+01 1.3006012943272547e+03 0.0000000000000000e+00 0.0000000000000000e+00 0.0000000000000000e+00 0.0000000000000000e+00  8.2099461106389626e+01 1.8779379736134052e+02 0.0000000000000000e+00 1.8779379736134052e+02 1.3836767260457677e+03 0.0000000000000000e+00 0.0000000000000000e+00 0.0000000000000000e+00 0.0000000000000000e+00  3.0207630848138010e+01 2.6143513769284715e+02 0.0000000000000000e+00 2.6143513769284715e+02 3.0417699131800782e+03 0.0000000000000000e+00 0.0000000000000000e+00 0.0000000000000000e+00 0.0000000000000000e+00  -5.7956706253444761e+00 1.9912117432400447e+02 0.0000000000000000e+00 1.9912117432400447e+02 4.5367316978500739e+03 0.0000000000000000e+00 0.0000000000000000e+00 0.0000000000000000e+00 0.0000000000000000e+00  -1.5365953113991775e+01 -2.2377125698999794e+02 0.0000000000000000e+00 -2.2377125698999794e+02 4.8596896655233586e+03 0.0000000000000000e+00 0.0000000000000000e+00 0.0000000000000000e+00 0.0000000000000000e+00  7.6410585563410564e+01 -7.4878221184197997e+01 0.0000000000000000e+00 -7.4878221184198011e+01 3.3085857410763811e+03 0.0000000000000000e+00 0.0000000000000000e+00 0.0000000000000000e+00 0.0000000000000000e+00  -1.0891211132868993e+02 1.4561921493126223e+02 0.0000000000000000e+00 1.4561921493126226e+02 4.0963411394851855e+03 0.0000000000000000e+00 0.0000000000000000e+00 0.0000000000000000e+00 0.0000000000000000e+00  -5.9902808814087880e+00 -1.0935475680072221e+02 0.0000000000000000e+00 -1.0935475680072230e+02 3.9791082366652836e+03 0.0000000000000000e+00 0.0000000000000000e+00 0.0000000000000000e+00 0.0000000000000000e+00  -1.5424515448122332e+01 -1.3207951739561844e+02 0.0000000000000000e+00 -1.3207951739561815e+02 3.0613340872174235e+03 0.0000000000000000e+00 0.0000000000000000e+00 0.0000000000000000e+00 0.0000000000000000e+00  3.0060347858424755e+01 -6.3862830664255075e+00 0.0000000000000000e+00 -6.3862830664256283e+00 2.8434252981820737e+03 0.0000000000000000e+00 0.0000000000000000e+00 0.0000000000000000e+00 0.0000000000000000e+00  -1.6705591090659418e+01 -2.0217646432237886e+00 0.0000000000000000e+00 -2.0217646432237970e+00 2.7766190508648046e+03 0.0000000000000000e+00 0.0000000000000000e+00 0.0000000000000000e+00 0.0000000000000000e+