<?xml version="1.0"?>
<VTKFile type="UnstructuredGrid"  version="0.1"  >
<UnstructuredGrid>
<Piece  NumberOfPoints="3879" NumberOfCells="6881">
<Points>
<DataArray  type="Float64"  NumberOfComponents="3"  format="ascii">0.207524190028372 0.2122422770132111 0  0 0 0  1 0 0  0 1 0  1 1 0  0.6249674373315121 0.2590146544375328 0  0.204663578893616 0.322657230836866 0  0.09605577522599912 0.4018360776629776 0  0.671351124618251 0.08738059142081528 0  0.7842102907526436 0.1666439122351055 0  0.8512483166984784 0.1985391006160637 0  0.6418797837909295 0.4423157172830166 0  0.9292488447973215 0.3869277868069776 0  0.3197896119137055 0.5509935221980964 0  0.3979283685568406 0.5079871620336583 0  0.1572503457993085 0.7345153245035532 0  0.3032914287999163 0.7872981443735918 0  0.3549464687598876 0.8870324161721976 0  0.9691791685505482 0.5159450047798622 0  0.9447564590470373 0.6146164845729313 0  0.7687603548175107 0.7176858127488035 0  0.8926159261971183 0.7422924070424508 0  0.2061587782631535 0.2217389244366831 0  0.2021731605082994 0.2304662099646423 0  0.1958902278109265 0.2377171008267789 0  0.1878189860121365 0.2429041729681512 0  0.1786133191209442 0.2456072006525708 0  0.1690190155206647 0.2456072006525708 0  0.1598133486294724 0.2429041729681512 0  0.1517421068306824 0.2377171008267789 0  0.1454591741333096 0.2304662099646422 0  0.1414735563784554 0.221738924436683 0  0.1401081446132369 0.212242277013211 0  0.1414735563784555 0.202745629589739 0  0.1454591741333096 0.1940183440617798 0  0.1517421068306825 0.1867674531996431 0  0.1598133486294725 0.1815803810582709 0  0.1690190155206649 0.1788773533738513 0  0.1786133191209443 0.1788773533738514 0  0.1878189860121367 0.181580381058271 0  0.1958902278109266 0.1867674531996433 0  0.2021731605082994 0.19401834406178 0  0.2061587782631535 0.2027456295897391 0  0.03333333333333333 0 0  0.06666666666666667 0 0  0.1 0 0  0.1333333333333333 0 0  0.1666666666666667 0 0  0.2 0 0  0.2333333333333333 0 0  0.2666666666666667 0 0  0.3 0 0  0.3333333333333333 0 0  0.3666666666666666 0 0  0.4 0 0  0.4333333333333333 0 0  0.4666666666666667 0 0  0.5 0 0  0.5333333333333333 0 0  0.5666666666666667 0 0  0.6 0 0  0.6333333333333333 0 0  0.6666666666666666 0 0  0.7 0 0  0.7333333333333333 0 0  0.7666666666666667 0 0  0.8 0 0  0.8333333333333334 0 0  0.8666666666666667 0 0  0.9 0 0  0.9333333333333333 0 0  0.9666666666666667 0 0  0 0.9666666666666667 0  0 0.9333333333333333 0  0 0.9 0  0 0.8666666666666667 0  0 0.8333333333333334 0  0 0.8 0  0 0.7666666666666666 0  0 0.7333333333333334 0  0 0.7 0  0 0.6666666666666667 0  0 0.6333333333333333 0  0 0.6 0  0 0.5666666666666667 0  0 0.5333333333333333 0  0 0.5 0  0 0.4666666666666667 0  0 0.4333333333333333 0  0 0.4 0  0 0.3666666666666667 0  0 0.3333333333333334 0  0 0.3 0  0 0.2666666666666667 0  0 0.2333333333333333 0  0 0.2 0  0 0.1666666666666666 0  0 0.1333333333333333 0  0 0.09999999999999998 0  0 0.06666666666666665 0  0 0.03333333333333333 0  1 0.03333333333333333 0  1 0.06666666666666667 0  1 0.1 0  1 0.1333333333333333 0  1 0.1666666666666667 0  1 0.2 0  1 0.2333333333333333 0  1 0.2666666666666667 0  1 0.3 0  1 0.3333333333333333 0  1 0.3666666666666666 0  1 0.4 0  1 0.4333333333333333 0  1 0.4666666666666667 0  1 0.5 0  1 0.5333333333333333 0  1 0.5666666666666667 0  1 0.6 0  1 0.6333333333333333 0  1 0.6666666666666666 0  1 0.7 0  1 0.7333333333333333 0  1 0.7666666666666667 0  1 0.8 0  1 0.8333333333333334 0  1 0.8666666666666667 0  1 0.9 0  1 0.9333333333333333 0  1 0.9666666666666667 0  0.9666666666666667 1 0  0.9333333333333333 1 0  0.9 1 0  0.8666666666666667 1 0  0.8333333333333334 1 0  0.8 1 0  0.7666666666666666 1 0  0.7333333333333334 1 0  0.7 1 0  0.6666666666666667 1 0  0.6333333333333333 1 0  0.6 1 0  0.5666666666666667 1 0  0.5333333333333333 1 0  0.5 1 0  0.4666666666666667 1 0  0.4333333333333333 1 0  0.4 1 0  0.3666666666666667 1 0  0.3333333333333334 1 0  0.3 1 0  0.2666666666666667 1 0  0.2333333333333333 1 0  0.2 1 0  0.1666666666666666 1 0  0.1333333333333333 1 0  0.09999999999999998 1 0  0.06666666666666665 1 0  0.03333333333333333 1 0  0.6247072676344306 0.2689501343248463 0  0.6239274716502419 0.2788583817523955 0  0.6226301867455355 0.2887122389026952 0  0.6208189686880621 0.2984846970382296 0  0.6184987819006211 0.3081489705305245 0  0.6156759858539226 0.317678570277693 0  0.6123583176357204 0.3270473763092224 0  0.6085548707439923 0.3362297093789981 0  0.6042760701622942 0.3452004013503318 0  0.5995336437856049 0.3539348641800754 0  0.5943405902749808 0.3624091573127375 0  0.5887111434291297 0.3706000532998825 0  0.582660733170558 0.3784851014649517 0  0.5762059432532257 0.3860426894390078 0  0.5693644658076293 0.3932521023987353 0  0.5621550528479018 0.4000935798443317 0  0.5545974648738458 0.4065483697616639 0  0.5467124167087765 0.4125987800202355 0  0.5385215207216315 0.4182282268660866 0  0.5300472275889694 0.4234212803767108 0  0.5213127647592257 0.4281637067534002 0  0.512342072787892 0.4324425073350981 0  0.5031597397181163 0.4362459542268262 0  0.493790933686587 0.4395636224450283 0  0.4842613339394185 0.4423864184917269 0  0.4745970604471235 0.4447066052791678 0  0.4648246023115891 0.4465178233366412 0  0.4549707451612894 0.4478151082413475 0  0.4450624977337403 0.4485949042255363 0  0.4351270178464268 0.4488550739226177 0  0.4251915379591132 0.4485949042255363 0  0.4152832905315641 0.4478151082413475 0  0.4054294333812644 0.4465178233366411 0  0.39565697524573 0.4447066052791677 0  0.385992701753435 0.4423864184917267 0  0.3764631020062665 0.4395636224450281 0  0.3670942959747371 0.4362459542268259 0  0.3579119629049616 0.4324425073350978 0  0.3489412709336278 0.4281637067533998 0  0.3402068081038843 0.4234212803767103 0  0.3317325149712221 0.4182282268660862 0  0.3235416189840771 0.412598780020235 0  0.3156565708190078 0.4065483697616634 0  0.3080989828449519 0.4000935798443311 0  0.3008895698852244 0.3932521023987346 0  0.2940480924396279 0.3860426894390071 0  0.2875933025222958 0.3784851014649511 0  0.2815428922637242 0.3706000532998818 0  0.2759134454178731 0.3624091573127368 0  0.2707203919072489 0.3539348641800746 0  0.2659779655305596 0.3452004013503309 0  0.2616991649488616 0.3362297093789972 0  0.2578957180571336 0.3270473763092215 0  0.2545780498389315 0.3176785702776921 0  0.251755253792233 0.3081489705305236 0  0.249435067004792 0.2984846970382286 0  0.2476238489473186 0.2887122389026941 0  0.2463265640426123 0.2788583817523945 0  0.2455467680584236 0.2689501343248454 0  0.2452865983613423 0.2590146544375318 0  0.2455467680584237 0.2490791745502182 0  0.2463265640426126 0.2391709271226692 0  0.247623848947319 0.2293170699723696 0  0.2494350670047924 0.2195446118368351 0  0.2517552537922335 0.2098803383445402 0  0.2545780498389321 0.2003507385973717 0  0.2578957180571343 0.1909819325658423 0  0.2616991649488624 0.1817995994960667 0  0.2659779655305604 0.172828907524733 0  0.2707203919072498 0.1640944446949895 0  0.2759134454178741 0.1556201515623273 0  0.2815428922637251 0.1474292555751825 0  0.2875933025222969 0.1395442074101132 0  0.2940480924396291 0.1319866194360571 0  0.3008895698852256 0.1247772064763297 0  0.3080989828449531 0.1179357290307334 0  0.3156565708190092 0.1114809391134012 0  0.3235416189840785 0.1054305288548295 0  0.3317325149712236 0.09980108200897844 0  0.3402068081038856 0.0946080284983544 0  0.3489412709336291 0.08986560212166514 0  0.357911962904963 0.08558680153996717 0  0.3670942959747386 0.08178335464823916 0  0.3764631020062678 0.07846568643003712 0  0.3859927017534364 0.0756428903833386 0  0.3956569752457313 0.0733227035958976 0  0.4054294333812659 0.07151148553842429 0  0.4152832905315654 0.07021420063371797 0  0.4251915379591144 0.0694344046495293 0  0.435127017846428 0.0691742349524479 0  0.4450624977337415 0.06943440464952938 0  0.4549707451612905 0.07021420063371814 0  0.4648246023115901 0.07151148553842454 0  0.4745970604471245 0.07332270359589793 0  0.4842613339394195 0.07564289038333902 0  0.4937909336865879 0.07846568643003757 0  0.5031597397181173 0.0817833546482398 0  0.5123420727878929 0.08558680153996781 0  0.5213127647592265 0.08986560212166581 0  0.53004722758897 0.0946080284983552 0  0.5385215207216321 0.09980108200897933 0  0.5467124167087771 0.1054305288548305 0  0.5545974648738462 0.1114809391134021 0  0.5621550528479023 0.1179357290307343 0  0.5693644658076298 0.1247772064763308 0  0.576205943253226 0.1319866194360582 0  0.5826607331705582 0.1395442074101142 0  0.5887111434291299 0.1474292555751835 0  0.594340590274981 0.1556201515623285 0  0.5995336437856051 0.1640944446949906 0  0.6042760701622945 0.172828907524734 0  0.6085548707439925 0.1817995994960678 0  0.6123583176357205 0.1909819325658435 0  0.6156759858539227 0.2003507385973728 0  0.6184987819006211 0.2098803383445412 0  0.6208189686880622 0.2195446118368362 0  0.6226301867455355 0.2293170699723706 0  0.6239274716502419 0.2391709271226702 0  0.6247072676344306 0.2490791745502192 0  0.203885768735257 0.3325402459548524 0  0.2015714905276826 0.3421799084407872 0  0.1977777294810124 0.3513388578120612 0  0.1925979005829864 0.3597915703383434 0  0.1861595484119405 0.3673299121842922 0  0.1786212065659918 0.373768264355338 0  0.1701684940397096 0.378948093253364 0  0.1610095446684356 0.3827418543000342 0  0.1513698821825007 0.3850561325076086 0  0.1414868670645144 0.3858339426659677 0  0.1316038519465281 0.3850561325076086 0  0.1219641894605933 0.3827418543000343 0  0.1128052400893193 0.378948093253364 0  0.1043525275630371 0.3737682643553381 0  0.09681418571708833 0.3673299121842922 0  0.09037583354604248 0.3597915703383434 0  0.08519600464801645 0.3513388578120612 0  0.08140224360134621 0.3421799084407872 0  0.07908796539377183 0.3325402459548523 0  0.07831015523541281 0.3226572308368659 0  0.07908796539377186 0.3127742157188796 0  0.08140224360134626 0.3031345532329447 0  0.08519600464801655 0.2939756038616707 0  0.0903758335460426 0.2855228913353884 0  0.0968141857
[...]
<PointData  Tensors="$\sigma$"> 
<DataArray  type="Float64"  Name="$\sigma$"  NumberOfComponents="9" format="ascii">1.1396977315174428e+02 3.3673665799030125e+01 0.0000000000000000e+00 3.3673665799030218e+01 6.7553461880611540e+03 0.0000000000000000e+00 0.0000000000000000e+00 0.0000000000000000e+00 0.0000000000000000e+00  8.2333386538482887e+02 8.1792317131281365e+01 0.0000000000000000e+00 8.1792317131281393e+01 3.3902169434795314e+03 0.0000000000000000e+00 0.0000000000000000e+00 0.0000000000000000e+00 0.0000000000000000e+00  -1.3707219921886313e+01 -1.3396963378909204e+01 0.0000000000000000e+00 -1.3396963378909195e+01 3.6209256807460597e+03 0.0000000000000000e+00 0.0000000000000000e+00 0.0000000000000000e+00 0.0000000000000000e+00  6.8329606924658517e+00 -3.7755109383593441e+00 0.0000000000000000e+00 -3.7755109383593637e+00 3.4938611152258313e+03 0.0000000000000000e+00 0.0000000000000000e+00 0.0000000000000000e+00 0.0000000000000000e+00  7.6555455273368853e+00 7.0703204883924853e+00 0.0000000000000000e+00 7.0703204883924888e+00 3.3157106028190469e+03 0.0000000000000000e+00 0.0000000000000000e+00 0.0000000000000000e+00 0.0000000000000000e+00  6.5446003892312362e+01 6.6571304102862442e+01 0.0000000000000000e+00 6.6571304102862541e+01 6.7247937341130109e+03 0.0000000000000000e+00 0.0000000000000000e+00 0.0000000000000000e+00 0.0000000000000000e+00  -5.6828982201159789e+01 1.7022937153408645e+02 0.0000000000000000e+00 1.7022937153408662e+02 2.3878106975816095e+02 0.0000000000000000e+00 0.0000000000000000e+00 0.0000000000000000e+00 0.0000000000000000e+00  4.9160626966067076e+02 3.2993758842901764e+02 0.0000000000000000e+00 3.2993758842901769e+02 7.3688205513445582e+03 0.0000000000000000e+00 0.0000000000000000e+00 0.0000000000000000e+00 0.0000000000000000e+00  2.0874857866360117e+02 -2.6666008364413483e+02 0.0000000000000000e+00 -2.6666008364413460e+02 6.7461801847081315e+03 0.0000000000000000e+00 0.0000000000000000e+00 0.0000000000000000e+00 0.0000000000000000e+00  -1.4247191433377159e+02 3.4177224829918309e+01 0.0000000000000000e+00 3.4177224829918842e+01 -1.0505253238847236e+02 0.0000000000000000e+00 0.0000000000000000e+00 0.0000000000000000e+00 0.0000000000000000e+00  8.1505449013041420e-01 -2.0078123168577122e+01 0.0000000000000000e+00 -2.0078123168576976e+01 -3.8399646864076082e+01 0.0000000000000000e+00 0.0000000000000000e+00 0.0000000000000000e+00 0.0000000000000000e+00  1.0419549114651892e+02 3.0639830651878822e+02 0.0000000000000000e+00 3.0639830651878890e+02 3.7696980497124250e+03 0.0000000000000000e+00 0.0000000000000000e+00 0.0000000000000000e+00 0.0000000000000000e+00  -4.5561506118315350e+01 6.0205535456164320e+01 0.0000000000000000e+00 6.0205535456164320e+01 8.6900684466501680e+03 0.0000000000000000e+00 0.0000000000000000e+00 0.0000000000000000e+00 0.0000000000000000e+00  4.9207108369483663e+01 7.6586667843839962e+01 0.0000000000000000e+00 7.6586667843840118e+01 6.9449362888371043e+03 0.0000000000000000e+00 0.0000000000000000e+00 0.0000000000000000e+00 0.0000000000000000e+00  -6.0530650712225736e+01 -1.5291467919698906e+02 0.0000000000000000e+00 -1.5291467919698914e+02 -8.2720167617446725e+02 0.0000000000000000e+00 0.0000000000000000e+00 0.0000000000000000e+00 0.0000000000000000e+00  -1.1596207327959172e+02 -1.2841189154501640e+02 0.0000000000000000e+00 -1.2841189154501632e+02 -3.1247392095582319e+02 0.0000000000000000e+00 0.0000000000000000e+00 0.0000000000000000e+00 0.0000000000000000e+00  4.1215275545872110e+01 -1.1743088644548442e+02 0.0000000000000000e+00 -1.1743088644548450e+02 4.3820756710562837e+03 0.0000000000000000e+00 0.0000000000000000e+00 0.0000000000000000e+00 0.0000000000000000e+00  1.1151821103840061e+02 8.3582928447222571e+01 0.0000000000000000e+00 8.3582928447222855e+01 5.2227528935273649e+03 0.0000000000000000e+00 0.0000000000000000e+00 0.0000000000000000e+00 0.0000000000000000e+00  2.1940342916674936e+03 1.0341710024955837e+03 0.0000000000000000e+00 1.0341710024955837e+03 1.5665351558358981e+04 0.0000000000000000e+00 0.0000000000000000e+00 0.0000000000000000e+00 0.0000000000000000e+00  2.0395895474424074e+02 -2.2710624152087459e+02 0.0000000000000000e+00 -2.2710624152087459e+02 8.2038502801642462e+03 0.0000000000000000e+00 0.0000000000000000e+00 0.0000000000000000e+00 0.0000000000000000e+00  3.8625728981005523e+01 1.1648798672070430e+02 0.0000000000000000e+00 1.1648798672070386e+02 5.1375846213362302e+03 0.0000000000000000e+00 0.0000000000000000e+00 0.0000000000000000e+00 0.0000000000000000e+00  1.0715996087939409e+02 5.6392366199511734e+00 0.0000000000000000e+00 5.6392366199513866e+00 2.7930702929560716e+03 0.0000000000000000e+00 0.0000000000000000e+00 0.0000000000000000e+00 0.0000000000000000e+00  3.1410504350123495e+02 -8.5893669155062685e+02 0.0000000000000000e+00 -8.5893669155062730e+02 4.2598097880789865e+03 0.0000000000000000e+00 0.0000000000000000e+00 0.0000000000000000e+00 0.0000000000000000e+00  -1.9439035965581968e+02 -2.6496950103945750e+02 0.0000000000000000e+00 -2.6496950103945750e+02 1.1824058073104684e+03 0.0000000000000000e+00 0.0000000000000000e+00 0.0000000000000000e+00 0.0000000000000000e+00  -1.2942194486394258e+03 8.1887847937596507e+02 0.0000000000000000e+00 8.1887847937596507e+02 -5.3331464661865141e+02 0.0000000000000000e+00 0.0000000000000000e+00 0.0000000000000000e+00 0.0000000000000000e+00  -2.5772314157310202e+03 9.1961442001139903e+02 0.0000000000000000e+00 9.1961442001139983e+02 -5.5545092969803363e+02 0.0000000000000000e+00 0.0000000000000000e+00 0.0000000000000000e+00 0.0000000000000000e+00  -2.0252024632061602e+03 5.7122128856956522e+02 0.0000000000000000e+00 5.7122128856956408e+02 -3.3275815111804104e+02 0.0000000000000000e+00 0.0000000000000000e+00 0.0000000000000000e+00 0.0000000000000000e+00  8.9259901014636637e+02 1.4023480030793246e+03 0.0000000000000000e+00 1.4023480030793266e+03 8.8380008717451597e+02 0.0000000000000000e+00 0.0000000000000000e+00 0.0000000000000000e+00 0.0000000000000000e+00  4.3426854578867769e+03 2.8359904871286149e+03 0.0000000000000000e+00 2.8359904871286139e+03 1.6620407299278654e+03 0.0000000000000000e+00 0.0000000000000000e+00 0.0000000000000000e+00 0.0000000000000000e+00  4.3503040594216200e+03 3.4134508827359195e+03 0.0000000000000000e+00 3.4134508827359218e+03 3.1684527898362358e+03 0.0000000000000000e+00 0.0000000000000000e+00 0.0000000000000000e+00 0.0000000000000000e+00  2.0189857352492318e+03 2.6375171782072507e+03 0.0000000000000000e+00 2.6375171782072503e+03 3.6667053332595165e+03 0.0000000000000000e+00 0.0000000000000000e+00 0.0000000000000000e+00 0.0000000000000000e+00  7.3219178671082511e+02 1.1710181626534236e+03 0.0000000000000000e+00 1.1710181626534254e+03 3.0692283878329008e+03 0.0000000000000000e+00 0.0000000000000000e+00 0.0000000000000000e+00 0.0000000000000000e+00  7.6601225580619726e+01 1.9946177033827030e+02 0.0000000000000000e+00 1.9946177033827016e+02 2.6410431626296554e+03 0.0000000000000000e+00 0.0000000000000000e+00 0.0000000000000000e+00 0.0000000000000000e+00  1.1835002345154152e+02 -2.1983680346932582e+02 0.0000000000000000e+00 -2.1983680346932562e+02 1.3055379038793556e+03 0.0000000000000000e+00 0.0000000000000000e+00 0.0000000000000000e+00 0.0000000000000000e+00  -1.0487659577482415e+02 7.6164694046287522e+01 0.0000000000000000e+00 7.6164694046287337e+01 1.5780702912614097e+02 0.0000000000000000e+00 0.0000000000000000e+00 0.0000000000000000e+00 0.0000000000000000e+00  -8.4333848993829588e+02 5.8971770330906315e+02 0.0000000000000000e+00 5.8971770330906361e+02 -4.2070812748392962e+02 0.0000000000000000e+00 0.0000000000000000e+00 0.0000000000000000e+00 0.0000000000000000e+00  -1.6220163198398932e+03 6.3331709530796866e+02 0.0000000000000000e+00 6.3331709530796752e+02 -4.0250261070140590e+02 0.0000000000000000e+00 0.0000000000000000e+00 0.0000000000000000e+00 0.0000000000000000e+00  -1.6873244327933792e+03 3.5348184062530123e+02 0.0000000000000000e+00 3.5348184062530072e+02 -2.3299803084411249e+02 0.0000000000000000e+00 0.0000000000000000e+00 0.0000000000000000e+00 0.0000000000000000e+00  -7.6476999958287047e+02 3.7759700482767734e+01 0.0000000000000000e+00 3.7759700482767215e+01 4.9298650286610936e+01 0.0000000000000000e+00 0.0000000000000000e+00 0.0000000000000000e+00 0.0000000000000000e+00  8.4968673318026219e+02 6.2818471238814936e+02 0.0000000000000000e+00 6.2818471238814982e+02 3.8198062936212119e+02 0.0000000000000000e+00 0.0000000000000000e+00 0.0000000000000000e+00 0.0000000000000000e+00  1.7669474985290331e+03 1.5830649593791134e+03 0.0000000000000000e+00 1.5830649593791138e+03 1.8755935154995082e+03 0.0000000000000000e+00 0.0000000000000000e+00 0.0000000000000000e+00 0.0000000000000000e+00  1.5230458787716743e+03 2.4318179873298632e+03 0.0000000000000000e+00 2.4318179873298623e+03 4.1646924009702261e+03 0.0000000000000000e+00 0.0000000000000000e+00 0.0000000000000000e+00 0.0000000000000000e+00  9.8026391017045103e+02 1.5308585991424550e+03 0.0000000000000000e+00 1.5308585991424568e+03 6.1609496951710335e+03 0.0000000000000000e+00 0.0000000000000000e+00 0.0000000000000000e+00 0.0000000000000000e+00  3.0090086951713249e+02 -1.9491289986814874e+02 0.0000000000000000e+00 -1.9491289986814874e+02 2.8460663309580746e+03 0.0000000000000000e+00 0.0000000000000000e+00 0.0000000000000000e+00 0.0000000000000000e+00  -6.1000412042607650e+01 2.4725929183872942e+01 0.0000000000000000e+00 2.4725929183872935e+01 2.4884881257903162e+03 0.0000000000000000e+00 0.0000000000000000e+00 0.0000000000000000e+00 0.0000000000000000e+00  1.6358743059725666e+02 3.6227012367772913e+00 0.0000000000000000e+00 3.6227012367773095e+00 1.9211024076863475e+03 0.0000000000000000e+00 0.0000000000000000e+00 0.0000000000000000e+00 0.0000000000000000e+00  6.2736792677603912e+00 2.2544944385872640e+01 0.0000000000000000e+00 2.2544944385872647e+01 1.6215978986822986e+03 0.0000000000000000e+00 0.0000000000000000e+00 0.0000000000000000e+00 0.0000000000000000e+00  5.9541215056769524e+01 2.6454090360700459e+01 0.0000000000000000e+00 2.6454090360700462e+01 1.2804534010339353e+03 0.0000000000000000e+00 0.0000000000000000e+00 0.0000000000000000e+00 0.0000000000000000e+00  -2.3544628546706370e+01 1.7115799425440137e+01 0.0000000000000000e+00 1.7115799425440155e+01 9.7177748975393877e+02 0.0000000000000000e+00 0.0000000000000000e+00 0.0000000000000000e+00 0.0000000000000000e+00  -4.9516019231818696e+01 8.0676075473887341e+00 0.0000000000000000e+00 8.0676075473887447e+00 7.0332615577589081e+02 0.0000000000000000e+00 0.0000000000000000e+00 0.0000000000000000e+00 0.0000000000000000e+00  -9.9520978622333075e+01 6.2845905093778667e+00 0.0000000000000000e+00 6.2845905093778649e+00 4.4559498836350559e+02 0.0000000000000000e+00 0.0000000000000000e+00 0.0000000000000000e+00 0.0000000000000000e+00  -9.5587583665469523e+01 6.6753369667288549e+00 0.0000000000000000e+00 6.6753369667288451e+00 1.8634761892344960e+02 0.0000000000000000e+00 0.0000000000000000e+00 0.0000000000000000e+00 0.0000000000000000e+00  -1.1544614516202741e+02 1.0181134857769603e+01 0.0000000000000000e+00 1.0181134857769583e+01 -2.0048400710907039e+01 0.0000000000000000e+00 0.0000000000000000e+00 0.0000000000000000e+00 0.0000000000000000e+00  -1.6649338544993208e+02 8.1190511019781901e+00 0.0000000000000000e+00 8.1190511019781582e+00 -1.0020176254294140e+02 0.0000000000000000e+00 0.0000000000000000e+00 0.0000000000000000e+00 0.0000000000000000e+00  -2.0862578333127715e+02 1.9187113973091871e-01 0.0000000000000000e+00 1.9187113973093053e-01 -1.0050443340826706e+02 0.0000000000000000e+00 0.0000000000000000e+00 0.0000000000000000e+00 0.0000000000000000e+00  -2.4260871021125138e+02 2.1548682579495662e+00 0.0000000000000000e+00 2.1548682579495577e+00 -4.9825945293606942e+01 0.0000000000000000e+00 0.0000000000000000e+00 0.0000000000000000e+00 0.0000000000000000e+00  -2.6531088953025284e+02 -4.5617494244724286e+00 0.0000000000000000e+00 -4.5617494244724019e+00 4.6750322104216131e+01 0.0000000000000000e+00 0.0000000000000000e+00 0.0000000000000000e+00 0.0000000000000000e+00  -3.3608847472721504e+02 4.5863018974997836e+00 0.0000000000000000e+00 4.5863018974996681e+00 2.6816818978840303e+02 0.0000000000000000e+00 0.0000000000000000e+00 0.0000000000000000e+00 0.0000000000000000e+00  -5.0357108792517755e+02 1.7664144058443256e+01 0.0000000000000000e+00 1.7664144058443160e+01 5.7734546660928538e+02 0.0000000000000000e+00 0.0000000000000000e+00 0.0000000000000000e+00 0.0000000000000000e+00  -7.8738613231889985e+02 3.8531771636058899e+01 0.0000000000000000e+00 3.8531771636058885e+01 8.3850212483033147e+02 0.0000000000000000e+00 0.0000000000000000e+00 0.0000000000000000e+00 0.0000000000000000e+00  -9.0101744801753182e+02 -4.0015764645756157e+01 0.0000000000000000e+00 -4.0015764645756136e+01 5.5755357928211174e+02 0.0000000000000000e+00 0.0000000000000000e+00 0.0000000000000000e+00 0.0000000000000000e+00  -6.8405158096380183e+02 4.1656677955064021e+00 0.0000000000000000e+00 4.1656677955063879e+00 -6.4443275285408390e+01 0.0000000000000000e+00 0.0000000000000000e+00 0.0000000000000000e+00 0.0000000000000000e+00  -7.9346581910225973e+02 3.4138728258918057e+01 0.0000000000000000e+00 3.4138728258918157e+01 3.6168739036206966e+02 0.0000000000000000e+00 0.0000000000000000e+00 0.0000000000000000e+00 0.0000000000000000e+00  -6.5517657659339466e+02 -2.4146162377951775e+01 0.0000000000000000e+00 -2.4146162377951867e+01 7.4174314759969536e+02 0.0000000000000000e+00 0.0000000000000000e+00 0.0000000000000000e+00 0.0000000000000000e+00  -2.8870486275450355e+02 -3.4946747796524186e+01 0.0000000000000000e+00 -3.4946747796524136e+01 4.4893660392114089e+02 0.0000000000000000e+00 0.0000000000000000e+00 0.0000000000000000e+00 0.0000000000000000e+00  8.7296550584927473e+01 -1.8596188550202353e+01 0.0000000000000000e+00 -1.8596188550202292e+01 3.4055622855405687e+02 0.0000000000000000e+00 0.0000000000000000e+00 0.0000000000000000e+00 0.0000000000000000e+00  1.5986450477423676e+02 -1.3290912917108892e+01 0.0000000000000000e+00 -1.3290912917108894e+01 4.7542186007150423e+02 0.0000000000000000e+00 0.0000000000000000e+00 0.0000000000000000e+00 0.0000000000000000e+00  1.8117131547320813e+02 -9.8424816202748282e+00 0.0000000000000000e+00 -9.8424816202748229e+00 8.6033694804596860e+02 0.0000000000000000e+00 0.0000000000000000e+00 0.0000000000000000e+00 0.0000000000000000e+00  1.4217746071355779e+02 -2.1565601972254072e+01 0.0000000000000000e+00 -2.1565601972254086e+01 1.3469343922901660e+03 0.0000000000000000e+00 0.0000000000000000e+00 0.0000000000000000e+00 0.0000000000000000e+00  1.4446740891917969e+02 -1.7609586915372937e+01 0.0000000000000000e+00 -1.7609586915372898e+01 1.9142657034103829e+03 0.0000000000000000e+00 0.0000000000000000e+00 0.0000000000000000e+00 0.0000000000000000e+00  3.4760022668718378e+01 -1.2084941399553982e+01 0.0000000000000000e+00 -1.2084941399554010e+01 2.5508564947988161e+03 0.0000000000000000e+00 0.0000000000000000e+00 0.0000000000000000e+00 0.0000000000000000e+00  5.4451667855428830e+01 -1.7986803912960099e+01 0.0000000000000000e+00 -1.7986803912960120e+01 3.0925495951618818e+03 0.0000000000000000e+00 0.0000000000000000e+00 0.0000000000000000e+00 0.0000000000000000e+00  5.5637282817464451e-01 2.6508113848592895e+01 0.0000000000000000e+00 2.6508113848592892e+01 3.5317445914471309e+03 0.0000000000000000e+00 0.0000000000000000e+00 0.0000000000000000e+00 0.0000000000000000e+00  2.3123517695276363e+00 8.0936077726391762e+00 0.0000000000000000e+00 8.0936077726392170e+00 3.6491138179314044e+03 0.0000000000000000e+00 0.0000000000000000e+00 0.0000000000000000e+00 0.0000000000000000e+00  -3.8971029449347450e+00 2.3843939542783303e+01 0.0000000000000000e+00 2.3843939542783346e+01 3.7202938683837046e+03 0.0000000000000000e+00 0.0000000000000000e+00 0.0000000000000000e+00 0.0000000000000000e+00  -4.3348545793953024e+00 8.0873722104880343e+00 0.0000000000000000e+00 8.0873722104880592e+00 3.8315617217140816e+03 0.0000000000000000e+00 0.0000000000000000e+00 0.0000000000000000e+00 0.0000000000000000e+00  9.2593170607734034e+00 7.8710091188140714e+00 0.0000000000000000e+00 7.8710091188140314e+00 3.9664372731326271e+03 0.0000000000000000e+00 0.0000000000000000e+00 0.0000000000000000e+00 0.0000000000000000e+00  -2.5288109774501137e+00 3.2650658039337706e+01 0.0000000000000000e+00 3.2650658039337522e+01 4.0119664063949708e+03 0.0000000000000000e+00 0.0000000000000000e+00 0.0000000000000000e+00 0.0000000000000000e+00  -2.0590493211638076e+01 4.4265297712212394e+01 0.0000000000000000e+00 4.4265297712212252e+01 4.3208873682318435e+03 0.0000000000000000e+00 0.0000000000000000e+00 0.0000000000000000e+00 0.0000000000000000e+00  2.2991039255428657e-03 8.5533034958500366e+01 0.0000000000000000e+00 8.5533034958500608e+01 4.6926465114166467e+03 0.0000000000000000e+00 0.0000000000000000e+00 0.0000000000000000e+00 0.0000000000000000e+00  -2.3323921150281894e+01 2.6317201335342808e+01 0.0000000000000000e+00 2.6317201335342812e+01 5.2213254869902967e+03 0.0000000000000000e+00 0.0000000000000000e+00 0.0000000000000000e+00 0.0000000000000000e+00  -5.0568922231745489e+01 -7.8235104082013606e+01 0.0000000000000000e+00 -7.8235104082013621e+01 5.1245858268001475e+03 0.0000000000000000e+00 0.0000000000000000e+00 0.0000000000000000e+00 0.0000000000000000e+00  -8.3646210209842693e+01 -3.0183897534846091e+02 0.0000000000000000e+00 -3.0183897534846079e+02 4.3637107756714595e+03 0.0000000000000000e+00 0.0000000000000000e+00 0.0000000000000000e+00 0.0000000000000000e+00  -5.2358583831411288e+01 -4.1805054656382106e+02 0.0000000000000000e+00 -4.1805054656382111e+02 3.1499296470028653e+03 0.0000000000000000e+00 0.0000000000000000e+00 0.0000000000000000e+00 0.0000000000000000e+00  1.3112328939265919e+02 8.5453194325275689e+01 0.0000000000000000e+00 8.5453194325275618e+01 1.7396743178850941e+03 0.0000000000000000e+00 0.0000000000000000e+00 0.0000000000000000e+00 0.0000000000000000e+00  1.0011706052427212e+02 2.4863308820780500e+02 0.0000000000000000e+00 2.4863308820780509e+02 1.8071080429503636e+03 0.0000000000000000e+00 0.0000000000000000e+00 0.0000000000000000e+00 0.0000000000000000e+00  3.7706277157814888e+01 3.3370806264455695e+02 0.0000000000000000e+00 3.3370806264455712e+02 4.0661988859723206e+03 0.0000000000000000e+00 0.0000000000000000e+00 0.0000000000000000e+00 0.0000000000000000e+00  -2.7257527505123411e+00 2.4919232844023423e+02 0.0000000000000000e+00 2.4919232844023355e+02 6.0667874342467258e+03 0.0000000000000000e+00 0.0000000000000000e+00 0.0000000000000000e+00 0.0000000000000000e+00  1.5013579381633413e+00 -2.8441029016231255e+02 0.0000000000000000e+00 -2.8441029016231255e+02 6.5087786971726464e+03 0.0000000000000000e+00 0.0000000000000000e+00 0.0000000000000000e+00 0.0000000000000000e+00  8.5042890818282558e+01 -1.0104111880805345e+02 0.0000000000000000e+00 -1.0104111880805381e+02 4.3597672239783124e+03 0.0000000000000000e+00 0.0000000000000000e+00 0.0000000000000000e+00 0.0000000000000000e+00  -1.3399526722455056e+02 1.8953732538085586e+02 0.0000000000000000e+00 1.8953732538085578e+02 5.4707887848134806e+03 0.0000000000000000e+00 0.0000000000000000e+00 0.0000000000000000e+00 0.0000000000000000e+00  -6.5848330291822359e+00 -1.4033772939661111e+02 0.0000000000000000e+00 -1.4033772939661114e+02 5.3150878803000742e+03 0.0000000000000000e+00 0.0000000000000000e+00 0.0000000000000000e+00 0.0000000000000000e+00  -2.7020075966121272e+01 -1.6941517514039342e+02 0.0000000000000000e+00 -1.6941517514039268e+02 4.0781042850011581e+03 0.0000000000000000e+00 0.0000000000000000e+00 0.0000000000000000e+00 0.0000000000000000e+00  3.9953083055706983e+01 -4.6736751559217682e+00 0.0000000000000000e+00 -4.6736751559219742e+00 3.7928250796012521e+03 0.0000000000000000e+00 0.0000000000000000e+00 0.0000000000000000e+00 0.0000000000000000e+00  -2.5906369871688511e+01 -4.1974711705428041e+00 0.0000000000000000e+00 -4.1974711705427872e+00 3.7016496328014082e+03 0.0000000000000000e+00 0.0000000000000000e+00 0.0000000000000000e+00 0.0000000000000000e+00 