<?xml version="1.0"?>
<VTKFile type="UnstructuredGrid"  version="0.1"  >
<UnstructuredGrid>
<Piece  NumberOfPoints="3879" NumberOfCells="6881">
<Points>
<DataArray  type="Float64"  NumberOfComponents="3"  format="ascii">0.207524190028372 0.2122422770132111 0  0 0 0  1 0 0  0 1 0  1 1 0  0.6249674373315121 0.2590146544375328 0  0.204663578893616 0.322657230836866 0  0.09605577522599912 0.4018360776629776 0  0.671351124618251 0.08738059142081528 0  0.7842102907526436 0.1666439122351055 0  0.8512483166984784 0.1985391006160637 0  0.6418797837909295 0.4423157172830166 0  0.9292488447973215 0.3869277868069776 0  0.3197896119137055 0.5509935221980964 0  0.3979283685568406 0.5079871620336583 0  0.1572503457993085 0.7345153245035532 0  0.3032914287999163 0.7872981443735918 0  0.3549464687598876 0.8870324161721976 0  0.9691791685505482 0.5159450047798622 0  0.9447564590470373 0.6146164845729313 0  0.7687603548175107 0.7176858127488035 0  0.8926159261971183 0.7422924070424508 0  0.2061587782631535 0.2217389244366831 0  0.2021731605082994 0.2304662099646423 0  0.1958902278109265 0.2377171008267789 0  0.1878189860121365 0.2429041729681512 0  0.1786133191209442 0.2456072006525708 0  0.1690190155206647 0.2456072006525708 0  0.1598133486294724 0.2429041729681512 0  0.1517421068306824 0.2377171008267789 0  0.1454591741333096 0.2304662099646422 0  0.1414735563784554 0.221738924436683 0  0.1401081446132369 0.212242277013211 0  0.1414735563784555 0.202745629589739 0  0.1454591741333096 0.1940183440617798 0  0.1517421068306825 0.1867674531996431 0  0.1598133486294725 0.1815803810582709 0  0.1690190155206649 0.1788773533738513 0  0.1786133191209443 0.1788773533738514 0  0.1878189860121367 0.181580381058271 0  0.1958902278109266 0.1867674531996433 0  0.2021731605082994 0.19401834406178 0  0.2061587782631535 0.2027456295897391 0  0.03333333333333333 0 0  0.06666666666666667 0 0  0.1 0 0  0.1333333333333333 0 0  0.1666666666666667 0 0  0.2 0 0  0.2333333333333333 0 0  0.2666666666666667 0 0  0.3 0 0  0.3333333333333333 0 0  0.3666666666666666 0 0  0.4 0 0  0.4333333333333333 0 0  0.4666666666666667 0 0  0.5 0 0  0.5333333333333333 0 0  0.5666666666666667 0 0  0.6 0 0  0.6333333333333333 0 0  0.6666666666666666 0 0  0.7 0 0  0.7333333333333333 0 0  0.7666666666666667 0 0  0.8 0 0  0.8333333333333334 0 0  0.8666666666666667 0 0  0.9 0 0  0.9333333333333333 0 0  0.9666666666666667 0 0  0 0.9666666666666667 0  0 0.9333333333333333 0  0 0.9 0  0 0.8666666666666667 0  0 0.8333333333333334 0  0 0.8 0  0 0.7666666666666666 0  0 0.7333333333333334 0  0 0.7 0  0 0.6666666666666667 0  0 0.6333333333333333 0  0 0.6 0  0 0.5666666666666667 0  0 0.5333333333333333 0  0 0.5 0  0 0.4666666666666667 0  0 0.4333333333333333 0  0 0.4 0  0 0.3666666666666667 0  0 0.3333333333333334 0  0 0.3 0  0 0.2666666666666667 0  0 0.2333333333333333 0  0 0.2 0  0 0.1666666666666666 0  0 0.1333333333333333 0  0 0.09999999999999998 0  0 0.06666666666666665 0  0 0.03333333333333333 0  1 0.03333333333333333 0  1 0.06666666666666667 0  1 0.1 0  1 0.1333333333333333 0  1 0.1666666666666667 0  1 0.2 0  1 0.2333333333333333 0  1 0.2666666666666667 0  1 0.3 0  1 0.3333333333333333 0  1 0.3666666666666666 0  1 0.4 0  1 0.4333333333333333 0  1 0.4666666666666667 0  1 0.5 0  1 0.5333333333333333 0  1 0.5666666666666667 0  1 0.6 0  1 0.6333333333333333 0  1 0.6666666666666666 0  1 0.7 0  1 0.7333333333333333 0  1 0.7666666666666667 0  1 0.8 0  1 0.8333333333333334 0  1 0.8666666666666667 0  1 0.9 0  1 0.9333333333333333 0  1 0.9666666666666667 0  0.9666666666666667 1 0  0.9333333333333333 1 0  0.9 1 0  0.8666666666666667 1 0  0.8333333333333334 1 0  0.8 1 0  0.7666666666666666 1 0  0.7333333333333334 1 0  0.7 1 0  0.6666666666666667 1 0  0.6333333333333333 1 0  0.6 1 0  0.5666666666666667 1 0  0.5333333333333333 1 0  0.5 1 0  0.4666666666666667 1 0  0.4333333333333333 1 0  0.4 1 0  0.3666666666666667 1 0  0.3333333333333334 1 0  0.3 1 0  0.2666666666666667 1 0  0.2333333333333333 1 0  0.2 1 0  0.1666666666666666 1 0  0.1333333333333333 1 0  0.09999999999999998 1 0  0.06666666666666665 1 0  0.03333333333333333 1 0  0.6247072676344306 0.2689501343248463 0  0.6239274716502419 0.2788583817523955 0  0.6226301867455355 0.2887122389026952 0  0.6208189686880621 0.2984846970382296 0  0.6184987819006211 0.3081489705305245 0  0.6156759858539226 0.317678570277693 0  0.6123583176357204 0.3270473763092224 0  0.6085548707439923 0.3362297093789981 0  0.6042760701622942 0.3452004013503318 0  0.5995336437856049 0.3539348641800754 0  0.5943405902749808 0.3624091573127375 0  0.5887111434291297 0.3706000532998825 0  0.582660733170558 0.3784851014649517 0  0.5762059432532257 0.3860426894390078 0  0.5693644658076293 0.3932521023987353 0  0.5621550528479018 0.4000935798443317 0  0.5545974648738458 0.4065483697616639 0  0.5467124167087765 0.4125987800202355 0  0.5385215207216315 0.4182282268660866 0  0.5300472275889694 0.4234212803767108 0  0.5213127647592257 0.4281637067534002 0  0.512342072787892 0.4324425073350981 0  0.5031597397181163 0.4362459542268262 0  0.493790933686587 0.4395636224450283 0  0.4842613339394185 0.4423864184917269 0  0.4745970604471235 0.4447066052791678 0  0.4648246023115891 0.4465178233366412 0  0.4549707451612894 0.4478151082413475 0  0.4450624977337403 0.4485949042255363 0  0.4351270178464268 0.4488550739226177 0  0.4251915379591132 0.4485949042255363 0  0.4152832905315641 0.4478151082413475 0  0.4054294333812644 0.4465178233366411 0  0.39565697524573 0.4447066052791677 0  0.385992701753435 0.4423864184917267 0  0.3764631020062665 0.4395636224450281 0  0.3670942959747371 0.4362459542268259 0  0.3579119629049616 0.4324425073350978 0  0.3489412709336278 0.4281637067533998 0  0.3402068081038843 0.4234212803767103 0  0.3317325149712221 0.4182282268660862 0  0.3235416189840771 0.412598780020235 0  0.3156565708190078 0.4065483697616634 0  0.3080989828449519 0.4000935798443311 0  0.3008895698852244 0.3932521023987346 0  0.2940480924396279 0.3860426894390071 0  0.2875933025222958 0.3784851014649511 0  0.2815428922637242 0.3706000532998818 0  0.2759134454178731 0.3624091573127368 0  0.2707203919072489 0.3539348641800746 0  0.2659779655305596 0.3452004013503309 0  0.2616991649488616 0.3362297093789972 0  0.2578957180571336 0.3270473763092215 0  0.2545780498389315 0.3176785702776921 0  0.251755253792233 0.3081489705305236 0  0.249435067004792 0.2984846970382286 0  0.2476238489473186 0.2887122389026941 0  0.2463265640426123 0.2788583817523945 0  0.2455467680584236 0.2689501343248454 0  0.2452865983613423 0.2590146544375318 0  0.2455467680584237 0.2490791745502182 0  0.2463265640426126 0.2391709271226692 0  0.247623848947319 0.2293170699723696 0  0.2494350670047924 0.2195446118368351 0  0.2517552537922335 0.2098803383445402 0  0.2545780498389321 0.2003507385973717 0  0.2578957180571343 0.1909819325658423 0  0.2616991649488624 0.1817995994960667 0  0.2659779655305604 0.172828907524733 0  0.2707203919072498 0.1640944446949895 0  0.2759134454178741 0.1556201515623273 0  0.2815428922637251 0.1474292555751825 0  0.2875933025222969 0.1395442074101132 0  0.2940480924396291 0.1319866194360571 0  0.3008895698852256 0.1247772064763297 0  0.3080989828449531 0.1179357290307334 0  0.3156565708190092 0.1114809391134012 0  0.3235416189840785 0.1054305288548295 0  0.3317325149712236 0.09980108200897844 0  0.3402068081038856 0.0946080284983544 0  0.3489412709336291 0.08986560212166514 0  0.357911962904963 0.08558680153996717 0  0.3670942959747386 0.08178335464823916 0  0.3764631020062678 0.07846568643003712 0  0.3859927017534364 0.0756428903833386 0  0.3956569752457313 0.0733227035958976 0  0.4054294333812659 0.07151148553842429 0  0.4152832905315654 0.07021420063371797 0  0.4251915379591144 0.0694344046495293 0  0.435127017846428 0.0691742349524479 0  0.4450624977337415 0.06943440464952938 0  0.4549707451612905 0.07021420063371814 0  0.4648246023115901 0.07151148553842454 0  0.4745970604471245 0.07332270359589793 0  0.4842613339394195 0.07564289038333902 0  0.4937909336865879 0.07846568643003757 0  0.5031597397181173 0.0817833546482398 0  0.5123420727878929 0.08558680153996781 0  0.5213127647592265 0.08986560212166581 0  0.53004722758897 0.0946080284983552 0  0.5385215207216321 0.09980108200897933 0  0.5467124167087771 0.1054305288548305 0  0.5545974648738462 0.1114809391134021 0  0.5621550528479023 0.1179357290307343 0  0.5693644658076298 0.1247772064763308 0  0.576205943253226 0.1319866194360582 0  0.5826607331705582 0.1395442074101142 0  0.5887111434291299 0.1474292555751835 0  0.594340590274981 0.1556201515623285 0  0.5995336437856051 0.1640944446949906 0  0.6042760701622945 0.172828907524734 0  0.6085548707439925 0.1817995994960678 0  0.6123583176357205 0.1909819325658435 0  0.6156759858539227 0.2003507385973728 0  0.6184987819006211 0.2098803383445412 0  0.6208189686880622 0.2195446118368362 0  0.6226301867455355 0.2293170699723706 0  0.6239274716502419 0.2391709271226702 0  0.6247072676344306 0.2490791745502192 0  0.203885768735257 0.3325402459548524 0  0.2015714905276826 0.3421799084407872 0  0.1977777294810124 0.3513388578120612 0  0.1925979005829864 0.3597915703383434 0  0.1861595484119405 0.3673299121842922 0  0.1786212065659918 0.373768264355338 0  0.1701684940397096 0.378948093253364 0  0.1610095446684356 0.3827418543000342 0  0.1513698821825007 0.3850561325076086 0  0.1414868670645144 0.3858339426659677 0  0.1316038519465281 0.3850561325076086 0  0.1219641894605933 0.3827418543000343 0  0.1128052400893193 0.378948093253364 0  0.1043525275630371 0.3737682643553381 0  0.09681418571708833 0.3673299121842922 0  0.09037583354604248 0.3597915703383434 0  0.08519600464801645 0.3513388578120612 0  0.08140224360134621 0.3421799084407872 0  0.07908796539377183 0.3325402459548523 0  0.07831015523541281 0.3226572308368659 0  0.07908796539377186 0.3127742157188796 0  0.08140224360134626 0.3031345532329447 0  0.08519600464801655 0.2939756038616707 0  0.0903758335460426 0.2855228913353884 0  0.0968141857
[...]
<PointData  Tensors="$\sigma$"> 
<DataArray  type="Float64"  Name="$\sigma$"  NumberOfComponents="9" format="ascii">1.2834544511784028e+02 3.3983119943016604e+01 0.0000000000000000e+00 3.3983119943016696e+01 8.4329899765505215e+03 0.0000000000000000e+00 0.0000000000000000e+00 0.0000000000000000e+00 0.0000000000000000e+00  1.0212097620509334e+03 9.3345699963655576e+01 0.0000000000000000e+00 9.3345699963655633e+01 4.2200115574296069e+03 0.0000000000000000e+00 0.0000000000000000e+00 0.0000000000000000e+00 0.0000000000000000e+00  -1.8825144351615087e+01 -1.7165785251993551e+01 0.0000000000000000e+00 -1.7165785251993537e+01 4.5099371037156916e+03 0.0000000000000000e+00 0.0000000000000000e+00 0.0000000000000000e+00 0.0000000000000000e+00  7.0464931481942017e+00 -4.1273743660256370e+00 0.0000000000000000e+00 -4.1273743660256548e+00 4.3566702880643907e+03 0.0000000000000000e+00 0.0000000000000000e+00 0.0000000000000000e+00 0.0000000000000000e+00  8.4386197094427970e+00 8.9240656600089405e+00 0.0000000000000000e+00 8.9240656600089441e+00 4.1278478714444645e+03 0.0000000000000000e+00 0.0000000000000000e+00 0.0000000000000000e+00 0.0000000000000000e+00  7.3716287234341948e+01 7.5986960378021394e+01 0.0000000000000000e+00 7.5986960378021706e+01 8.4095804944687952e+03 0.0000000000000000e+00 0.0000000000000000e+00 0.0000000000000000e+00 0.0000000000000000e+00  -6.9656441465429168e+01 2.0621662760685885e+02 0.0000000000000000e+00 2.0621662760685837e+02 2.6645583199420304e+02 0.0000000000000000e+00 0.0000000000000000e+00 0.0000000000000000e+00 0.0000000000000000e+00  5.6837176182561859e+02 3.7526381128007409e+02 0.0000000000000000e+00 3.7526381128007421e+02 9.1603486668781788e+03 0.0000000000000000e+00 0.0000000000000000e+00 0.0000000000000000e+00 0.0000000000000000e+00  2.1647692925976963e+02 -2.9106737415794748e+02 0.0000000000000000e+00 -2.9106737415794760e+02 8.4328159784317286e+03 0.0000000000000000e+00 0.0000000000000000e+00 0.0000000000000000e+00 0.0000000000000000e+00  -2.0648193586853577e+02 6.2390815741831254e+01 0.0000000000000000e+00 6.2390815741831602e+01 -1.2332066909859959e+02 0.0000000000000000e+00 0.0000000000000000e+00 0.0000000000000000e+00 0.0000000000000000e+00  2.3209412733957540e+00 -2.6871458737023669e+01 0.0000000000000000e+00 -2.6871458737023559e+01 -6.7695798505053347e+01 0.0000000000000000e+00 0.0000000000000000e+00 0.0000000000000000e+00 0.0000000000000000e+00  1.1268689118990457e+02 3.6009157946539608e+02 0.0000000000000000e+00 3.6009157946539676e+02 4.6934845135602509e+03 0.0000000000000000e+00 0.0000000000000000e+00 0.0000000000000000e+00 0.0000000000000000e+00  -5.7527963767326519e+01 6.2923582784327024e+01 0.0000000000000000e+00 6.2923582784326875e+01 1.0799867697259016e+04 0.0000000000000000e+00 0.0000000000000000e+00 0.0000000000000000e+00 0.0000000000000000e+00  5.5590147289740926e+01 9.9079699371860769e+01 0.0000000000000000e+00 9.9079699371860883e+01 8.6779781341074686e+03 0.0000000000000000e+00 0.0000000000000000e+00 0.0000000000000000e+00 0.0000000000000000e+00  -7.7523397454533622e+01 -1.8133923446643601e+02 0.0000000000000000e+00 -1.8133923446643612e+02 -1.0297368378647261e+03 0.0000000000000000e+00 0.0000000000000000e+00 0.0000000000000000e+00 0.0000000000000000e+00  -1.5875280424216331e+02 -1.5529768561671136e+02 0.0000000000000000e+00 -1.5529768561671102e+02 -4.7918149796374860e+02 0.0000000000000000e+00 0.0000000000000000e+00 0.0000000000000000e+00 0.0000000000000000e+00  4.9236773643872759e+01 -1.2321159156662240e+02 0.0000000000000000e+00 -1.2321159156662284e+02 5.4765671467547372e+03 0.0000000000000000e+00 0.0000000000000000e+00 0.0000000000000000e+00 0.0000000000000000e+00  1.1789875030961544e+02 8.9965949116862987e+01 0.0000000000000000e+00 8.9965949116862305e+01 6.5171883605094417e+03 0.0000000000000000e+00 0.0000000000000000e+00 0.0000000000000000e+00 0.0000000000000000e+00  4.1227559400777773e+03 7.8487073877315004e+02 0.0000000000000000e+00 7.8487073877315095e+02 1.7310670797363684e+04 0.0000000000000000e+00 0.0000000000000000e+00 0.0000000000000000e+00 0.0000000000000000e+00  2.3901712818608823e+02 -2.8754520806372426e+02 0.0000000000000000e+00 -2.8754520806372437e+02 1.0148386971583857e+04 0.0000000000000000e+00 0.0000000000000000e+00 0.0000000000000000e+00 0.0000000000000000e+00  4.0826218556394217e+01 1.3980392934940056e+02 0.0000000000000000e+00 1.3980392934939997e+02 6.4214517512263055e+03 0.0000000000000000e+00 0.0000000000000000e+00 0.0000000000000000e+00 0.0000000000000000e+00  1.2077320755492754e+02 1.0420343724814220e+01 0.0000000000000000e+00 1.0420343724814177e+01 3.4654195296587486e+03 0.0000000000000000e+00 0.0000000000000000e+00 0.0000000000000000e+00 0.0000000000000000e+00  4.0546442539955524e+02 -1.1120639463696855e+03 0.0000000000000000e+00 -1.1120639463696857e+03 5.3004679117031292e+03 0.0000000000000000e+00 0.0000000000000000e+00 0.0000000000000000e+00 0.0000000000000000e+00  -2.2236635021454836e+02 -3.4921355198415353e+02 0.0000000000000000e+00 -3.4921355198415370e+02 1.4411690377345806e+03 0.0000000000000000e+00 0.0000000000000000e+00 0.0000000000000000e+00 0.0000000000000000e+00  -1.5722682454295586e+03 1.0099334562184424e+03 0.0000000000000000e+00 1.0099334562184434e+03 -6.7827454333680350e+02 0.0000000000000000e+00 0.0000000000000000e+00 0.0000000000000000e+00 0.0000000000000000e+00  -3.2497249443039791e+03 1.1681414408994067e+03 0.0000000000000000e+00 1.1681414408994076e+03 -6.7662192243509742e+02 0.0000000000000000e+00 0.0000000000000000e+00 0.0000000000000000e+00 0.0000000000000000e+00  -2.5093247692265945e+03 6.8796528071081741e+02 0.0000000000000000e+00 6.8796528071081627e+02 -4.1763627317885891e+02 0.0000000000000000e+00 0.0000000000000000e+00 0.0000000000000000e+00 0.0000000000000000e+00  1.0924255618329651e+03 1.7363767438016034e+03 0.0000000000000000e+00 1.7363767438016037e+03 1.0987238226763275e+03 0.0000000000000000e+00 0.0000000000000000e+00 0.0000000000000000e+00 0.0000000000000000e+00  5.4757747087876360e+03 3.5506637030979100e+03 0.0000000000000000e+00 3.5506637030979059e+03 2.0324820504617217e+03 0.0000000000000000e+00 0.0000000000000000e+00 0.0000000000000000e+00 0.0000000000000000e+00  5.4579167625073751e+03 4.2862607990931983e+03 0.0000000000000000e+00 4.2862607990932047e+03 3.9754849439310433e+03 0.0000000000000000e+00 0.0000000000000000e+00 0.0000000000000000e+00 0.0000000000000000e+00  2.4779604264444179e+03 3.2937249853046178e+03 0.0000000000000000e+00 3.2937249853046178e+03 4.5957536899701690e+03 0.0000000000000000e+00 0.0000000000000000e+00 0.0000000000000000e+00 0.0000000000000000e+00  8.8937266606978017e+02 1.4527699300106406e+03 0.0000000000000000e+00 1.4527699300106419e+03 3.8434283979597617e+03 0.0000000000000000e+00 0.0000000000000000e+00 0.0000000000000000e+00 0.0000000000000000e+00  7.4288059882270915e+01 2.3596403721809494e+02 0.0000000000000000e+00 2.3596403721809506e+02 3.2985271430719317e+03 0.0000000000000000e+00 0.0000000000000000e+00 0.0000000000000000e+00 0.0000000000000000e+00  1.5046056157333010e+02 -2.7825982235052186e+02 0.0000000000000000e+00 -2.7825982235052169e+02 1.6122632751663532e+03 0.0000000000000000e+00 0.0000000000000000e+00 0.0000000000000000e+00 0.0000000000000000e+00  -1.2999246955168852e+02 9.4301101575433393e+01 0.0000000000000000e+00 9.4301101575433222e+01 1.8192343694060907e+02 0.0000000000000000e+00 0.0000000000000000e+00 0.0000000000000000e+00 0.0000000000000000e+00  -1.0395570224716855e+03 7.4204453896506129e+02 0.0000000000000000e+00 7.4204453896506243e+02 -5.3854011442708111e+02 0.0000000000000000e+00 0.0000000000000000e+00 0.0000000000000000e+00 0.0000000000000000e+00  -2.0260891966533814e+03 8.0046211690343171e+02 0.0000000000000000e+00 8.0046211690343023e+02 -5.0654374035021078e+02 0.0000000000000000e+00 0.0000000000000000e+00 0.0000000000000000e+00 0.0000000000000000e+00  -2.1102003789697096e+03 4.3667177240910274e+02 0.0000000000000000e+00 4.3667177240910223e+02 -2.8113761372504126e+02 0.0000000000000000e+00 0.0000000000000000e+00 0.0000000000000000e+00 0.0000000000000000e+00  -9.5744577745314609e+02 3.0233552270481198e+01 0.0000000000000000e+00 3.0233552270480768e+01 6.2508957873115541e+01 0.0000000000000000e+00 0.0000000000000000e+00 0.0000000000000000e+00 0.0000000000000000e+00  1.0793716725010265e+03 7.7366338159195971e+02 0.0000000000000000e+00 7.7366338159195971e+02 4.5392848197536233e+02 0.0000000000000000e+00 0.0000000000000000e+00 0.0000000000000000e+00 0.0000000000000000e+00  2.2281994817941923e+03 1.9808027393680477e+03 0.0000000000000000e+00 1.9808027393680497e+03 2.3060021669518856e+03 0.0000000000000000e+00 0.0000000000000000e+00 0.0000000000000000e+00 0.0000000000000000e+00  1.9029059424817985e+03 3.0450376289578112e+03 0.0000000000000000e+00 3.0450376289578148e+03 5.1658892109240405e+03 0.0000000000000000e+00 0.0000000000000000e+00 0.0000000000000000e+00 0.0000000000000000e+00  1.1937268088536605e+03 1.9310640791425071e+03 0.0000000000000000e+00 1.9310640791425089e+03 7.7105039651531606e+03 0.0000000000000000e+00 0.0000000000000000e+00 0.0000000000000000e+00 0.0000000000000000e+00  3.6243704411580978e+02 -2.4662616350971490e+02 0.0000000000000000e+00 -2.4662616350971507e+02 3.5453839731452781e+03 0.0000000000000000e+00 0.0000000000000000e+00 0.0000000000000000e+00 0.0000000000000000e+00  -7.2068352667528544e+01 3.4502106626319431e+01 0.0000000000000000e+00 3.4502106626319382e+01 3.1046095588193816e+03 0.0000000000000000e+00 0.0000000000000000e+00 0.0000000000000000e+00 0.0000000000000000e+00  2.0895454741863600e+02 4.9793122734567583e-02 0.0000000000000000e+00 4.9793122734588614e-02 2.3908189769879418e+03 0.0000000000000000e+00 0.0000000000000000e+00 0.0000000000000000e+00 0.0000000000000000e+00  8.8440453401180141e-01 2.9970086282395972e+01 0.0000000000000000e+00 2.9970086282396007e+01 2.0160505354610495e+03 0.0000000000000000e+00 0.0000000000000000e+00 0.0000000000000000e+00 0.0000000000000000e+00  7.5959939194416137e+01 3.1423228356496814e+01 0.0000000000000000e+00 3.1423228356496811e+01 1.5934643290062440e+03 0.0000000000000000e+00 0.0000000000000000e+00 0.0000000000000000e+00 0.0000000000000000e+00  -3.3456681802604471e+01 2.0701680238255328e+01 0.0000000000000000e+00 2.0701680238255349e+01 1.2107428401327793e+03 0.0000000000000000e+00 0.0000000000000000e+00 0.0000000000000000e+00 0.0000000000000000e+00  -6.3105972486029387e+01 9.2239303960557066e+00 0.0000000000000000e+00 9.2239303960557297e+00 8.7745939601459679e+02 0.0000000000000000e+00 0.0000000000000000e+00 0.0000000000000000e+00 0.0000000000000000e+00  -1.2653426896059426e+02 7.0932197059216229e+00 0.0000000000000000e+00 7.0932197059216087e+00 5.5397511628836492e+02 0.0000000000000000e+00 0.0000000000000000e+00 0.0000000000000000e+00 0.0000000000000000e+00  -1.2132671997057977e+02 7.6215989227604037e+00 0.0000000000000000e+00 7.6215989227603975e+00 2.3095234895177396e+02 0.0000000000000000e+00 0.0000000000000000e+00 0.0000000000000000e+00 0.0000000000000000e+00  -1.4642284306621895e+02 1.1921272332475297e+01 0.0000000000000000e+00 1.1921272332475242e+01 -2.4655630939972806e+01 0.0000000000000000e+00 0.0000000000000000e+00 0.0000000000000000e+00 0.0000000000000000e+00  -2.0981649723388719e+02 9.5873240902727410e+00 0.0000000000000000e+00 9.5873240902727161e+00 -1.2538040456709224e+02 0.0000000000000000e+00 0.0000000000000000e+00 0.0000000000000000e+00 0.0000000000000000e+00  -2.6252378908618016e+02 1.4128138775134375e-01 0.0000000000000000e+00 1.4128138775136742e-01 -1.2584016452606338e+02 0.0000000000000000e+00 0.0000000000000000e+00 0.0000000000000000e+00 0.0000000000000000e+00  -3.0470715033123639e+02 2.8112380806530282e+00 0.0000000000000000e+00 2.8112380806530246e+00 -6.2901969465790003e+01 0.0000000000000000e+00 0.0000000000000000e+00 0.0000000000000000e+00 0.0000000000000000e+00  -3.3416956041672694e+02 -5.6947234426393836e+00 0.0000000000000000e+00 -5.6947234426393409e+00 5.8643783563950201e+01 0.0000000000000000e+00 0.0000000000000000e+00 0.0000000000000000e+00 0.0000000000000000e+00  -4.2085796303460512e+02 5.1374180333484016e+00 0.0000000000000000e+00 5.1374180333482515e+00 3.3411207178261225e+02 0.0000000000000000e+00 0.0000000000000000e+00 0.0000000000000000e+00 0.0000000000000000e+00  -6.3471676468512203e+02 1.9717619802509507e+01 0.0000000000000000e+00 1.9717619802509493e+01 7.2132927627386584e+02 0.0000000000000000e+00 0.0000000000000000e+00 0.0000000000000000e+00 0.0000000000000000e+00  -9.8577873869329596e+02 4.7278262701174249e+01 0.0000000000000000e+00 4.7278262701174242e+01 1.0507460255727044e+03 0.0000000000000000e+00 0.0000000000000000e+00 0.0000000000000000e+00 0.0000000000000000e+00  -1.1302304409896497e+03 -4.9827175965348729e+01 0.0000000000000000e+00 -4.9827175965348736e+01 6.9723664633179283e+02 0.0000000000000000e+00 0.0000000000000000e+00 0.0000000000000000e+00 0.0000000000000000e+00  -8.6022579027896620e+02 6.6994250047488526e+00 0.0000000000000000e+00 6.6994250047488615e+00 -8.4210107883936359e+01 0.0000000000000000e+00 0.0000000000000000e+00 0.0000000000000000e+00 0.0000000000000000e+00  -9.9559614702628005e+02 4.2203704075474377e+01 0.0000000000000000e+00 4.2203704075474519e+01 4.4999476473136468e+02 0.0000000000000000e+00 0.0000000000000000e+00 0.0000000000000000e+00 0.0000000000000000e+00  -8.2127648923640686e+02 -3.0876048144672165e+01 0.0000000000000000e+00 -3.0876048144672247e+01 9.3052519458655752e+02 0.0000000000000000e+00 0.0000000000000000e+00 0.0000000000000000e+00 0.0000000000000000e+00  -3.6428483716590540e+02 -4.1615362335235538e+01 0.0000000000000000e+00 -4.1615362335235503e+01 5.6370228569494918e+02 0.0000000000000000e+00 0.0000000000000000e+00 0.0000000000000000e+00 0.0000000000000000e+00  1.0734440368781080e+02 -2.2279446201860530e+01 0.0000000000000000e+00 -2.2279446201860225e+01 4.2649078758324248e+02 0.0000000000000000e+00 0.0000000000000000e+00 0.0000000000000000e+00 0.0000000000000000e+00  1.9697315883226941e+02 -1.4791894454157022e+01 0.0000000000000000e+00 -1.4791894454157063e+01 5.9025243326271459e+02 0.0000000000000000e+00 0.0000000000000000e+00 0.0000000000000000e+00 0.0000000000000000e+00  2.2478233472381035e+02 -1.1170935807378374e+01 0.0000000000000000e+00 -1.1170935807378360e+01 1.0699685153951486e+03 0.0000000000000000e+00 0.0000000000000000e+00 0.0000000000000000e+00 0.0000000000000000e+00  1.7535713794105072e+02 -2.4720909852679256e+01 0.0000000000000000e+00 -2.4720909852679284e+01 1.6746563970393481e+03 0.0000000000000000e+00 0.0000000000000000e+00 0.0000000000000000e+00 0.0000000000000000e+00  1.8087405319918960e+02 -2.0875063267970638e+01 0.0000000000000000e+00 -2.0875063267970560e+01 2.3819985091650519e+03 0.0000000000000000e+00 0.0000000000000000e+00 0.0000000000000000e+00 0.0000000000000000e+00  4.1949919581899699e+01 -1.4338763980116115e+01 0.0000000000000000e+00 -1.4338763980116161e+01 3.1718819121812871e+03 0.0000000000000000e+00 0.0000000000000000e+00 0.0000000000000000e+00 0.0000000000000000e+00  6.7731400019700772e+01 -2.2087956546871187e+01 0.0000000000000000e+00 -2.2087956546871197e+01 3.8537073641677343e+03 0.0000000000000000e+00 0.0000000000000000e+00 0.0000000000000000e+00 0.0000000000000000e+00  2.1308410142694738e+00 3.1537026936838309e+01 0.0000000000000000e+00 3.1537026936838334e+01 4.3983653735860680e+03 0.0000000000000000e+00 0.0000000000000000e+00 0.0000000000000000e+00 0.0000000000000000e+00  2.2733867549871336e+00 1.1212675235560692e+01 0.0000000000000000e+00 1.1212675235560704e+01 4.5485899945874498e+03 0.0000000000000000e+00 0.0000000000000000e+00 0.0000000000000000e+00 0.0000000000000000e+00  -3.9172663545558453e+00 2.7353660206828984e+01 0.0000000000000000e+00 2.7353660206829108e+01 4.6376735389688620e+03 0.0000000000000000e+00 0.0000000000000000e+00 0.0000000000000000e+00 0.0000000000000000e+00  -6.6446310641351509e+00 1.0521574952571195e+01 0.0000000000000000e+00 1.0521574952571193e+01 4.7763026325296842e+03 0.0000000000000000e+00 0.0000000000000000e+00 0.0000000000000000e+00 0.0000000000000000e+00  1.3261517571305182e+01 8.1995488533874781e+00 0.0000000000000000e+00 8.1995488533873946e+00 4.9496053033912331e+03 0.0000000000000000e+00 0.0000000000000000e+00 0.0000000000000000e+00 0.0000000000000000e+00  -3.7892571064273950e+00 4.1351062139187057e+01 0.0000000000000000e+00 4.1351062139186958e+01 5.0083134430983619e+03 0.0000000000000000e+00 0.0000000000000000e+00 0.0000000000000000e+00 0.0000000000000000e+00  -2.6547667070022563e+01 5.3756115660002649e+01 0.0000000000000000e+00 5.3756115660002536e+01 5.3978404214582815e+03 0.0000000000000000e+00 0.0000000000000000e+00 0.0000000000000000e+00 0.0000000000000000e+00  -8.9070852131567313e-01 1.0507674302153207e+02 0.0000000000000000e+00 1.0507674302153232e+02 5.8729458900407017e+03 0.0000000000000000e+00 0.0000000000000000e+00 0.0000000000000000e+00 0.0000000000000000e+00  -2.4462722207738370e+01 3.2755324800814975e+01 0.0000000000000000e+00 3.2755324800814961e+01 6.5456306319079522e+03 0.0000000000000000e+00 0.0000000000000000e+00 0.0000000000000000e+00 0.0000000000000000e+00  -5.3654651163119063e+01 -8.9236961934306564e+01 0.0000000000000000e+00 -8.9236961934306620e+01 6.4489265626051165e+03 0.0000000000000000e+00 0.0000000000000000e+00 0.0000000000000000e+00 0.0000000000000000e+00  -1.0556352216260156e+02 -3.5435080760965155e+02 0.0000000000000000e+00 -3.5435080760965110e+02 5.5213994456637711e+03 0.0000000000000000e+00 0.0000000000000000e+00 0.0000000000000000e+00 0.0000000000000000e+00  -8.4588596264183735e+01 -5.4562765950695268e+02 0.0000000000000000e+00 -5.4562765950695268e+02 3.9703520831934693e+03 0.0000000000000000e+00 0.0000000000000000e+00 0.0000000000000000e+00 0.0000000000000000e+00  1.7905191059517225e+02 9.5539555047050357e+01 0.0000000000000000e+00 9.5539555047050357e+01 2.1232799108858267e+03 0.0000000000000000e+00 0.0000000000000000e+00 0.0000000000000000e+00 0.0000000000000000e+00  1.4659332308804056e+02 3.5223150107124036e+02 0.0000000000000000e+00 3.5223150107124053e+02 2.1925727774503985e+03 0.0000000000000000e+00 0.0000000000000000e+00 0.0000000000000000e+00 0.0000000000000000e+00  2.2606940983278189e+01 4.1636428239803507e+02 0.0000000000000000e+00 4.1636428239803530e+02 5.1651020704267339e+03 0.0000000000000000e+00 0.0000000000000000e+00 0.0000000000000000e+00 0.0000000000000000e+00  -9.0897191468969218e-01 2.8809667226338570e+02 0.0000000000000000e+00 2.8809667226338496e+02 7.6592429370971522e+03 0.0000000000000000e+00 0.0000000000000000e+00 0.0000000000000000e+00 0.0000000000000000e+00  2.1902834804339623e+01 -3.5523563285137118e+02 0.0000000000000000e+00 -3.5523563285137175e+02 8.2057354210014910e+03 0.0000000000000000e+00 0.0000000000000000e+00 0.0000000000000000e+00 0.0000000000000000e+00  2.9475166327035936e+01 -1.4043046663131685e+02 0.0000000000000000e+00 -1.4043046663131744e+02 5.4093924381472189e+03 0.0000000000000000e+00 0.0000000000000000e+00 0.0000000000000000e+00 0.0000000000000000e+00  -1.7100241837241239e+02 2.3567619331366237e+02 0.0000000000000000e+00 2.3567619331366186e+02 6.8715274060913844e+03 0.0000000000000000e+00 0.0000000000000000e+00 0.0000000000000000e+00 0.0000000000000000e+00  -3.0366270134654001e+00 -1.7323981656707738e+02 0.0000000000000000e+00 -1.7323981656707696e+02 6.6523965576653627e+03 0.0000000000000000e+00 0.0000000000000000e+00 0.0000000000000000e+00 0.0000000000000000e+00  -4.0885965564524682e+01 -2.0875359318710417e+02 0.0000000000000000e+00 -2.0875359318710355e+02 5.0895864277477958e+03 0.0000000000000000e+00 0.0000000000000000e+00 0.0000000000000000e+00 0.0000000000000000e+00  5.0823879343291289e+01 -4.2318304109147382e+00 0.0000000000000000e+00 -4.2318304109148581e+00 4.7289579159707610e+03 0.0000000000000000e+00 0.0000000000000000e+00 0.0000000000000000e+00 0.0000000000000000e+00  -3.5554862033353217e+01 -7.6793236173361050e+00 0.0000000000000000e+00 -7.6793236173361628e+00 4.6074139477876824e+03 0.0000000000000000e+00 0.0000000000000000e+00 0.0000000000000000e+00 0.0000000000000000e+00