<?xml version="1.0"?>
<VTKFile type="UnstructuredGrid"  version="0.1"  >
<UnstructuredGrid>
<Piece  NumberOfPoints="3879" NumberOfCells="6881">
<Points>
<DataArray  type="Float64"  NumberOfComponents="3"  format="ascii">0.207524190028372 0.2122422770132111 0  0 0 0  1 0 0  0 1 0  1 1 0  0.6249674373315121 0.2590146544375328 0  0.204663578893616 0.322657230836866 0  0.09605577522599912 0.4018360776629776 0  0.671351124618251 0.08738059142081528 0  0.7842102907526436 0.1666439122351055 0  0.8512483166984784 0.1985391006160637 0  0.6418797837909295 0.4423157172830166 0  0.9292488447973215 0.3869277868069776 0  0.3197896119137055 0.5509935221980964 0  0.3979283685568406 0.5079871620336583 0  0.1572503457993085 0.7345153245035532 0  0.3032914287999163 0.7872981443735918 0  0.3549464687598876 0.8870324161721976 0  0.9691791685505482 0.5159450047798622 0  0.9447564590470373 0.6146164845729313 0  0.7687603548175107 0.7176858127488035 0  0.8926159261971183 0.7422924070424508 0  0.2061587782631535 0.2217389244366831 0  0.2021731605082994 0.2304662099646423 0  0.1958902278109265 0.2377171008267789 0  0.1878189860121365 0.2429041729681512 0  0.1786133191209442 0.2456072006525708 0  0.1690190155206647 0.2456072006525708 0  0.1598133486294724 0.2429041729681512 0  0.1517421068306824 0.2377171008267789 0  0.1454591741333096 0.2304662099646422 0  0.1414735563784554 0.221738924436683 0  0.1401081446132369 0.212242277013211 0  0.1414735563784555 0.202745629589739 0  0.1454591741333096 0.1940183440617798 0  0.1517421068306825 0.1867674531996431 0  0.1598133486294725 0.1815803810582709 0  0.1690190155206649 0.1788773533738513 0  0.1786133191209443 0.1788773533738514 0  0.1878189860121367 0.181580381058271 0  0.1958902278109266 0.1867674531996433 0  0.2021731605082994 0.19401834406178 0  0.2061587782631535 0.2027456295897391 0  0.03333333333333333 0 0  0.06666666666666667 0 0  0.1 0 0  0.1333333333333333 0 0  0.1666666666666667 0 0  0.2 0 0  0.2333333333333333 0 0  0.2666666666666667 0 0  0.3 0 0  0.3333333333333333 0 0  0.3666666666666666 0 0  0.4 0 0  0.4333333333333333 0 0  0.4666666666666667 0 0  0.5 0 0  0.5333333333333333 0 0  0.5666666666666667 0 0  0.6 0 0  0.6333333333333333 0 0  0.6666666666666666 0 0  0.7 0 0  0.7333333333333333 0 0  0.7666666666666667 0 0  0.8 0 0  0.8333333333333334 0 0  0.8666666666666667 0 0  0.9 0 0  0.9333333333333333 0 0  0.9666666666666667 0 0  0 0.9666666666666667 0  0 0.9333333333333333 0  0 0.9 0  0 0.8666666666666667 0  0 0.8333333333333334 0  0 0.8 0  0 0.7666666666666666 0  0 0.7333333333333334 0  0 0.7 0  0 0.6666666666666667 0  0 0.6333333333333333 0  0 0.6 0  0 0.5666666666666667 0  0 0.5333333333333333 0  0 0.5 0  0 0.4666666666666667 0  0 0.4333333333333333 0  0 0.4 0  0 0.3666666666666667 0  0 0.3333333333333334 0  0 0.3 0  0 0.2666666666666667 0  0 0.2333333333333333 0  0 0.2 0  0 0.1666666666666666 0  0 0.1333333333333333 0  0 0.09999999999999998 0  0 0.06666666666666665 0  0 0.03333333333333333 0  1 0.03333333333333333 0  1 0.06666666666666667 0  1 0.1 0  1 0.1333333333333333 0  1 0.1666666666666667 0  1 0.2 0  1 0.2333333333333333 0  1 0.2666666666666667 0  1 0.3 0  1 0.3333333333333333 0  1 0.3666666666666666 0  1 0.4 0  1 0.4333333333333333 0  1 0.4666666666666667 0  1 0.5 0  1 0.5333333333333333 0  1 0.5666666666666667 0  1 0.6 0  1 0.6333333333333333 0  1 0.6666666666666666 0  1 0.7 0  1 0.7333333333333333 0  1 0.7666666666666667 0  1 0.8 0  1 0.8333333333333334 0  1 0.8666666666666667 0  1 0.9 0  1 0.9333333333333333 0  1 0.9666666666666667 0  0.9666666666666667 1 0  0.9333333333333333 1 0  0.9 1 0  0.8666666666666667 1 0  0.8333333333333334 1 0  0.8 1 0  0.7666666666666666 1 0  0.7333333333333334 1 0  0.7 1 0  0.6666666666666667 1 0  0.6333333333333333 1 0  0.6 1 0  0.5666666666666667 1 0  0.5333333333333333 1 0  0.5 1 0  0.4666666666666667 1 0  0.4333333333333333 1 0  0.4 1 0  0.3666666666666667 1 0  0.3333333333333334 1 0  0.3 1 0  0.2666666666666667 1 0  0.2333333333333333 1 0  0.2 1 0  0.1666666666666666 1 0  0.1333333333333333 1 0  0.09999999999999998 1 0  0.06666666666666665 1 0  0.03333333333333333 1 0  0.6247072676344306 0.2689501343248463 0  0.6239274716502419 0.2788583817523955 0  0.6226301867455355 0.2887122389026952 0  0.6208189686880621 0.2984846970382296 0  0.6184987819006211 0.3081489705305245 0  0.6156759858539226 0.317678570277693 0  0.6123583176357204 0.3270473763092224 0  0.6085548707439923 0.3362297093789981 0  0.6042760701622942 0.3452004013503318 0  0.5995336437856049 0.3539348641800754 0  0.5943405902749808 0.3624091573127375 0  0.5887111434291297 0.3706000532998825 0  0.582660733170558 0.3784851014649517 0  0.5762059432532257 0.3860426894390078 0  0.5693644658076293 0.3932521023987353 0  0.5621550528479018 0.4000935798443317 0  0.5545974648738458 0.4065483697616639 0  0.5467124167087765 0.4125987800202355 0  0.5385215207216315 0.4182282268660866 0  0.5300472275889694 0.4234212803767108 0  0.5213127647592257 0.4281637067534002 0  0.512342072787892 0.4324425073350981 0  0.5031597397181163 0.4362459542268262 0  0.493790933686587 0.4395636224450283 0  0.4842613339394185 0.4423864184917269 0  0.4745970604471235 0.4447066052791678 0  0.4648246023115891 0.4465178233366412 0  0.4549707451612894 0.4478151082413475 0  0.4450624977337403 0.4485949042255363 0  0.4351270178464268 0.4488550739226177 0  0.4251915379591132 0.4485949042255363 0  0.4152832905315641 0.4478151082413475 0  0.4054294333812644 0.4465178233366411 0  0.39565697524573 0.4447066052791677 0  0.385992701753435 0.4423864184917267 0  0.3764631020062665 0.4395636224450281 0  0.3670942959747371 0.4362459542268259 0  0.3579119629049616 0.4324425073350978 0  0.3489412709336278 0.4281637067533998 0  0.3402068081038843 0.4234212803767103 0  0.3317325149712221 0.4182282268660862 0  0.3235416189840771 0.412598780020235 0  0.3156565708190078 0.4065483697616634 0  0.3080989828449519 0.4000935798443311 0  0.3008895698852244 0.3932521023987346 0  0.2940480924396279 0.3860426894390071 0  0.2875933025222958 0.3784851014649511 0  0.2815428922637242 0.3706000532998818 0  0.2759134454178731 0.3624091573127368 0  0.2707203919072489 0.3539348641800746 0  0.2659779655305596 0.3452004013503309 0  0.2616991649488616 0.3362297093789972 0  0.2578957180571336 0.3270473763092215 0  0.2545780498389315 0.3176785702776921 0  0.251755253792233 0.3081489705305236 0  0.249435067004792 0.2984846970382286 0  0.2476238489473186 0.2887122389026941 0  0.2463265640426123 0.2788583817523945 0  0.2455467680584236 0.2689501343248454 0  0.2452865983613423 0.2590146544375318 0  0.2455467680584237 0.2490791745502182 0  0.2463265640426126 0.2391709271226692 0  0.247623848947319 0.2293170699723696 0  0.2494350670047924 0.2195446118368351 0  0.2517552537922335 0.2098803383445402 0  0.2545780498389321 0.2003507385973717 0  0.2578957180571343 0.1909819325658423 0  0.2616991649488624 0.1817995994960667 0  0.2659779655305604 0.172828907524733 0  0.2707203919072498 0.1640944446949895 0  0.2759134454178741 0.1556201515623273 0  0.2815428922637251 0.1474292555751825 0  0.2875933025222969 0.1395442074101132 0  0.2940480924396291 0.1319866194360571 0  0.3008895698852256 0.1247772064763297 0  0.3080989828449531 0.1179357290307334 0  0.3156565708190092 0.1114809391134012 0  0.3235416189840785 0.1054305288548295 0  0.3317325149712236 0.09980108200897844 0  0.3402068081038856 0.0946080284983544 0  0.3489412709336291 0.08986560212166514 0  0.357911962904963 0.08558680153996717 0  0.3670942959747386 0.08178335464823916 0  0.3764631020062678 0.07846568643003712 0  0.3859927017534364 0.0756428903833386 0  0.3956569752457313 0.0733227035958976 0  0.4054294333812659 0.07151148553842429 0  0.4152832905315654 0.07021420063371797 0  0.4251915379591144 0.0694344046495293 0  0.435127017846428 0.0691742349524479 0  0.4450624977337415 0.06943440464952938 0  0.4549707451612905 0.07021420063371814 0  0.4648246023115901 0.07151148553842454 0  0.4745970604471245 0.07332270359589793 0  0.4842613339394195 0.07564289038333902 0  0.4937909336865879 0.07846568643003757 0  0.5031597397181173 0.0817833546482398 0  0.5123420727878929 0.08558680153996781 0  0.5213127647592265 0.08986560212166581 0  0.53004722758897 0.0946080284983552 0  0.5385215207216321 0.09980108200897933 0  0.5467124167087771 0.1054305288548305 0  0.5545974648738462 0.1114809391134021 0  0.5621550528479023 0.1179357290307343 0  0.5693644658076298 0.1247772064763308 0  0.576205943253226 0.1319866194360582 0  0.5826607331705582 0.1395442074101142 0  0.5887111434291299 0.1474292555751835 0  0.594340590274981 0.1556201515623285 0  0.5995336437856051 0.1640944446949906 0  0.6042760701622945 0.172828907524734 0  0.6085548707439925 0.1817995994960678 0  0.6123583176357205 0.1909819325658435 0  0.6156759858539227 0.2003507385973728 0  0.6184987819006211 0.2098803383445412 0  0.6208189686880622 0.2195446118368362 0  0.6226301867455355 0.2293170699723706 0  0.6239274716502419 0.2391709271226702 0  0.6247072676344306 0.2490791745502192 0  0.203885768735257 0.3325402459548524 0  0.2015714905276826 0.3421799084407872 0  0.1977777294810124 0.3513388578120612 0  0.1925979005829864 0.3597915703383434 0  0.1861595484119405 0.3673299121842922 0  0.1786212065659918 0.373768264355338 0  0.1701684940397096 0.378948093253364 0  0.1610095446684356 0.3827418543000342 0  0.1513698821825007 0.3850561325076086 0  0.1414868670645144 0.3858339426659677 0  0.1316038519465281 0.3850561325076086 0  0.1219641894605933 0.3827418543000343 0  0.1128052400893193 0.378948093253364 0  0.1043525275630371 0.3737682643553381 0  0.09681418571708833 0.3673299121842922 0  0.09037583354604248 0.3597915703383434 0  0.08519600464801645 0.3513388578120612 0  0.08140224360134621 0.3421799084407872 0  0.07908796539377183 0.3325402459548523 0  0.07831015523541281 0.3226572308368659 0  0.07908796539377186 0.3127742157188796 0  0.08140224360134626 0.3031345532329447 0  0.08519600464801655 0.2939756038616707 0  0.0903758335460426 0.2855228913353884 0  0.0968141857
[...]
<PointData  Tensors="$\sigma$"> 
<DataArray  type="Float64"  Name="$\sigma$"  NumberOfComponents="9" format="ascii">1.5210607114391979e+02 3.3970121769166809e+01 0.0000000000000000e+00 3.3970121769167399e+01 1.1720855005940068e+04 0.0000000000000000e+00 0.0000000000000000e+00 0.0000000000000000e+00 0.0000000000000000e+00  1.3880793156892034e+03 1.1069244300194697e+02 0.0000000000000000e+00 1.1069244300194711e+02 5.7682361988865441e+03 0.0000000000000000e+00 0.0000000000000000e+00 0.0000000000000000e+00 0.0000000000000000e+00  -2.9039002956585740e+01 -2.4337587172355690e+01 0.0000000000000000e+00 -2.4337587172355665e+01 5.9472679831931173e+03 0.0000000000000000e+00 0.0000000000000000e+00 0.0000000000000000e+00 0.0000000000000000e+00  8.0609619594506761e+00 -5.1162080545146535e+00 0.0000000000000000e+00 -5.1162080545146909e+00 6.0164446375167363e+03 0.0000000000000000e+00 0.0000000000000000e+00 0.0000000000000000e+00 0.0000000000000000e+00  8.0711542305787685e+00 1.2023190528496142e+01 0.0000000000000000e+00 1.2023190528496167e+01 5.3624224962942435e+03 0.0000000000000000e+00 0.0000000000000000e+00 0.0000000000000000e+00 0.0000000000000000e+00  3.9238482038223765e+01 3.8908734654036728e+01 0.0000000000000000e+00 3.8908734654037545e+01 1.1685658601037778e+04 0.0000000000000000e+00 0.0000000000000000e+00 0.0000000000000000e+00 0.0000000000000000e+00  -1.0620966127612091e+02 3.0464162514801836e+02 0.0000000000000000e+00 3.0464162514801842e+02 8.3067866942376497e+01 0.0000000000000000e+00 0.0000000000000000e+00 0.0000000000000000e+00 0.0000000000000000e+00  6.5653210620247660e+02 3.7767189137855542e+02 0.0000000000000000e+00 3.7767189137855536e+02 1.2172051096835619e+04 0.0000000000000000e+00 0.0000000000000000e+00 0.0000000000000000e+00 0.0000000000000000e+00  9.4305030670319326e+01 -3.3141102955916841e+02 0.0000000000000000e+00 -3.3141102955916938e+02 1.1739913540849153e+04 0.0000000000000000e+00 0.0000000000000000e+00 0.0000000000000000e+00 0.0000000000000000e+00  -3.5087719496818073e+02 1.3542252894758278e+02 0.0000000000000000e+00 1.3542252894758320e+02 -2.8825898715065773e+02 0.0000000000000000e+00 0.0000000000000000e+00 0.0000000000000000e+00 0.0000000000000000e+00  -1.0461705309931673e+01 -6.5018525410051240e+01 0.0000000000000000e+00 -6.5018525410051296e+01 -4.2913240987167342e+02 0.0000000000000000e+00 0.0000000000000000e+00 0.0000000000000000e+00 0.0000000000000000e+00  1.4943483088888260e+02 4.7298974618124697e+02 0.0000000000000000e+00 4.7298974618124777e+02 6.4686399222807422e+03 0.0000000000000000e+00 0.0000000000000000e+00 0.0000000000000000e+00 0.0000000000000000e+00  5.3019345041370775e+02 -4.1295447041728650e+01 0.0000000000000000e+00 -4.1295447041729162e+01 1.2256086147376840e+04 0.0000000000000000e+00 0.0000000000000000e+00 0.0000000000000000e+00 0.0000000000000000e+00  5.2149656437680719e+01 9.5817821623535806e+01 0.0000000000000000e+00 9.5817821623535892e+01 1.1714536125579176e+04 0.0000000000000000e+00 0.0000000000000000e+00 0.0000000000000000e+00 0.0000000000000000e+00  -1.1236694483090187e+02 -2.2247698532632552e+02 0.0000000000000000e+00 -2.2247698532632450e+02 -1.4326388365316968e+03 0.0000000000000000e+00 0.0000000000000000e+00 0.0000000000000000e+00 0.0000000000000000e+00  -3.1418881010031134e+02 -2.2583957584574645e+02 0.0000000000000000e+00 -2.2583957584574677e+02 -1.3712060569524037e+03 0.0000000000000000e+00 0.0000000000000000e+00 0.0000000000000000e+00 0.0000000000000000e+00  3.8130085146918404e+01 -1.2963494585784863e+02 0.0000000000000000e+00 -1.2963494585784898e+02 7.4495345674848631e+03 0.0000000000000000e+00 0.0000000000000000e+00 0.0000000000000000e+00 0.0000000000000000e+00  1.2819477991657197e+02 1.0911841787058191e+02 0.0000000000000000e+00 1.0911841787058174e+02 9.1725960780211535e+03 0.0000000000000000e+00 0.0000000000000000e+00 0.0000000000000000e+00 0.0000000000000000e+00  5.7734265435084535e+03 4.1364457173706887e+02 0.0000000000000000e+00 4.1364457173706927e+02 1.8023671101667787e+04 0.0000000000000000e+00 0.0000000000000000e+00 0.0000000000000000e+00 0.0000000000000000e+00  9.1722592007487208e+02 -8.0922106765533485e+01 0.0000000000000000e+00 -8.0922106765532789e+01 1.3148499414708560e+04 0.0000000000000000e+00 0.0000000000000000e+00 0.0000000000000000e+00 0.0000000000000000e+00  4.5911225737994720e+01 1.7833621081794860e+02 0.0000000000000000e+00 1.7833621081794752e+02 9.1170018476715559e+03 0.0000000000000000e+00 0.0000000000000000e+00 0.0000000000000000e+00 0.0000000000000000e+00  1.2023112328819265e+02 3.4950607640004975e+01 0.0000000000000000e+00 3.4950607640005089e+01 4.4382977235622639e+03 0.0000000000000000e+00 0.0000000000000000e+00 0.0000000000000000e+00 0.0000000000000000e+00  5.9819993585836596e+02 -1.6341925924922639e+03 0.0000000000000000e+00 -1.6341925924922632e+03 7.3619174237133666e+03 0.0000000000000000e+00 0.0000000000000000e+00 0.0000000000000000e+00 0.0000000000000000e+00  -2.6602258540546677e+02 -5.3113810100953731e+02 0.0000000000000000e+00 -5.3113810100953765e+02 1.9669260410711172e+03 0.0000000000000000e+00 0.0000000000000000e+00 0.0000000000000000e+00 0.0000000000000000e+00  -2.1234007494716461e+03 1.3707202443900401e+03 0.0000000000000000e+00 1.3707202443900428e+03 -9.4502040591211573e+02 0.0000000000000000e+00 0.0000000000000000e+00 0.0000000000000000e+00 0.0000000000000000e+00  -4.6536799788098961e+03 1.6757231156419859e+03 0.0000000000000000e+00 1.6757231156419900e+03 -9.0527635551427193e+02 0.0000000000000000e+00 0.0000000000000000e+00 0.0000000000000000e+00 0.0000000000000000e+00  -3.5341448410870184e+03 9.2417810503657017e+02 0.0000000000000000e+00 9.2417810503656835e+02 -5.9769988793269522e+02 0.0000000000000000e+00 0.0000000000000000e+00 0.0000000000000000e+00 0.0000000000000000e+00  1.4989529585462876e+03 2.4374842148391936e+03 0.0000000000000000e+00 2.4374842148391940e+03 1.5440139982390301e+03 0.0000000000000000e+00 0.0000000000000000e+00 0.0000000000000000e+00 0.0000000000000000e+00  7.8548042285714000e+03 5.0556412083047853e+03 0.0000000000000000e+00 5.0556412083047853e+03 2.8075494878384834e+03 0.0000000000000000e+00 0.0000000000000000e+00 0.0000000000000000e+00 0.0000000000000000e+00  7.7824889543871268e+03 6.1093474198671747e+03 0.0000000000000000e+00 6.1093474198671802e+03 5.7116914828566778e+03 0.0000000000000000e+00 0.0000000000000000e+00 0.0000000000000000e+00 0.0000000000000000e+00  3.4468635702791162e+03 4.6872819911419856e+03 0.0000000000000000e+00 4.6872819911419929e+03 6.5592970103153211e+03 0.0000000000000000e+00 0.0000000000000000e+00 0.0000000000000000e+00 0.0000000000000000e+00  1.2288366294498558e+03 2.0588333358713658e+03 0.0000000000000000e+00 2.0588333358713680e+03 5.4441968608298630e+03 0.0000000000000000e+00 0.0000000000000000e+00 0.0000000000000000e+00 0.0000000000000000e+00  6.1650076453641852e+01 3.2884454797348593e+02 0.0000000000000000e+00 3.2884454797348599e+02 4.5779513911086206e+03 0.0000000000000000e+00 0.0000000000000000e+00 0.0000000000000000e+00 0.0000000000000000e+00  1.9233728074647468e+02 -3.5061855775236256e+02 0.0000000000000000e+00 -3.5061855775236256e+02 2.1093809624589439e+03 0.0000000000000000e+00 0.0000000000000000e+00 0.0000000000000000e+00 0.0000000000000000e+00  -2.4142321692136815e+02 2.0244145293380410e+02 0.0000000000000000e+00 2.0244145293380373e+02 1.0688715728613278e+02 0.0000000000000000e+00 0.0000000000000000e+00 0.0000000000000000e+00 0.0000000000000000e+00  -1.5069396163131439e+03 1.1172585628463594e+03 0.0000000000000000e+00 1.1172585628463621e+03 -8.5161639866648852e+02 0.0000000000000000e+00 0.0000000000000000e+00 0.0000000000000000e+00 0.0000000000000000e+00  -2.9081407703416421e+03 1.1770189914205191e+03 0.0000000000000000e+00 1.1770189914205175e+03 -7.4215853229617687e+02 0.0000000000000000e+00 0.0000000000000000e+00 0.0000000000000000e+00 0.0000000000000000e+00  -2.9938702263877190e+03 6.1545127931177467e+02 0.0000000000000000e+00 6.1545127931177421e+02 -3.8210781607903385e+02 0.0000000000000000e+00 0.0000000000000000e+00 0.0000000000000000e+00 0.0000000000000000e+00  -1.3621942840283305e+03 1.5607250415055324e+01 0.0000000000000000e+00 1.5607250415055104e+01 9.0349629721343490e+01 0.0000000000000000e+00 0.0000000000000000e+00 0.0000000000000000e+00 0.0000000000000000e+00  1.5374127723553934e+03 1.0587473121837677e+03 0.0000000000000000e+00 1.0587473121837659e+03 5.8912247800421358e+02 0.0000000000000000e+00 0.0000000000000000e+00 0.0000000000000000e+00 0.0000000000000000e+00  3.1384338299942006e+03 2.7581926965074977e+03 0.0000000000000000e+00 2.7581926965074986e+03 3.1346541914073082e+03 0.0000000000000000e+00 0.0000000000000000e+00 0.0000000000000000e+00 0.0000000000000000e+00  2.6435701546354080e+03 4.2455183673644706e+03 0.0000000000000000e+00 4.2455183673644797e+03 7.1077670131733430e+03 0.0000000000000000e+00 0.0000000000000000e+00 0.0000000000000000e+00 0.0000000000000000e+00  1.5982418462745086e+03 2.7174397653000224e+03 0.0000000000000000e+00 2.7174397653000228e+03 1.0738395740416760e+04 0.0000000000000000e+00 0.0000000000000000e+00 0.0000000000000000e+00 0.0000000000000000e+00  4.6958510542351752e+02 -3.4208676633657547e+02 0.0000000000000000e+00 -3.4208676633657575e+02 4.8416805054324423e+03 0.0000000000000000e+00 0.0000000000000000e+00 0.0000000000000000e+00 0.0000000000000000e+00  -9.4536070643567811e+01 5.5506857148153827e+01 0.0000000000000000e+00 5.5506857148153756e+01 4.2375654774610512e+03 0.0000000000000000e+00 0.0000000000000000e+00 0.0000000000000000e+00 0.0000000000000000e+00  2.8822350496180860e+02 -9.1222449653661091e+00 0.0000000000000000e+00 -9.1222449653660824e+00 3.2434455260868231e+03 0.0000000000000000e+00 0.0000000000000000e+00 0.0000000000000000e+00 0.0000000000000000e+00  -2.7136701964812850e+01 4.7087345064972105e+01 0.0000000000000000e+00 4.7087345064972070e+01 2.7259934617394792e+03 0.0000000000000000e+00 0.0000000000000000e+00 0.0000000000000000e+00 0.0000000000000000e+00  8.7970101449471485e+01 4.0425523632550011e+01 0.0000000000000000e+00 4.0425523632549996e+01 2.1532685675580765e+03 0.0000000000000000e+00 0.0000000000000000e+00 0.0000000000000000e+00 0.0000000000000000e+00  -8.2682713989114532e+01 2.8765626216333260e+01 0.0000000000000000e+00 2.8765626216333292e+01 1.6351067728548408e+03 0.0000000000000000e+00 0.0000000000000000e+00 0.0000000000000000e+00 0.0000000000000000e+00  -1.2297448324639454e+02 1.1432108528301722e+01 0.0000000000000000e+00 1.1432108528301752e+01 1.1837824703048668e+03 0.0000000000000000e+00 0.0000000000000000e+00 0.0000000000000000e+00 0.0000000000000000e+00  -2.1912812986341595e+02 8.8812462631691211e+00 0.0000000000000000e+00 8.8812462631691353e+00 7.3731074832826016e+02 0.0000000000000000e+00 0.0000000000000000e+00 0.0000000000000000e+00 0.0000000000000000e+00  -2.1913240695608391e+02 1.0271888906944154e+01 0.0000000000000000e+00 1.0271888906944135e+01 2.9620124095340884e+02 0.0000000000000000e+00 0.0000000000000000e+00 0.0000000000000000e+00 0.0000000000000000e+00  -2.6178798381197663e+02 1.6223598330508455e+01 0.0000000000000000e+00 1.6223598330508381e+01 -4.8508460474803869e+01 0.0000000000000000e+00 0.0000000000000000e+00 0.0000000000000000e+00 0.0000000000000000e+00  -3.5506778998559554e+02 1.3222362579344274e+01 0.0000000000000000e+00 1.3222362579344257e+01 -1.8617745863379417e+02 0.0000000000000000e+00 0.0000000000000000e+00 0.0000000000000000e+00 0.0000000000000000e+00  -4.3190781746968963e+02 1.3980812585265454e-01 0.0000000000000000e+00 1.3980812585267960e-01 -1.8647504363129678e+02 0.0000000000000000e+00 0.0000000000000000e+00 0.0000000000000000e+00 0.0000000000000000e+00  -4.9254228379055132e+02 3.9775084124012534e+00 0.0000000000000000e+00 3.9775084124012405e+00 -9.7911547932187261e+01 0.0000000000000000e+00 0.0000000000000000e+00 0.0000000000000000e+00 0.0000000000000000e+00  -5.3494901082758520e+02 -8.1898784426681956e+00 0.0000000000000000e+00 -8.1898784426681690e+00 7.8617066014343393e+01 0.0000000000000000e+00 0.0000000000000000e+00 0.0000000000000000e+00 0.0000000000000000e+00  -6.5455399922004165e+02 6.3199043417663390e+00 0.0000000000000000e+00 6.3199043417661684e+00 4.7221999885381604e+02 0.0000000000000000e+00 0.0000000000000000e+00 0.0000000000000000e+00 0.0000000000000000e+00  -9.6719017024996958e+02 2.4065228283069530e+01 0.0000000000000000e+00 2.4065228283069764e+01 1.0268467042406319e+03 0.0000000000000000e+00 0.0000000000000000e+00 0.0000000000000000e+00 0.0000000000000000e+00  -1.4622205891465183e+03 6.6521176515080768e+01 0.0000000000000000e+00 6.6521176515080796e+01 1.5021225194926205e+03 0.0000000000000000e+00 0.0000000000000000e+00 0.0000000000000000e+00 0.0000000000000000e+00  -1.6746317139885919e+03 -6.8757982439729744e+01 0.0000000000000000e+00 -6.8757982439729716e+01 9.8706423557023697e+02 0.0000000000000000e+00 0.0000000000000000e+00 0.0000000000000000e+00 0.0000000000000000e+00  -1.2922678790158755e+03 1.2248154088032347e+01 0.0000000000000000e+00 1.2248154088032344e+01 -1.5130226585240999e+02 0.0000000000000000e+00 0.0000000000000000e+00 0.0000000000000000e+00 0.0000000000000000e+00  -1.4774640054667125e+03 5.7341337472948432e+01 0.0000000000000000e+00 5.7341337472948574e+01 5.9290662805413626e+02 0.0000000000000000e+00 0.0000000000000000e+00 0.0000000000000000e+00 0.0000000000000000e+00  -1.2258736785099047e+03 -4.7719302000151629e+01 0.0000000000000000e+00 -4.7719302000151558e+01 1.2882582148063068e+03 0.0000000000000000e+00 0.0000000000000000e+00 0.0000000000000000e+00 0.0000000000000000e+00  -5.9032948760160969e+02 -5.4364283185341002e+01 0.0000000000000000e+00 -5.4364283185341492e+01 7.6859291739004766e+02 0.0000000000000000e+00 0.0000000000000000e+00 0.0000000000000000e+00 0.0000000000000000e+00  8.0515413119432765e+01 -2.9417124111325101e+01 0.0000000000000000e+00 -2.9417124111324888e+01 5.5377074317948916e+02 0.0000000000000000e+00 0.0000000000000000e+00 0.0000000000000000e+00 0.0000000000000000e+00  2.1418096926311776e+02 -1.7100441806916816e+01 0.0000000000000000e+00 -1.7100441806916979e+01 7.3680208618905976e+02 0.0000000000000000e+00 0.0000000000000000e+00 0.0000000000000000e+00 0.0000000000000000e+00  2.6982819164570321e+02 -1.4594685508705323e+01 0.0000000000000000e+00 -1.4594685508705274e+01 1.3620320268932971e+03 0.0000000000000000e+00 0.0000000000000000e+00 0.0000000000000000e+00 0.0000000000000000e+00  2.1221958978961459e+02 -2.9353635041141082e+01 0.0000000000000000e+00 -2.9353635041141128e+01 2.1521051035790560e+03 0.0000000000000000e+00 0.0000000000000000e+00 0.0000000000000000e+00 0.0000000000000000e+00  2.3533196082890345e+02 -2.7250342526962193e+01 0.0000000000000000e+00 -2.7250342526962147e+01 3.0923691874530286e+03 0.0000000000000000e+00 0.0000000000000000e+00 0.0000000000000000e+00 0.0000000000000000e+00  4.9013404390290845e+01 -1.8364233040462860e+01 0.0000000000000000e+00 -1.8364233040462945e+01 4.1386246001805748e+03 0.0000000000000000e+00 0.0000000000000000e+00 0.0000000000000000e+00 0.0000000000000000e+00  9.0159207723062792e+01 -2.9158854627846313e+01 0.0000000000000000e+00 -2.9158854627846353e+01 5.0676876002428780e+03 0.0000000000000000e+00 0.0000000000000000e+00 0.0000000000000000e+00 0.0000000000000000e+00  5.1298607332578445e+00 4.2129813931427179e+01 0.0000000000000000e+00 4.2129813931427201e+01 6.0641378121778525e+03 0.0000000000000000e+00 0.0000000000000000e+00 0.0000000000000000e+00 0.0000000000000000e+00  9.9987115372294755e-01 1.7046816932205907e+01 0.0000000000000000e+00 1.7046816932205981e+01 6.2781955247933702e+03 0.0000000000000000e+00 0.0000000000000000e+00 0.0000000000000000e+00 0.0000000000000000e+00  -3.2449771617728467e+00 3.3018943492526745e+01 0.0000000000000000e+00 3.3018943492527065e+01 6.4019614665176305e+03 0.0000000000000000e+00 0.0000000000000000e+00 0.0000000000000000e+00 0.0000000000000000e+00  -1.2444176575087509e+01 1.5225613601026465e+01 0.0000000000000000e+00 1.5225613601026545e+01 6.5900730477889983e+03 0.0000000000000000e+00 0.0000000000000000e+00 0.0000000000000000e+00 0.0000000000000000e+00  2.2977200349014943e+01 8.9477213859758020e+00 0.0000000000000000e+00 8.9477213859757452e+00 6.8488732814914183e+03 0.0000000000000000e+00 0.0000000000000000e+00 0.0000000000000000e+00 0.0000000000000000e+00  -5.5409375602807485e+00 6.6658704512844167e+01 0.0000000000000000e+00 6.6658704512843869e+01 6.9507153295443522e+03 0.0000000000000000e+00 0.0000000000000000e+00 0.0000000000000000e+00 0.0000000000000000e+00  -4.2527930650231546e+01 7.9856082356989759e+01 0.0000000000000000e+00 7.9856082356989418e+01 7.5449787606091732e+03 0.0000000000000000e+00 0.0000000000000000e+00 0.0000000000000000e+00 0.0000000000000000e+00  -3.0570224365804255e+00 1.4686525540080822e+02 0.0000000000000000e+00 1.4686525540080805e+02 8.2719172043327071e+03 0.0000000000000000e+00 0.0000000000000000e+00 0.0000000000000000e+00 0.0000000000000000e+00  -2.2517136585751718e+01 6.9939908980154883e+01 0.0000000000000000e+00 6.9939908980154669e+01 9.2526392927359557e+03 0.0000000000000000e+00 0.0000000000000000e+00 0.0000000000000000e+00 0.0000000000000000e+00  -4.3747743945689230e+01 -6.4990477586746692e+01 0.0000000000000000e+00 -6.4990477586746820e+01 9.4086587931175545e+03 0.0000000000000000e+00 0.0000000000000000e+00 0.0000000000000000e+00 0.0000000000000000e+00  -1.2489306934538598e+02 -3.7268606193223451e+02 0.0000000000000000e+00 -3.7268606193223428e+02 8.3991386264234006e+03 0.0000000000000000e+00 0.0000000000000000e+00 0.0000000000000000e+00 0.0000000000000000e+00  -2.2519807623947742e+02 -8.6821198116051494e+02 0.0000000000000000e+00 -8.6821198116051448e+02 6.3061449110267304e+03 0.0000000000000000e+00 0.0000000000000000e+00 0.0000000000000000e+00 0.0000000000000000e+00  3.6130042322712080e+02 8.9207100403651935e+01 0.0000000000000000e+00 8.9207100403652092e+01 2.2455982304947361e+03 0.0000000000000000e+00 0.0000000000000000e+00 0.0000000000000000e+00 0.0000000000000000e+00  2.9611700369825974e+02 7.6859871908170203e+02 0.0000000000000000e+00 7.6859871908170044e+02 2.7506788854610377e+03 0.0000000000000000e+00 0.0000000000000000e+00 0.0000000000000000e+00 0.0000000000000000e+00  4.9722111393859926e+01 5.4607622650294320e+02 0.0000000000000000e+00 5.4607622650294184e+02 8.0201153084627695e+03 0.0000000000000000e+00 0.0000000000000000e+00 0.0000000000000000e+00 0.0000000000000000e+00  2.1555103683972643e+01 3.0380436838556835e+02 0.0000000000000000e+00 3.0380436838556648e+02 1.1202309260283353e+04 0.0000000000000000e+00 0.0000000000000000e+00 0.0000000000000000e+00 0.0000000000000000e+00  8.8941348279355793e+01 -5.7075238677195091e+02 0.0000000000000000e+00 -5.7075238677195262e+02 1.1878493561644769e+04 0.0000000000000000e+00 0.0000000000000000e+00 0.0000000000000000e+00 0.0000000000000000e+00  -4.8740095157042771e+02 -2.4706467697456580e+02 0.0000000000000000e+00 -2.4706467697456628e+02 7.2035937832116824e+03 0.0000000000000000e+00 0.0000000000000000e+00 0.0000000000000000e+00 0.0000000000000000e+00  -3.0781873886274258e+02 3.8521437926225485e+02 0.0000000000000000e+00 3.8521437926225508e+02 9.7057069850739535e+03 0.0000000000000000e+00 0.0000000000000000e+00 0.0000000000000000e+00 0.0000000000000000e+00  5.2452384587597265e+01 -2.4890354810667407e+02 0.0000000000000000e+00 -2.4890354810667350e+02 9.2191193160988059e+03 0.0000000000000000e+00 0.0000000000000000e+00 0.0000000000000000e+00 0.0000000000000000e+00  -8.8080368923118101e+01 -2.9231462249631227e+02 0.0000000000000000e+00 -2.9231462249631267e+02 7.0063216242503504e+03 0.0000000000000000e+00 0.0000000000000000e+00 0.0000000000000000e+00 0.0000000000000000e+00  7.5461763756007016e+01 -6.9200882097594478e+00 0.0000000000000000e+00 -6.9200882097596628e+00 6.4669420301847267e+03 0.0000000000000000e+00 0.0000000000000000e+00 0.0000000000000000e+00 0.0000000000000000e+00  -5.6056562762968746e+01 -1.8859620458935439e+01 0.0000000000000000e+00 -1.8859620458935400e+01 6.2558157942312537e+03 0.0000000000000000e+00 0.0000000000000000e+00 0.0000000000000000e+00 0.0000000000000000