<?xml version="1.0"?>
<VTKFile type="UnstructuredGrid"  version="0.1"  >
<UnstructuredGrid>
<Piece  NumberOfPoints="3879" NumberOfCells="6881">
<Points>
<DataArray  type="Float64"  NumberOfComponents="3"  format="ascii">0.207524190028372 0.2122422770132111 0  0 0 0  1 0 0  0 1 0  1 1 0  0.6249674373315121 0.2590146544375328 0  0.204663578893616 0.322657230836866 0  0.09605577522599912 0.4018360776629776 0  0.671351124618251 0.08738059142081528 0  0.7842102907526436 0.1666439122351055 0  0.8512483166984784 0.1985391006160637 0  0.6418797837909295 0.4423157172830166 0  0.9292488447973215 0.3869277868069776 0  0.3197896119137055 0.5509935221980964 0  0.3979283685568406 0.5079871620336583 0  0.1572503457993085 0.7345153245035532 0  0.3032914287999163 0.7872981443735918 0  0.3549464687598876 0.8870324161721976 0  0.9691791685505482 0.5159450047798622 0  0.9447564590470373 0.6146164845729313 0  0.7687603548175107 0.7176858127488035 0  0.8926159261971183 0.7422924070424508 0  0.2061587782631535 0.2217389244366831 0  0.2021731605082994 0.2304662099646423 0  0.1958902278109265 0.2377171008267789 0  0.1878189860121365 0.2429041729681512 0  0.1786133191209442 0.2456072006525708 0  0.1690190155206647 0.2456072006525708 0  0.1598133486294724 0.2429041729681512 0  0.1517421068306824 0.2377171008267789 0  0.1454591741333096 0.2304662099646422 0  0.1414735563784554 0.221738924436683 0  0.1401081446132369 0.212242277013211 0  0.1414735563784555 0.202745629589739 0  0.1454591741333096 0.1940183440617798 0  0.1517421068306825 0.1867674531996431 0  0.1598133486294725 0.1815803810582709 0  0.1690190155206649 0.1788773533738513 0  0.1786133191209443 0.1788773533738514 0  0.1878189860121367 0.181580381058271 0  0.1958902278109266 0.1867674531996433 0  0.2021731605082994 0.19401834406178 0  0.2061587782631535 0.2027456295897391 0  0.03333333333333333 0 0  0.06666666666666667 0 0  0.1 0 0  0.1333333333333333 0 0  0.1666666666666667 0 0  0.2 0 0  0.2333333333333333 0 0  0.2666666666666667 0 0  0.3 0 0  0.3333333333333333 0 0  0.3666666666666666 0 0  0.4 0 0  0.4333333333333333 0 0  0.4666666666666667 0 0  0.5 0 0  0.5333333333333333 0 0  0.5666666666666667 0 0  0.6 0 0  0.6333333333333333 0 0  0.6666666666666666 0 0  0.7 0 0  0.7333333333333333 0 0  0.7666666666666667 0 0  0.8 0 0  0.8333333333333334 0 0  0.8666666666666667 0 0  0.9 0 0  0.9333333333333333 0 0  0.9666666666666667 0 0  0 0.9666666666666667 0  0 0.9333333333333333 0  0 0.9 0  0 0.8666666666666667 0  0 0.8333333333333334 0  0 0.8 0  0 0.7666666666666666 0  0 0.7333333333333334 0  0 0.7 0  0 0.6666666666666667 0  0 0.6333333333333333 0  0 0.6 0  0 0.5666666666666667 0  0 0.5333333333333333 0  0 0.5 0  0 0.4666666666666667 0  0 0.4333333333333333 0  0 0.4 0  0 0.3666666666666667 0  0 0.3333333333333334 0  0 0.3 0  0 0.2666666666666667 0  0 0.2333333333333333 0  0 0.2 0  0 0.1666666666666666 0  0 0.1333333333333333 0  0 0.09999999999999998 0  0 0.06666666666666665 0  0 0.03333333333333333 0  1 0.03333333333333333 0  1 0.06666666666666667 0  1 0.1 0  1 0.1333333333333333 0  1 0.1666666666666667 0  1 0.2 0  1 0.2333333333333333 0  1 0.2666666666666667 0  1 0.3 0  1 0.3333333333333333 0  1 0.3666666666666666 0  1 0.4 0  1 0.4333333333333333 0  1 0.4666666666666667 0  1 0.5 0  1 0.5333333333333333 0  1 0.5666666666666667 0  1 0.6 0  1 0.6333333333333333 0  1 0.6666666666666666 0  1 0.7 0  1 0.7333333333333333 0  1 0.7666666666666667 0  1 0.8 0  1 0.8333333333333334 0  1 0.8666666666666667 0  1 0.9 0  1 0.9333333333333333 0  1 0.9666666666666667 0  0.9666666666666667 1 0  0.9333333333333333 1 0  0.9 1 0  0.8666666666666667 1 0  0.8333333333333334 1 0  0.8 1 0  0.7666666666666666 1 0  0.7333333333333334 1 0  0.7 1 0  0.6666666666666667 1 0  0.6333333333333333 1 0  0.6 1 0  0.5666666666666667 1 0  0.5333333333333333 1 0  0.5 1 0  0.4666666666666667 1 0  0.4333333333333333 1 0  0.4 1 0  0.3666666666666667 1 0  0.3333333333333334 1 0  0.3 1 0  0.2666666666666667 1 0  0.2333333333333333 1 0  0.2 1 0  0.1666666666666666 1 0  0.1333333333333333 1 0  0.09999999999999998 1 0  0.06666666666666665 1 0  0.03333333333333333 1 0  0.6247072676344306 0.2689501343248463 0  0.6239274716502419 0.2788583817523955 0  0.6226301867455355 0.2887122389026952 0  0.6208189686880621 0.2984846970382296 0  0.6184987819006211 0.3081489705305245 0  0.6156759858539226 0.317678570277693 0  0.6123583176357204 0.3270473763092224 0  0.6085548707439923 0.3362297093789981 0  0.6042760701622942 0.3452004013503318 0  0.5995336437856049 0.3539348641800754 0  0.5943405902749808 0.3624091573127375 0  0.5887111434291297 0.3706000532998825 0  0.582660733170558 0.3784851014649517 0  0.5762059432532257 0.3860426894390078 0  0.5693644658076293 0.3932521023987353 0  0.5621550528479018 0.4000935798443317 0  0.5545974648738458 0.4065483697616639 0  0.5467124167087765 0.4125987800202355 0  0.5385215207216315 0.4182282268660866 0  0.5300472275889694 0.4234212803767108 0  0.5213127647592257 0.4281637067534002 0  0.512342072787892 0.4324425073350981 0  0.5031597397181163 0.4362459542268262 0  0.493790933686587 0.4395636224450283 0  0.4842613339394185 0.4423864184917269 0  0.4745970604471235 0.4447066052791678 0  0.4648246023115891 0.4465178233366412 0  0.4549707451612894 0.4478151082413475 0  0.4450624977337403 0.4485949042255363 0  0.4351270178464268 0.4488550739226177 0  0.4251915379591132 0.4485949042255363 0  0.4152832905315641 0.4478151082413475 0  0.4054294333812644 0.4465178233366411 0  0.39565697524573 0.4447066052791677 0  0.385992701753435 0.4423864184917267 0  0.3764631020062665 0.4395636224450281 0  0.3670942959747371 0.4362459542268259 0  0.3579119629049616 0.4324425073350978 0  0.3489412709336278 0.4281637067533998 0  0.3402068081038843 0.4234212803767103 0  0.3317325149712221 0.4182282268660862 0  0.3235416189840771 0.412598780020235 0  0.3156565708190078 0.4065483697616634 0  0.3080989828449519 0.4000935798443311 0  0.3008895698852244 0.3932521023987346 0  0.2940480924396279 0.3860426894390071 0  0.2875933025222958 0.3784851014649511 0  0.2815428922637242 0.3706000532998818 0  0.2759134454178731 0.3624091573127368 0  0.2707203919072489 0.3539348641800746 0  0.2659779655305596 0.3452004013503309 0  0.2616991649488616 0.3362297093789972 0  0.2578957180571336 0.3270473763092215 0  0.2545780498389315 0.3176785702776921 0  0.251755253792233 0.3081489705305236 0  0.249435067004792 0.2984846970382286 0  0.2476238489473186 0.2887122389026941 0  0.2463265640426123 0.2788583817523945 0  0.2455467680584236 0.2689501343248454 0  0.2452865983613423 0.2590146544375318 0  0.2455467680584237 0.2490791745502182 0  0.2463265640426126 0.2391709271226692 0  0.247623848947319 0.2293170699723696 0  0.2494350670047924 0.2195446118368351 0  0.2517552537922335 0.2098803383445402 0  0.2545780498389321 0.2003507385973717 0  0.2578957180571343 0.1909819325658423 0  0.2616991649488624 0.1817995994960667 0  0.2659779655305604 0.172828907524733 0  0.2707203919072498 0.1640944446949895 0  0.2759134454178741 0.1556201515623273 0  0.2815428922637251 0.1474292555751825 0  0.2875933025222969 0.1395442074101132 0  0.2940480924396291 0.1319866194360571 0  0.3008895698852256 0.1247772064763297 0  0.3080989828449531 0.1179357290307334 0  0.3156565708190092 0.1114809391134012 0  0.3235416189840785 0.1054305288548295 0  0.3317325149712236 0.09980108200897844 0  0.3402068081038856 0.0946080284983544 0  0.3489412709336291 0.08986560212166514 0  0.357911962904963 0.08558680153996717 0  0.3670942959747386 0.08178335464823916 0  0.3764631020062678 0.07846568643003712 0  0.3859927017534364 0.0756428903833386 0  0.3956569752457313 0.0733227035958976 0  0.4054294333812659 0.07151148553842429 0  0.4152832905315654 0.07021420063371797 0  0.4251915379591144 0.0694344046495293 0  0.435127017846428 0.0691742349524479 0  0.4450624977337415 0.06943440464952938 0  0.4549707451612905 0.07021420063371814 0  0.4648246023115901 0.07151148553842454 0  0.4745970604471245 0.07332270359589793 0  0.4842613339394195 0.07564289038333902 0  0.4937909336865879 0.07846568643003757 0  0.5031597397181173 0.0817833546482398 0  0.5123420727878929 0.08558680153996781 0  0.5213127647592265 0.08986560212166581 0  0.53004722758897 0.0946080284983552 0  0.5385215207216321 0.09980108200897933 0  0.5467124167087771 0.1054305288548305 0  0.5545974648738462 0.1114809391134021 0  0.5621550528479023 0.1179357290307343 0  0.5693644658076298 0.1247772064763308 0  0.576205943253226 0.1319866194360582 0  0.5826607331705582 0.1395442074101142 0  0.5887111434291299 0.1474292555751835 0  0.594340590274981 0.1556201515623285 0  0.5995336437856051 0.1640944446949906 0  0.6042760701622945 0.172828907524734 0  0.6085548707439925 0.1817995994960678 0  0.6123583176357205 0.1909819325658435 0  0.6156759858539227 0.2003507385973728 0  0.6184987819006211 0.2098803383445412 0  0.6208189686880622 0.2195446118368362 0  0.6226301867455355 0.2293170699723706 0  0.6239274716502419 0.2391709271226702 0  0.6247072676344306 0.2490791745502192 0  0.203885768735257 0.3325402459548524 0  0.2015714905276826 0.3421799084407872 0  0.1977777294810124 0.3513388578120612 0  0.1925979005829864 0.3597915703383434 0  0.1861595484119405 0.3673299121842922 0  0.1786212065659918 0.373768264355338 0  0.1701684940397096 0.378948093253364 0  0.1610095446684356 0.3827418543000342 0  0.1513698821825007 0.3850561325076086 0  0.1414868670645144 0.3858339426659677 0  0.1316038519465281 0.3850561325076086 0  0.1219641894605933 0.3827418543000343 0  0.1128052400893193 0.378948093253364 0  0.1043525275630371 0.3737682643553381 0  0.09681418571708833 0.3673299121842922 0  0.09037583354604248 0.3597915703383434 0  0.08519600464801645 0.3513388578120612 0  0.08140224360134621 0.3421799084407872 0  0.07908796539377183 0.3325402459548523 0  0.07831015523541281 0.3226572308368659 0  0.07908796539377186 0.3127742157188796 0  0.08140224360134626 0.3031345532329447 0  0.08519600464801655 0.2939756038616707 0  0.0903758335460426 0.2855228913353884 0  0.0968141857
[...]
<PointData  Tensors="$\sigma$"> 
<DataArray  type="Float64"  Name="$\sigma$"  NumberOfComponents="9" format="ascii">1.1006047359332145e+02 3.3635820267572832e+01 0.0000000000000000e+00 3.3635820267572626e+01 6.3334863632767456e+03 0.0000000000000000e+00 0.0000000000000000e+00 0.0000000000000000e+00 0.0000000000000000e+00  7.7287817143659584e+02 7.8558443947627552e+01 0.0000000000000000e+00 7.8558443947627580e+01 3.1788920920444616e+03 0.0000000000000000e+00 0.0000000000000000e+00 0.0000000000000000e+00 0.0000000000000000e+00  -1.2431781865958918e+01 -1.2469414583358686e+01 0.0000000000000000e+00 -1.2469414583358683e+01 3.3964400440375707e+03 0.0000000000000000e+00 0.0000000000000000e+00 0.0000000000000000e+00 0.0000000000000000e+00  6.7809908913717329e+00 -3.6704009951275842e+00 0.0000000000000000e+00 -3.6704009951276002e+00 3.2749108856610460e+03 0.0000000000000000e+00 0.0000000000000000e+00 0.0000000000000000e+00 0.0000000000000000e+00  7.4459535230963567e+00 6.6226025599032647e+00 0.0000000000000000e+00 6.6226025599032639e+00 3.1103943139316984e+03 0.0000000000000000e+00 0.0000000000000000e+00 0.0000000000000000e+00 0.0000000000000000e+00  6.3283319123824100e+01 6.4001125881690143e+01 0.0000000000000000e+00 6.4001125881690243e+01 6.3039098628240990e+03 0.0000000000000000e+00 0.0000000000000000e+00 0.0000000000000000e+00 0.0000000000000000e+00  -5.3816028375457684e+01 1.6148125109320969e+02 0.0000000000000000e+00 1.6148125109321001e+02 2.2700443246329118e+02 0.0000000000000000e+00 0.0000000000000000e+00 0.0000000000000000e+00 0.0000000000000000e+00  4.6985829410174773e+02 3.1544787770030172e+02 0.0000000000000000e+00 3.1544787770030172e+02 6.9079404980399795e+03 0.0000000000000000e+00 0.0000000000000000e+00 0.0000000000000000e+00 0.0000000000000000e+00  2.0572820801792417e+02 -2.5943658282322713e+02 0.0000000000000000e+00 -2.5943658282322707e+02 6.3240742650154189e+03 0.0000000000000000e+00 0.0000000000000000e+00 0.0000000000000000e+00 0.0000000000000000e+00  -1.2725917707752336e+02 2.7862012726277797e+01 0.0000000000000000e+00 2.7862012726278184e+01 -9.9621337779511734e+01 0.0000000000000000e+00 0.0000000000000000e+00 0.0000000000000000e+00 0.0000000000000000e+00  5.0063234095922382e-01 -1.8638483204615838e+01 0.0000000000000000e+00 -1.8638483204615724e+01 -3.2905487668279441e+01 0.0000000000000000e+00 0.0000000000000000e+00 0.0000000000000000e+00 0.0000000000000000e+00  1.0174010323134706e+02 2.9251896022762668e+02 0.0000000000000000e+00 2.9251896022762725e+02 3.5384827220483603e+03 0.0000000000000000e+00 0.0000000000000000e+00 0.0000000000000000e+00 0.0000000000000000e+00  -4.2240242445127244e+01 5.8964883784721671e+01 0.0000000000000000e+00 5.8964883784721671e+01 8.1536928068841307e+03 0.0000000000000000e+00 0.0000000000000000e+00 0.0000000000000000e+00 0.0000000000000000e+00  4.7720723518639062e+01 7.1099206353469398e+01 0.0000000000000000e+00 7.1099206353469569e+01 6.5121697441071492e+03 0.0000000000000000e+00 0.0000000000000000e+00 0.0000000000000000e+00 0.0000000000000000e+00  -5.6372215429903001e+01 -1.4581117434427676e+02 0.0000000000000000e+00 -1.4581117434427696e+02 -7.7601803676583222e+02 0.0000000000000000e+00 0.0000000000000000e+00 0.0000000000000000e+00 0.0000000000000000e+00  -1.0644601179638943e+02 -1.2173269344698269e+02 0.0000000000000000e+00 -1.2173269344698275e+02 -2.8198676722435619e+02 0.0000000000000000e+00 0.0000000000000000e+00 0.0000000000000000e+00 0.0000000000000000e+00  3.9205298694816669e+01 -1.1540121423361607e+02 0.0000000000000000e+00 -1.1540121423361622e+02 4.1083146742725630e+03 0.0000000000000000e+00 0.0000000000000000e+00 0.0000000000000000e+00 0.0000000000000000e+00  1.0947533062676540e+02 8.1682173787189399e+01 0.0000000000000000e+00 8.1682173787189640e+01 4.8986877032846451e+03 0.0000000000000000e+00 0.0000000000000000e+00 0.0000000000000000e+00 0.0000000000000000e+00  1.7089090997098185e+03 1.0704566800056846e+03 0.0000000000000000e+00 1.0704566800056846e+03 1.5026338331423591e+04 0.0000000000000000e+00 0.0000000000000000e+00 0.0000000000000000e+00 0.0000000000000000e+00  1.9510752277623945e+02 -2.1216549569199864e+02 0.0000000000000000e+00 -2.1216549569199864e+02 7.7035629649714101e+03 0.0000000000000000e+00 0.0000000000000000e+00 0.0000000000000000e+00 0.0000000000000000e+00  3.7887355119922972e+01 1.1047813723040113e+02 0.0000000000000000e+00 1.1047813723040085e+02 4.8169768267270256e+03 0.0000000000000000e+00 0.0000000000000000e+00 0.0000000000000000e+00 0.0000000000000000e+00  1.0316582781730087e+02 4.6380858513256635e+00 0.0000000000000000e+00 4.6380858513257950e+00 2.6219821860467091e+03 0.0000000000000000e+00 0.0000000000000000e+00 0.0000000000000000e+00 0.0000000000000000e+00  2.9183469079036274e+02 -7.9663247253708289e+02 0.0000000000000000e+00 -7.9663247253708289e+02 3.9983437691484164e+03 0.0000000000000000e+00 0.0000000000000000e+00 0.0000000000000000e+00 0.0000000000000000e+00  -1.8661460301628279e+02 -2.4459394942542929e+02 0.0000000000000000e+00 -2.4459394942542926e+02 1.1174046191075529e+03 0.0000000000000000e+00 0.0000000000000000e+00 0.0000000000000000e+00 0.0000000000000000e+00  -1.2224835768285839e+03 7.6946105400962756e+02 0.0000000000000000e+00 7.6946105400962745e+02 -4.9597790009678073e+02 0.0000000000000000e+00 0.0000000000000000e+00 0.0000000000000000e+00 0.0000000000000000e+00  -2.4079060289305057e+03 8.5751775487798159e+02 0.0000000000000000e+00 8.5751775487798193e+02 -5.2394153600832999e+02 0.0000000000000000e+00 0.0000000000000000e+00 0.0000000000000000e+00 0.0000000000000000e+00  -1.9005516212810890e+03 5.4118655377222490e+02 0.0000000000000000e+00 5.4118655377222387e+02 -3.1133490189183607e+02 0.0000000000000000e+00 0.0000000000000000e+00 0.0000000000000000e+00 0.0000000000000000e+00  8.4424397564750279e+02 1.3187181264563858e+03 0.0000000000000000e+00 1.3187181264563867e+03 8.2994826485404747e+02 0.0000000000000000e+00 0.0000000000000000e+00 0.0000000000000000e+00 0.0000000000000000e+00  4.0617547910498101e+03 2.6573386046880564e+03 0.0000000000000000e+00 2.6573386046880560e+03 1.5682141608487066e+03 0.0000000000000000e+00 0.0000000000000000e+00 0.0000000000000000e+00 0.0000000000000000e+00  4.0743344816345416e+03 3.1962003783687596e+03 0.0000000000000000e+00 3.1962003783687614e+03 2.9678656892991985e+03 0.0000000000000000e+00 0.0000000000000000e+00 0.0000000000000000e+00 0.0000000000000000e+00  1.9031697628859515e+03 2.4730787300109696e+03 0.0000000000000000e+00 2.4730787300109691e+03 3.4344038130685735e+03 0.0000000000000000e+00 0.0000000000000000e+00 0.0000000000000000e+00 0.0000000000000000e+00  6.9275080659406660e+02 1.1005635603564822e+03 0.0000000000000000e+00 1.1005635603564831e+03 2.8760323365001136e+03 0.0000000000000000e+00 0.0000000000000000e+00 0.0000000000000000e+00 0.0000000000000000e+00  7.6565841526940005e+01 1.9004728760989275e+02 0.0000000000000000e+00 1.9004728760989249e+02 2.4761170212734937e+03 0.0000000000000000e+00 0.0000000000000000e+00 0.0000000000000000e+00 0.0000000000000000e+00  1.1045096682328233e+02 -2.0489627411489940e+02 0.0000000000000000e+00 -2.0489627411489928e+02 1.2279325089685556e+03 0.0000000000000000e+00 0.0000000000000000e+00 0.0000000000000000e+00 0.0000000000000000e+00  -9.8873525139553848e+01 7.1703833712825414e+01 0.0000000000000000e+00 7.1703833712825300e+01 1.5126508738418030e+02 0.0000000000000000e+00 0.0000000000000000e+00 0.0000000000000000e+00 0.0000000000000000e+00  -7.9341175124460005e+02 5.5152236646524659e+02 0.0000000000000000e+00 5.5152236646524693e+02 -3.9146147913770898e+02 0.0000000000000000e+00 0.0000000000000000e+00 0.0000000000000000e+00 0.0000000000000000e+00  -1.5202028452564925e+03 5.9143639049698027e+02 0.0000000000000000e+00 5.9143639049697913e+02 -3.7627871215305578e+02 0.0000000000000000e+00 0.0000000000000000e+00 0.0000000000000000e+00 0.0000000000000000e+00  -1.5803937180159817e+03 3.3236263652398850e+02 0.0000000000000000e+00 3.3236263652398816e+02 -2.2057081154323612e+02 0.0000000000000000e+00 0.0000000000000000e+00 0.0000000000000000e+00 0.0000000000000000e+00  -7.1606665014430894e+02 3.9379589717509283e+01 0.0000000000000000e+00 3.9379589717508978e+01 4.6135095486879223e+01 0.0000000000000000e+00 0.0000000000000000e+00 0.0000000000000000e+00 0.0000000000000000e+00  7.9270280490588971e+02 5.9148077831570458e+02 0.0000000000000000e+00 5.9148077831570470e+02 3.6341797010735934e+02 0.0000000000000000e+00 0.0000000000000000e+00 0.0000000000000000e+00 0.0000000000000000e+00  1.6513923782550678e+03 1.4829844025451607e+03 0.0000000000000000e+00 1.4829844025451614e+03 1.7662984250328366e+03 0.0000000000000000e+00 0.0000000000000000e+00 0.0000000000000000e+00 0.0000000000000000e+00  1.4272515400377431e+03 2.2775302621132128e+03 0.0000000000000000e+00 2.2775302621132109e+03 3.9118291587828180e+03 0.0000000000000000e+00 0.0000000000000000e+00 0.0000000000000000e+00 0.0000000000000000e+00  9.2555794947788752e+02 1.4305918792894524e+03 0.0000000000000000e+00 1.4305918792894536e+03 5.7715613826919798e+03 0.0000000000000000e+00 0.0000000000000000e+00 0.0000000000000000e+00 0.0000000000000000e+00  2.8478269585675395e+02 -1.8180178003928850e+02 0.0000000000000000e+00 -1.8180178003928845e+02 2.6680983246803012e+03 0.0000000000000000e+00 0.0000000000000000e+00 0.0000000000000000e+00 0.0000000000000000e+00  -5.8142286078541339e+01 2.2372300419431518e+01 0.0000000000000000e+00 2.2372300419431511e+01 2.3318508118888840e+03 0.0000000000000000e+00 0.0000000000000000e+00 0.0000000000000000e+00 0.0000000000000000e+00  1.5203391141990426e+02 4.3346455298621178e+00 0.0000000000000000e+00 4.3346455298621338e+00 1.8016017278964434e+03 0.0000000000000000e+00 0.0000000000000000e+00 0.0000000000000000e+00 0.0000000000000000e+00  7.1799610150454409e+00 2.0798190790373525e+01 0.0000000000000000e+00 2.0798190790373539e+01 1.5212519328553042e+03 0.0000000000000000e+00 0.0000000000000000e+00 0.0000000000000000e+00 0.0000000000000000e+00  5.5161191683368209e+01 2.5122675076464745e+01 0.0000000000000000e+00 2.5122675076464731e+01 1.2009904569207588e+03 0.0000000000000000e+00 0.0000000000000000e+00 0.0000000000000000e+00 0.0000000000000000e+00  -2.1579114472883163e+01 1.6218129608986516e+01 0.0000000000000000e+00 1.6218129608986541e+01 9.1126983946055418e+02 0.0000000000000000e+00 0.0000000000000000e+00 0.0000000000000000e+00 0.0000000000000000e+00  -4.6489282770023159e+01 7.7377359255329976e+00 0.0000000000000000e+00 7.7377359255329905e+00 6.5936818805359690e+02 0.0000000000000000e+00 0.0000000000000000e+00 0.0000000000000000e+00 0.0000000000000000e+00  -9.3136331433530998e+01 6.0468529054390165e+00 0.0000000000000000e+00 6.0468529054390103e+00 4.1823840046584223e+02 0.0000000000000000e+00 0.0000000000000000e+00 0.0000000000000000e+00 0.0000000000000000e+00  -8.9560720362113145e+01 6.4270243749830618e+00 0.0000000000000000e+00 6.4270243749830538e+00 1.7510015144494881e+02 0.0000000000000000e+00 0.0000000000000000e+00 0.0000000000000000e+00 0.0000000000000000e+00  -1.0809517342041478e+02 9.7261289885758000e+00 0.0000000000000000e+00 9.7261289885757858e+00 -1.8841348803994794e+01 0.0000000000000000e+00 0.0000000000000000e+00 0.0000000000000000e+00 0.0000000000000000e+00  -1.5602055790466582e+02 7.7367842277426977e+00 0.0000000000000000e+00 7.7367842277426959e+00 -9.3877803887895169e+01 0.0000000000000000e+00 0.0000000000000000e+00 0.0000000000000000e+00 0.0000000000000000e+00  -1.9549719578628364e+02 2.0016253041656387e-01 0.0000000000000000e+00 2.0016253041657153e-01 -9.4183271177498312e+01 0.0000000000000000e+00 0.0000000000000000e+00 0.0000000000000000e+00 0.0000000000000000e+00  -2.2742037540620206e+02 1.9875918337172085e+00 0.0000000000000000e+00 1.9875918337172080e+00 -4.6604562114392444e+01 0.0000000000000000e+00 0.0000000000000000e+00 0.0000000000000000e+00 0.0000000000000000e+00  -2.4843266685100784e+02 -4.2744188574567969e+00 0.0000000000000000e+00 -4.2744188574567685e+00 4.3772080030228310e+01 0.0000000000000000e+00 0.0000000000000000e+00 0.0000000000000000e+00 0.0000000000000000e+00  -3.1520517857641187e+02 4.4502706487989308e+00 0.0000000000000000e+00 4.4502706487988108e+00 2.5170329477752875e+02 0.0000000000000000e+00 0.0000000000000000e+00 0.0000000000000000e+00 0.0000000000000000e+00  -4.7123425432095337e+02 1.7091444385016842e+01 0.0000000000000000e+00 1.7091444385016757e+01 5.4141848957152422e+02 0.0000000000000000e+00 0.0000000000000000e+00 0.0000000000000000e+00 0.0000000000000000e+00  -7.3817557229864815e+02 3.6332103087684430e+01 0.0000000000000000e+00 3.6332103087684430e+01 7.8564216939126368e+02 0.0000000000000000e+00 0.0000000000000000e+00 0.0000000000000000e+00 0.0000000000000000e+00  -8.4413286709536260e+02 -3.7511632286546764e+01 0.0000000000000000e+00 -3.7511632286546728e+01 5.2275872750707651e+02 0.0000000000000000e+00 0.0000000000000000e+00 0.0000000000000000e+00 0.0000000000000000e+00  -6.4049708026243036e+02 3.5586611710283638e+00 0.0000000000000000e+00 3.5586611710283487e+00 -5.9597007232763147e+01 0.0000000000000000e+00 0.0000000000000000e+00 0.0000000000000000e+00 0.0000000000000000e+00  -7.4338660869591206e+02 3.2045490680262624e+01 0.0000000000000000e+00 3.2045490680262702e+01 3.3960886649684619e+02 0.0000000000000000e+00 0.0000000000000000e+00 0.0000000000000000e+00 0.0000000000000000e+00  -6.1392140047919702e+02 -2.2634097899877645e+01 0.0000000000000000e+00 -2.2634097899877776e+01 6.9493836073880038e+02 0.0000000000000000e+00 0.0000000000000000e+00 0.0000000000000000e+00 0.0000000000000000e+00  -2.7020268875653625e+02 -3.3252290514816060e+01 0.0000000000000000e+00 -3.3252290514815932e+01 4.2047496262730851e+02 0.0000000000000000e+00 0.0000000000000000e+00 0.0000000000000000e+00 0.0000000000000000e+00  8.1938372036344404e+01 -1.7648791832760221e+01 0.0000000000000000e+00 -1.7648791832760203e+01 3.1896738189139603e+02 0.0000000000000000e+00 0.0000000000000000e+00 0.0000000000000000e+00 0.0000000000000000e+00  1.5024241986075918e+02 -1.2874923688143529e+01 0.0000000000000000e+00 -1.2874923688143534e+01 4.4629674619596796e+02 0.0000000000000000e+00 0.0000000000000000e+00 0.0000000000000000e+00 0.0000000000000000e+00  1.7000986876919765e+02 -9.5085974625937943e+00 0.0000000000000000e+00 -9.5085974625937872e+00 8.0724962258123412e+02 0.0000000000000000e+00 0.0000000000000000e+00 0.0000000000000000e+00 0.0000000000000000e+00  1.3368175299877387e+02 -2.0727222448491588e+01 0.0000000000000000e+00 -2.0727222448491595e+01 1.2639584063310331e+03 0.0000000000000000e+00 0.0000000000000000e+00 0.0000000000000000e+00 0.0000000000000000e+00  1.3526811005490256e+02 -1.6773089173303735e+01 0.0000000000000000e+00 -1.6773089173303699e+01 1.7960082523848137e+03 0.0000000000000000e+00 0.0000000000000000e+00 0.0000000000000000e+00 0.0000000000000000e+00  3.2904126825503866e+01 -1.1503793986015401e+01 0.0000000000000000e+00 -1.1503793986015413e+01 2.3938715401764011e+03 0.0000000000000000e+00 0.0000000000000000e+00 0.0000000000000000e+00 0.0000000000000000e+00  5.1088924014080980e+01 -1.6947481743624632e+01 0.0000000000000000e+00 -1.6947481743624650e+01 2.9003057223224878e+03 0.0000000000000000e+00 0.0000000000000000e+00 0.0000000000000000e+00 0.0000000000000000e+00  2.1111839435403740e-01 2.5232313907836176e+01 0.0000000000000000e+00 2.5232313907836168e+01 3.3116579470743513e+03 0.0000000000000000e+00 0.0000000000000000e+00 0.0000000000000000e+00 0.0000000000000000e+00  2.2719715837026313e+00 7.3739173030598559e+00 0.0000000000000000e+00 7.3739173030598790e+00 3.4209207645963806e+03 0.0000000000000000e+00 0.0000000000000000e+00 0.0000000000000000e+00 0.0000000000000000e+00  -3.8147451430492896e+00 2.2928878533756357e+01 0.0000000000000000e+00 2.2928878533756379e+01 3.4878175251839198e+03 0.0000000000000000e+00 0.0000000000000000e+00 0.0000000000000000e+00 0.0000000000000000e+00  -3.8105616991510542e+00 7.5846238860196920e+00 0.0000000000000000e+00 7.5846238860197301e+00 3.5923294890207735e+03 0.0000000000000000e+00 0.0000000000000000e+00 0.0000000000000000e+00 0.0000000000000000e+00  8.3563515722819961e+00 7.8587043133251582e+00 0.0000000000000000e+00 7.8587043133251502e+00 3.7182075108451950e+03 0.0000000000000000e+00 0.0000000000000000e+00 0.0000000000000000e+00 0.0000000000000000e+00  -2.1883900678867905e+00 3.0793929910205954e+01 0.0000000000000000e+00 3.0793929910205776e+01 3.7611729194118229e+03 0.0000000000000000e+00 0.0000000000000000e+00 0.0000000000000000e+00 0.0000000000000000e+00  -1.9217416577589770e+01 4.2247299616484547e+01 0.0000000000000000e+00 4.2247299616484419e+01 4.0511997872727593e+03 0.0000000000000000e+00 0.0000000000000000e+00 0.0000000000000000e+00 0.0000000000000000e+00  1.3936827939735294e-01 8.0948681627962742e+01 0.0000000000000000e+00 8.0948681627962941e+01 4.3989256814187256e+03 0.0000000000000000e+00 0.0000000000000000e+00 0.0000000000000000e+00 0.0000000000000000e+00  -2.2549178981318494e+01 2.5665636335339876e+01 0.0000000000000000e+00 2.5665636335339915e+01 4.8936131868948805e+03 0.0000000000000000e+00 0.0000000000000000e+00 0.0000000000000000e+00 0.0000000000000000e+00  -4.9075384472632763e+01 -7.3380650744650652e+01 0.0000000000000000e+00 -7.3380650744650666e+01 4.8028196661311276e+03 0.0000000000000000e+00 0.0000000000000000e+00 0.0000000000000000e+00 0.0000000000000000e+00  -7.9449751278275642e+01 -2.8566621450404483e+02 0.0000000000000000e+00 -2.8566621450404477e+02 4.0905577679665689e+03 0.0000000000000000e+00 0.0000000000000000e+00 0.0000000000000000e+00 0.0000000000000000e+00  -4.6456770371663815e+01 -3.9098603319307688e+02 0.0000000000000000e+00 -3.9098603319307711e+02 2.9572665146860395e+03 0.0000000000000000e+00 0.0000000000000000e+00 0.0000000000000000e+00 0.0000000000000000e+00  1.2625966060516319e+02 7.7906468597307807e+01 0.0000000000000000e+00 7.7906468597307779e+01 1.6299169869327577e+03 0.0000000000000000e+00 0.0000000000000000e+00 0.0000000000000000e+00 0.0000000000000000e+00  9.5743170251166703e+01 2.3323008564056627e+02 0.0000000000000000e+00 2.3323008564056630e+02 1.7017855763394828e+03 0.0000000000000000e+00 0.0000000000000000e+00 0.0000000000000000e+00 0.0000000000000000e+00  3.5800299235655601e+01 3.1560923428325015e+02 0.0000000000000000e+00 3.1560923428325020e+02 3.8097895810179057e+03 0.0000000000000000e+00 0.0000000000000000e+00 0.0000000000000000e+00 0.0000000000000000e+00  -3.4232279864109749e+00 2.3685653298095099e+02 0.0000000000000000e+00 2.3685653298095079e+02 5.6844634823840497e+03 0.0000000000000000e+00 0.0000000000000000e+00 0.0000000000000000e+00 0.0000000000000000e+00  -3.0333953335623551e+00 -2.6941676506995805e+02 0.0000000000000000e+00 -2.6941676506995782e+02 6.0962585634943271e+03 0.0000000000000000e+00 0.0000000000000000e+00 0.0000000000000000e+00 0.0000000000000000e+00  8.2882211939340365e+01 -9.4378396018595510e+01 0.0000000000000000e+00 -9.4378396018595723e+01 4.0972959682260816e+03 0.0000000000000000e+00 0.0000000000000000e+00 0.0000000000000000e+00 0.0000000000000000e+00  -1.2801719533669615e+02 1.7856592730961844e+02 0.0000000000000000e+00 1.7856592730961839e+02 5.1267709527086363e+03 0.0000000000000000e+00 0.0000000000000000e+00 0.0000000000000000e+00 0.0000000000000000e+00  -6.5706168211738447e+00 -1.3258857464862672e+02 0.0000000000000000e+00 -1.3258857464862672e+02 4.9813393917122548e+03 0.0000000000000000e+00 0.0000000000000000e+00 0.0000000000000000e+00 0.0000000000000000e+00  -2.4009029322065771e+01 -1.6017867977159534e+02 0.0000000000000000e+00 -1.6017867977159477e+02 3.8237425880241972e+03 0.0000000000000000e+00 0.0000000000000000e+00 0.0000000000000000e+00 0.0000000000000000e+00  3.7427650376004060e+01 -5.1704609177700434e+00 0.0000000000000000e+00 -5.1704609177701757e+00 3.5554394839867005e+03 0.0000000000000000e+00 0.0000000000000000e+00 0.0000000000000000e+00 0.0000000000000000e+00  -2.3509799398038833e+01 -3.6040418525225677e+00 0.0000000000000000e+00 -3.6040418525225677e+00 3.4704482909006670e+03 0.0000000000000000e+00 0.0000000000000000e+00 0.0000000000000000e+00 0.0000000000000000e+00