<?xml version="1.0"?>
<VTKFile type="UnstructuredGrid"  version="0.1"  >
<UnstructuredGrid>
<Piece  NumberOfPoints="3879" NumberOfCells="6881">
<Points>
<DataArray  type="Float64"  NumberOfComponents="3"  format="ascii">0.207524190028372 0.2122422770132111 0  0 0 0  1 0 0  0 1 0  1 1 0  0.6249674373315121 0.2590146544375328 0  0.204663578893616 0.322657230836866 0  0.09605577522599912 0.4018360776629776 0  0.671351124618251 0.08738059142081528 0  0.7842102907526436 0.1666439122351055 0  0.8512483166984784 0.1985391006160637 0  0.6418797837909295 0.4423157172830166 0  0.9292488447973215 0.3869277868069776 0  0.3197896119137055 0.5509935221980964 0  0.3979283685568406 0.5079871620336583 0  0.1572503457993085 0.7345153245035532 0  0.3032914287999163 0.7872981443735918 0  0.3549464687598876 0.8870324161721976 0  0.9691791685505482 0.5159450047798622 0  0.9447564590470373 0.6146164845729313 0  0.7687603548175107 0.7176858127488035 0  0.8926159261971183 0.7422924070424508 0  0.2061587782631535 0.2217389244366831 0  0.2021731605082994 0.2304662099646423 0  0.1958902278109265 0.2377171008267789 0  0.1878189860121365 0.2429041729681512 0  0.1786133191209442 0.2456072006525708 0  0.1690190155206647 0.2456072006525708 0  0.1598133486294724 0.2429041729681512 0  0.1517421068306824 0.2377171008267789 0  0.1454591741333096 0.2304662099646422 0  0.1414735563784554 0.221738924436683 0  0.1401081446132369 0.212242277013211 0  0.1414735563784555 0.202745629589739 0  0.1454591741333096 0.1940183440617798 0  0.1517421068306825 0.1867674531996431 0  0.1598133486294725 0.1815803810582709 0  0.1690190155206649 0.1788773533738513 0  0.1786133191209443 0.1788773533738514 0  0.1878189860121367 0.181580381058271 0  0.1958902278109266 0.1867674531996433 0  0.2021731605082994 0.19401834406178 0  0.2061587782631535 0.2027456295897391 0  0.03333333333333333 0 0  0.06666666666666667 0 0  0.1 0 0  0.1333333333333333 0 0  0.1666666666666667 0 0  0.2 0 0  0.2333333333333333 0 0  0.2666666666666667 0 0  0.3 0 0  0.3333333333333333 0 0  0.3666666666666666 0 0  0.4 0 0  0.4333333333333333 0 0  0.4666666666666667 0 0  0.5 0 0  0.5333333333333333 0 0  0.5666666666666667 0 0  0.6 0 0  0.6333333333333333 0 0  0.6666666666666666 0 0  0.7 0 0  0.7333333333333333 0 0  0.7666666666666667 0 0  0.8 0 0  0.8333333333333334 0 0  0.8666666666666667 0 0  0.9 0 0  0.9333333333333333 0 0  0.9666666666666667 0 0  0 0.9666666666666667 0  0 0.9333333333333333 0  0 0.9 0  0 0.8666666666666667 0  0 0.8333333333333334 0  0 0.8 0  0 0.7666666666666666 0  0 0.7333333333333334 0  0 0.7 0  0 0.6666666666666667 0  0 0.6333333333333333 0  0 0.6 0  0 0.5666666666666667 0  0 0.5333333333333333 0  0 0.5 0  0 0.4666666666666667 0  0 0.4333333333333333 0  0 0.4 0  0 0.3666666666666667 0  0 0.3333333333333334 0  0 0.3 0  0 0.2666666666666667 0  0 0.2333333333333333 0  0 0.2 0  0 0.1666666666666666 0  0 0.1333333333333333 0  0 0.09999999999999998 0  0 0.06666666666666665 0  0 0.03333333333333333 0  1 0.03333333333333333 0  1 0.06666666666666667 0  1 0.1 0  1 0.1333333333333333 0  1 0.1666666666666667 0  1 0.2 0  1 0.2333333333333333 0  1 0.2666666666666667 0  1 0.3 0  1 0.3333333333333333 0  1 0.3666666666666666 0  1 0.4 0  1 0.4333333333333333 0  1 0.4666666666666667 0  1 0.5 0  1 0.5333333333333333 0  1 0.5666666666666667 0  1 0.6 0  1 0.6333333333333333 0  1 0.6666666666666666 0  1 0.7 0  1 0.7333333333333333 0  1 0.7666666666666667 0  1 0.8 0  1 0.8333333333333334 0  1 0.8666666666666667 0  1 0.9 0  1 0.9333333333333333 0  1 0.9666666666666667 0  0.9666666666666667 1 0  0.9333333333333333 1 0  0.9 1 0  0.8666666666666667 1 0  0.8333333333333334 1 0  0.8 1 0  0.7666666666666666 1 0  0.7333333333333334 1 0  0.7 1 0  0.6666666666666667 1 0  0.6333333333333333 1 0  0.6 1 0  0.5666666666666667 1 0  0.5333333333333333 1 0  0.5 1 0  0.4666666666666667 1 0  0.4333333333333333 1 0  0.4 1 0  0.3666666666666667 1 0  0.3333333333333334 1 0  0.3 1 0  0.2666666666666667 1 0  0.2333333333333333 1 0  0.2 1 0  0.1666666666666666 1 0  0.1333333333333333 1 0  0.09999999999999998 1 0  0.06666666666666665 1 0  0.03333333333333333 1 0  0.6247072676344306 0.2689501343248463 0  0.6239274716502419 0.2788583817523955 0  0.6226301867455355 0.2887122389026952 0  0.6208189686880621 0.2984846970382296 0  0.6184987819006211 0.3081489705305245 0  0.6156759858539226 0.317678570277693 0  0.6123583176357204 0.3270473763092224 0  0.6085548707439923 0.3362297093789981 0  0.6042760701622942 0.3452004013503318 0  0.5995336437856049 0.3539348641800754 0  0.5943405902749808 0.3624091573127375 0  0.5887111434291297 0.3706000532998825 0  0.582660733170558 0.3784851014649517 0  0.5762059432532257 0.3860426894390078 0  0.5693644658076293 0.3932521023987353 0  0.5621550528479018 0.4000935798443317 0  0.5545974648738458 0.4065483697616639 0  0.5467124167087765 0.4125987800202355 0  0.5385215207216315 0.4182282268660866 0  0.5300472275889694 0.4234212803767108 0  0.5213127647592257 0.4281637067534002 0  0.512342072787892 0.4324425073350981 0  0.5031597397181163 0.4362459542268262 0  0.493790933686587 0.4395636224450283 0  0.4842613339394185 0.4423864184917269 0  0.4745970604471235 0.4447066052791678 0  0.4648246023115891 0.4465178233366412 0  0.4549707451612894 0.4478151082413475 0  0.4450624977337403 0.4485949042255363 0  0.4351270178464268 0.4488550739226177 0  0.4251915379591132 0.4485949042255363 0  0.4152832905315641 0.4478151082413475 0  0.4054294333812644 0.4465178233366411 0  0.39565697524573 0.4447066052791677 0  0.385992701753435 0.4423864184917267 0  0.3764631020062665 0.4395636224450281 0  0.3670942959747371 0.4362459542268259 0  0.3579119629049616 0.4324425073350978 0  0.3489412709336278 0.4281637067533998 0  0.3402068081038843 0.4234212803767103 0  0.3317325149712221 0.4182282268660862 0  0.3235416189840771 0.412598780020235 0  0.3156565708190078 0.4065483697616634 0  0.3080989828449519 0.4000935798443311 0  0.3008895698852244 0.3932521023987346 0  0.2940480924396279 0.3860426894390071 0  0.2875933025222958 0.3784851014649511 0  0.2815428922637242 0.3706000532998818 0  0.2759134454178731 0.3624091573127368 0  0.2707203919072489 0.3539348641800746 0  0.2659779655305596 0.3452004013503309 0  0.2616991649488616 0.3362297093789972 0  0.2578957180571336 0.3270473763092215 0  0.2545780498389315 0.3176785702776921 0  0.251755253792233 0.3081489705305236 0  0.249435067004792 0.2984846970382286 0  0.2476238489473186 0.2887122389026941 0  0.2463265640426123 0.2788583817523945 0  0.2455467680584236 0.2689501343248454 0  0.2452865983613423 0.2590146544375318 0  0.2455467680584237 0.2490791745502182 0  0.2463265640426126 0.2391709271226692 0  0.247623848947319 0.2293170699723696 0  0.2494350670047924 0.2195446118368351 0  0.2517552537922335 0.2098803383445402 0  0.2545780498389321 0.2003507385973717 0  0.2578957180571343 0.1909819325658423 0  0.2616991649488624 0.1817995994960667 0  0.2659779655305604 0.172828907524733 0  0.2707203919072498 0.1640944446949895 0  0.2759134454178741 0.1556201515623273 0  0.2815428922637251 0.1474292555751825 0  0.2875933025222969 0.1395442074101132 0  0.2940480924396291 0.1319866194360571 0  0.3008895698852256 0.1247772064763297 0  0.3080989828449531 0.1179357290307334 0  0.3156565708190092 0.1114809391134012 0  0.3235416189840785 0.1054305288548295 0  0.3317325149712236 0.09980108200897844 0  0.3402068081038856 0.0946080284983544 0  0.3489412709336291 0.08986560212166514 0  0.357911962904963 0.08558680153996717 0  0.3670942959747386 0.08178335464823916 0  0.3764631020062678 0.07846568643003712 0  0.3859927017534364 0.0756428903833386 0  0.3956569752457313 0.0733227035958976 0  0.4054294333812659 0.07151148553842429 0  0.4152832905315654 0.07021420063371797 0  0.4251915379591144 0.0694344046495293 0  0.435127017846428 0.0691742349524479 0  0.4450624977337415 0.06943440464952938 0  0.4549707451612905 0.07021420063371814 0  0.4648246023115901 0.07151148553842454 0  0.4745970604471245 0.07332270359589793 0  0.4842613339394195 0.07564289038333902 0  0.4937909336865879 0.07846568643003757 0  0.5031597397181173 0.0817833546482398 0  0.5123420727878929 0.08558680153996781 0  0.5213127647592265 0.08986560212166581 0  0.53004722758897 0.0946080284983552 0  0.5385215207216321 0.09980108200897933 0  0.5467124167087771 0.1054305288548305 0  0.5545974648738462 0.1114809391134021 0  0.5621550528479023 0.1179357290307343 0  0.5693644658076298 0.1247772064763308 0  0.576205943253226 0.1319866194360582 0  0.5826607331705582 0.1395442074101142 0  0.5887111434291299 0.1474292555751835 0  0.594340590274981 0.1556201515623285 0  0.5995336437856051 0.1640944446949906 0  0.6042760701622945 0.172828907524734 0  0.6085548707439925 0.1817995994960678 0  0.6123583176357205 0.1909819325658435 0  0.6156759858539227 0.2003507385973728 0  0.6184987819006211 0.2098803383445412 0  0.6208189686880622 0.2195446118368362 0  0.6226301867455355 0.2293170699723706 0  0.6239274716502419 0.2391709271226702 0  0.6247072676344306 0.2490791745502192 0  0.203885768735257 0.3325402459548524 0  0.2015714905276826 0.3421799084407872 0  0.1977777294810124 0.3513388578120612 0  0.1925979005829864 0.3597915703383434 0  0.1861595484119405 0.3673299121842922 0  0.1786212065659918 0.373768264355338 0  0.1701684940397096 0.378948093253364 0  0.1610095446684356 0.3827418543000342 0  0.1513698821825007 0.3850561325076086 0  0.1414868670645144 0.3858339426659677 0  0.1316038519465281 0.3850561325076086 0  0.1219641894605933 0.3827418543000343 0  0.1128052400893193 0.378948093253364 0  0.1043525275630371 0.3737682643553381 0  0.09681418571708833 0.3673299121842922 0  0.09037583354604248 0.3597915703383434 0  0.08519600464801645 0.3513388578120612 0  0.08140224360134621 0.3421799084407872 0  0.07908796539377183 0.3325402459548523 0  0.07831015523541281 0.3226572308368659 0  0.07908796539377186 0.3127742157188796 0  0.08140224360134626 0.3031345532329447 0  0.08519600464801655 0.2939756038616707 0  0.0903758335460426 0.2855228913353884 0  0.0968141857
[...]
<PointData  Tensors="$\sigma$"> 
<DataArray  type="Float64"  Name="$\sigma$"  NumberOfComponents="9" format="ascii">6.7044200980295685e+01 3.7878349707906942e+01 0.0000000000000000e+00 3.7878349707906942e+01 2.5244932349316196e+03 0.0000000000000000e+00 0.0000000000000000e+00 0.0000000000000000e+00 0.0000000000000000e+00  3.1741395796687181e+02 4.2898312738369320e+01 0.0000000000000000e+00 4.2898312738369320e+01 1.2754971337725137e+03 0.0000000000000000e+00 0.0000000000000000e+00 0.0000000000000000e+00 0.0000000000000000e+00  -1.4254022006792166e+00 -4.6680329357106842e+00 0.0000000000000000e+00 -4.6680329357106842e+00 1.3615285593385699e+03 0.0000000000000000e+00 0.0000000000000000e+00 0.0000000000000000e+00 0.0000000000000000e+00  6.1969681853179033e+00 -2.5667281269406175e+00 0.0000000000000000e+00 -2.5667281269406175e+00 1.3070588073912681e+03 0.0000000000000000e+00 0.0000000000000000e+00 0.0000000000000000e+00 0.0000000000000000e+00  5.0421046824888407e+00 3.0659701878726890e+00 0.0000000000000000e+00 3.0659701878726890e+00 1.2465904855513331e+03 0.0000000000000000e+00 0.0000000000000000e+00 0.0000000000000000e+00 0.0000000000000000e+00  3.9008913212611311e+01 3.5162973952591877e+01 0.0000000000000000e+00 3.5162973952591869e+01 2.5209066216854258e+03 0.0000000000000000e+00 0.0000000000000000e+00 0.0000000000000000e+00 0.0000000000000000e+00  -2.1651078938354004e+01 7.9492674307508651e+01 0.0000000000000000e+00 7.9492674307508608e+01 1.1906759383454971e+02 0.0000000000000000e+00 0.0000000000000000e+00 0.0000000000000000e+00 0.0000000000000000e+00  2.4598225783430334e+02 1.5771836717705764e+02 0.0000000000000000e+00 1.5771836717705764e+02 2.7457445336496826e+03 0.0000000000000000e+00 0.0000000000000000e+00 0.0000000000000000e+00 0.0000000000000000e+00  1.4108985693031465e+02 -1.6025352163355842e+02 0.0000000000000000e+00 -1.6025352163355842e+02 2.5081868482002337e+03 0.0000000000000000e+00 0.0000000000000000e+00 0.0000000000000000e+00 0.0000000000000000e+00  -1.1902990654179549e+01 -1.1493439514533026e+01 0.0000000000000000e+00 -1.1493439514533026e+01 -2.7530413008079620e+01 0.0000000000000000e+00 0.0000000000000000e+00 0.0000000000000000e+00 0.0000000000000000e+00  -2.9002684219806912e-01 -9.5442880569352209e+00 0.0000000000000000e+00 -9.5442880569352226e+00 1.4919453231605582e+00 0.0000000000000000e+00 0.0000000000000000e+00 0.0000000000000000e+00 0.0000000000000000e+00  6.8377051252396285e+01 1.5257230386041761e+02 0.0000000000000000e+00 1.5257230386041755e+02 1.4359671210157053e+03 0.0000000000000000e+00 0.0000000000000000e+00 0.0000000000000000e+00 0.0000000000000000e+00  -4.8388516386327947e+00 3.3962798731355988e+01 0.0000000000000000e+00 3.3962798731355988e+01 3.2721903235252989e+03 0.0000000000000000e+00 0.0000000000000000e+00 0.0000000000000000e+00 0.0000000000000000e+00  3.5043141538172335e+01 2.5817033970957951e+01 0.0000000000000000e+00 2.5817033970957951e+01 2.6107371207748638e+03 0.0000000000000000e+00 0.0000000000000000e+00 0.0000000000000000e+00 0.0000000000000000e+00  -1.9466537956261345e+01 -7.8432734100035105e+01 0.0000000000000000e+00 -7.8432734100035120e+01 -2.9839278479578820e+02 0.0000000000000000e+00 0.0000000000000000e+00 0.0000000000000000e+00 0.0000000000000000e+00  -1.7142884898362592e+01 -5.9560204184749544e+01 0.0000000000000000e+00 -5.9560204184749544e+01 -4.0878870365510529e+01 0.0000000000000000e+00 0.0000000000000000e+00 0.0000000000000000e+00 0.0000000000000000e+00  2.3115187674517191e+01 -7.8917296162673225e+01 0.0000000000000000e+00 -7.8917296162673225e+01 1.6541887586394187e+03 0.0000000000000000e+00 0.0000000000000000e+00 0.0000000000000000e+00 0.0000000000000000e+00  7.6737814134505285e+01 5.5553290077122483e+01 0.0000000000000000e+00 5.5553290077122483e+01 1.9710400522695502e+03 0.0000000000000000e+00 0.0000000000000000e+00 0.0000000000000000e+00 0.0000000000000000e+00  6.0609576235711472e+02 5.2152326841228466e+02 0.0000000000000000e+00 5.2152326841228466e+02 5.9067672528415378e+03 0.0000000000000000e+00 0.0000000000000000e+00 0.0000000000000000e+00 0.0000000000000000e+00  1.0180211005560042e+02 -8.5431734181376029e+01 0.0000000000000000e+00 -8.5431734181376029e+01 3.0986255726985196e+03 0.0000000000000000e+00 0.0000000000000000e+00 0.0000000000000000e+00 0.0000000000000000e+00  2.3533019421223340e+01 5.3703660768131783e+01 0.0000000000000000e+00 5.3703660768131805e+01 1.9317282969231733e+03 0.0000000000000000e+00 0.0000000000000000e+00 0.0000000000000000e+00 0.0000000000000000e+00  5.7095956053595366e+01 -1.7073900073326076e+00 0.0000000000000000e+00 -1.7073900073326076e+00 1.0617003812175312e+03 0.0000000000000000e+00 0.0000000000000000e+00 0.0000000000000000e+00 0.0000000000000000e+00  1.0011996854500326e+02 -2.5799387558809849e+02 0.0000000000000000e+00 -2.5799387558809849e+02 1.6245814152294927e+03 0.0000000000000000e+00 0.0000000000000000e+00 0.0000000000000000e+00 0.0000000000000000e+00  -1.0915801651269381e+02 -6.9391667656952578e+01 0.0000000000000000e+00 -6.9391667656952578e+01 5.1031198362725650e+02 0.0000000000000000e+00 0.0000000000000000e+00 0.0000000000000000e+00 0.0000000000000000e+00  -5.4684034486230337e+02 3.0975833925322780e+02 0.0000000000000000e+00 3.0975833925322780e+02 -1.5849744729857412e+02 0.0000000000000000e+00 0.0000000000000000e+00 0.0000000000000000e+00 0.0000000000000000e+00  -9.0249953865232339e+02 3.1702496030631625e+02 0.0000000000000000e+00 3.1702496030631625e+02 -2.1977684834411437e+02 0.0000000000000000e+00 0.0000000000000000e+00 0.0000000000000000e+00 0.0000000000000000e+00  -7.4435165320058923e+02 2.5673361756139730e+02 0.0000000000000000e+00 2.5673361756139730e+02 -1.1748882432208764e+02 0.0000000000000000e+00 0.0000000000000000e+00 0.0000000000000000e+00 0.0000000000000000e+00  3.8453139014937392e+02 5.5776764499157855e+02 0.0000000000000000e+00 5.5776764499157855e+02 3.3951841794249958e+02 0.0000000000000000e+00 0.0000000000000000e+00 0.0000000000000000e+00 0.0000000000000000e+00  1.5513586710456041e+03 1.0418431510094154e+03 0.0000000000000000e+00 1.0418431510094154e+03 6.7833740003035302e+02 0.0000000000000000e+00 0.0000000000000000e+00 0.0000000000000000e+00 0.0000000000000000e+00  1.6008811976635682e+03 1.2564649668255445e+03 0.0000000000000000e+00 1.2564649668255445e+03 1.1799543410220278e+03 0.0000000000000000e+00 0.0000000000000000e+00 0.0000000000000000e+00 0.0000000000000000e+00  8.2202976361134279e+02 9.8236174938657621e+02 0.0000000000000000e+00 9.8236174938657621e+02 1.3469929064809567e+03 0.0000000000000000e+00 0.0000000000000000e+00 0.0000000000000000e+00 0.0000000000000000e+00  3.2660551180941326e+02 4.5877291741749048e+02 0.0000000000000000e+00 4.5877291741749048e+02 1.1461279856074907e+03 0.0000000000000000e+00 0.0000000000000000e+00 0.0000000000000000e+00 0.0000000000000000e+00  5.8150373312393931e+01 9.6203774939588058e+01 0.0000000000000000e+00 9.6203774939588087e+01 9.9352972727581096e+02 0.0000000000000000e+00 0.0000000000000000e+00 0.0000000000000000e+00 0.0000000000000000e+00  4.1190557369923141e+01 -6.7569389853754757e+01 0.0000000000000000e+00 -6.7569389853754728e+01 5.1961114366723598e+02 0.0000000000000000e+00 0.0000000000000000e+00 0.0000000000000000e+00 0.0000000000000000e+00  -4.9640882213571501e+01 3.1331144745530530e+01 0.0000000000000000e+00 3.1331144745530526e+01 8.8167345699240144e+01 0.0000000000000000e+00 0.0000000000000000e+00 0.0000000000000000e+00 0.0000000000000000e+00  -3.3423167320962210e+02 2.1040830609223477e+02 0.0000000000000000e+00 2.1040830609223477e+02 -1.3513811101536248e+02 0.0000000000000000e+00 0.0000000000000000e+00 0.0000000000000000e+00 0.0000000000000000e+00  -6.0528257999110326e+02 2.2109757571416574e+02 0.0000000000000000e+00 2.2109757571416574e+02 -1.4010030077743141e+02 0.0000000000000000e+00 0.0000000000000000e+00 0.0000000000000000e+00 0.0000000000000000e+00  -6.1497565420249578e+02 1.4083180910444358e+02 0.0000000000000000e+00 1.4083180910444358e+02 -1.0095918225159684e+02 0.0000000000000000e+00 0.0000000000000000e+00 0.0000000000000000e+00 0.0000000000000000e+00  -2.8053744076494939e+02 4.6712335124966664e+01 0.0000000000000000e+00 4.6712335124966664e+01 2.1233348269481215e+01 0.0000000000000000e+00 0.0000000000000000e+00 0.0000000000000000e+00 0.0000000000000000e+00  2.9350196918359012e+02 2.5986800109597766e+02 0.0000000000000000e+00 2.5986800109597766e+02 1.8810287857762239e+02 0.0000000000000000e+00 0.0000000000000000e+00 0.0000000000000000e+00 0.0000000000000000e+00  6.2374607122652878e+02 5.8605744768020929e+02 0.0000000000000000e+00 5.8605744768020929e+02 7.6167168549219571e+02 0.0000000000000000e+00 0.0000000000000000e+00 0.0000000000000000e+00 0.0000000000000000e+00  5.6416161879195897e+02 8.9079410475614645e+02 0.0000000000000000e+00 8.9079410475614645e+02 1.6167813883681843e+03 0.0000000000000000e+00 0.0000000000000000e+00 0.0000000000000000e+00 0.0000000000000000e+00  4.0695809228710266e+02 5.4247246978537339e+02 0.0000000000000000e+00 5.4247246978537339e+02 2.2739852733957991e+03 0.0000000000000000e+00 0.0000000000000000e+00 0.0000000000000000e+00 0.0000000000000000e+00  1.3188286293935775e+02 -6.3737260489944475e+01 0.0000000000000000e+00 -6.3737260489944475e+01 1.0676361936693836e+03 0.0000000000000000e+00 0.0000000000000000e+00 0.0000000000000000e+00 0.0000000000000000e+00  -2.9172510326577441e+01 3.9040208135238261e+00 0.0000000000000000e+00 3.9040208135238261e+00 9.2533687806331420e+02 0.0000000000000000e+00 0.0000000000000000e+00 0.0000000000000000e+00 0.0000000000000000e+00  5.0722434010547097e+01 6.1055993387928398e+00 0.0000000000000000e+00 6.1055993387928398e+00 7.2390992005306157e+02 0.0000000000000000e+00 0.0000000000000000e+00 0.0000000000000000e+00 0.0000000000000000e+00  9.6546513115770782e+00 7.8657068315718552e+00 0.0000000000000000e+00 7.8657068315718552e+00 6.1558155405853688e+02 0.0000000000000000e+00 0.0000000000000000e+00 0.0000000000000000e+00 0.0000000000000000e+00  1.8084909582278051e+01 1.2047479175401238e+01 0.0000000000000000e+00 1.2047479175401238e+01 4.8429543251551473e+02 0.0000000000000000e+00 0.0000000000000000e+00 0.0000000000000000e+00 0.0000000000000000e+00  -7.2533215212579734e+00 8.2046096994173059e+00 0.0000000000000000e+00 8.2046096994173059e+00 3.6616117284125158e+02 0.0000000000000000e+00 0.0000000000000000e+00 0.0000000000000000e+00 0.0000000000000000e+00  -1.9203509240342377e+01 4.3309788463769392e+00 0.0000000000000000e+00 4.3309788463769392e+00 2.6412298465825046e+02 0.0000000000000000e+00 0.0000000000000000e+00 0.0000000000000000e+00 0.0000000000000000e+00  -3.6583006048531423e+01 3.4394077507325576e+00 0.0000000000000000e+00 3.4394077507325576e+00 1.7066832937022491e+02 0.0000000000000000e+00 0.0000000000000000e+00 0.0000000000000000e+00 0.0000000000000000e+00  -3.6367209133784399e+01 3.9145819218607616e+00 0.0000000000000000e+00 3.9145819218607616e+00 7.2425559504767122e+01 0.0000000000000000e+00 0.0000000000000000e+00 0.0000000000000000e+00 0.0000000000000000e+00  -4.3197007403315972e+01 5.2799680295448432e+00 0.0000000000000000e+00 5.2799680295448432e+00 -7.9565120994896033e+00 0.0000000000000000e+00 0.0000000000000000e+00 0.0000000000000000e+00 0.0000000000000000e+00  -6.2895471895316511e+01 3.9841170538171249e+00 0.0000000000000000e+00 3.9841170538171249e+00 -3.7420458089365283e+01 0.0000000000000000e+00 0.0000000000000000e+00 0.0000000000000000e+00 0.0000000000000000e+00  -7.8548938219103832e+01 2.7838759063208207e-01 0.0000000000000000e+00 2.7838759063208240e-01 -3.7628873747009081e+01 0.0000000000000000e+00 0.0000000000000000e+00 0.0000000000000000e+00 0.0000000000000000e+00  -9.2056852690206554e+01 5.0651900887829260e-01 0.0000000000000000e+00 5.0651900887829238e-01 -1.8286326916973067e+01 0.0000000000000000e+00 0.0000000000000000e+00 0.0000000000000000e+00 0.0000000000000000e+00  -9.8516896333279590e+01 -1.5376532890304593e+00 0.0000000000000000e+00 -1.5376532890304586e+00 1.7238068062616417e+01 0.0000000000000000e+00 0.0000000000000000e+00 0.0000000000000000e+00 0.0000000000000000e+00  -1.2762688632999085e+02 2.9402298527327866e+00 0.0000000000000000e+00 2.9402298527327866e+00 1.0270330768927542e+02 0.0000000000000000e+00 0.0000000000000000e+00 0.0000000000000000e+00 0.0000000000000000e+00  -1.8484906749632842e+02 1.0071575029484755e+01 0.0000000000000000e+00 1.0071575029484755e+01 2.1734512315700641e+02 0.0000000000000000e+00 0.0000000000000000e+00 0.0000000000000000e+00 0.0000000000000000e+00  -2.9554679092058535e+02 1.6146472957373415e+01 0.0000000000000000e+00 1.6146472957373415e+01 3.1188264978069640e+02 0.0000000000000000e+00 0.0000000000000000e+00 0.0000000000000000e+00 0.0000000000000000e+00  -3.3405280976759320e+02 -1.4133412295096500e+01 0.0000000000000000e+00 -1.4133412295096500e+01 2.1032236650730516e+02 0.0000000000000000e+00 0.0000000000000000e+00 0.0000000000000000e+00 0.0000000000000000e+00  -2.5316926635990325e+02 -8.3663016082147845e-01 0.0000000000000000e+00 -8.3663016082147845e-01 -1.6776015104110343e+01 0.0000000000000000e+00 0.0000000000000000e+00 0.0000000000000000e+00 0.0000000000000000e+00  -2.9469781337724311e+02 1.1847377669965486e+01 0.0000000000000000e+00 1.1847377669965486e+01 1.4048900215691094e+02 0.0000000000000000e+00 0.0000000000000000e+00 0.0000000000000000e+00 0.0000000000000000e+00  -2.4280525873321113e+02 -1.0964647445721113e+01 0.0000000000000000e+00 -1.0964647445721113e+01 2.7815654993353979e+02 0.0000000000000000e+00 0.0000000000000000e+00 0.0000000000000000e+00 0.0000000000000000e+00  -1.0585484604681110e+02 -1.6940726108141774e+01 0.0000000000000000e+00 -1.6940726108141774e+01 1.6833726366822017e+02 0.0000000000000000e+00 0.0000000000000000e+00 0.0000000000000000e+00 0.0000000000000000e+00  3.2407864964968347e+01 -8.6293158047237544e+00 0.0000000000000000e+00 -8.6293158047237544e+00 1.2574117274434627e+02 0.0000000000000000e+00 0.0000000000000000e+00 0.0000000000000000e+00 0.0000000000000000e+00  6.1178771866513898e+01 -7.7763305156726563e+00 0.0000000000000000e+00 -7.7763305156726563e+00 1.8061832473971037e+02 0.0000000000000000e+00 0.0000000000000000e+00 0.0000000000000000e+00 0.0000000000000000e+00  6.8083127189038748e+01 -6.0051826530142458e+00 0.0000000000000000e+00 -6.0051826530142458e+00 3.2496096753790039e+02 0.0000000000000000e+00 0.0000000000000000e+00 0.0000000000000000e+00 0.0000000000000000e+00  5.5315016849870098e+01 -1.1743691091416666e+01 0.0000000000000000e+00 -1.1743691091416666e+01 5.0981818348291529e+02 0.0000000000000000e+00 0.0000000000000000e+00 0.0000000000000000e+00 0.0000000000000000e+00  5.2465640647816727e+01 -8.4894523666747528e+00 0.0000000000000000e+00 -8.4894523666747528e+00 7.2313426749692712e+02 0.0000000000000000e+00 0.0000000000000000e+00 0.0000000000000000e+00 0.0000000000000000e+00  1.5240530554238195e+01 -5.8107702510345565e+00 0.0000000000000000e+00 -5.8107702510345565e+00 9.6830843450343423e+02 0.0000000000000000e+00 0.0000000000000000e+00 0.0000000000000000e+00 0.0000000000000000e+00  2.0276320355627099e+01 -7.3641269196540700e+00 0.0000000000000000e+00 -7.3641269196540700e+00 1.1585819987759844e+03 0.0000000000000000e+00 0.0000000000000000e+00 0.0000000000000000e+00 0.0000000000000000e+00  -1.9341729096664275e+00 1.3327992845990510e+01 0.0000000000000000e+00 1.3327992845990510e+01 1.3295265557721211e+03 0.0000000000000000e+00 0.0000000000000000e+00 0.0000000000000000e+00 0.0000000000000000e+00  6.8517568348266678e-01 1.9595497246177991e+00 0.0000000000000000e+00 1.9595497246177991e+00 1.3673084129119791e+03 0.0000000000000000e+00 0.0000000000000000e+00 0.0000000000000000e+00 0.0000000000000000e+00  -1.8423617761104427e+00 1.2669699937861004e+01 0.0000000000000000e+00 1.2669699937861004e+01 1.3969722707957997e+03 0.0000000000000000e+00 0.0000000000000000e+00 0.0000000000000000e+00 0.0000000000000000e+00  -8.1064840041554131e-01 3.3866076748208136e+00 0.0000000000000000e+00 3.3866076748208136e+00 1.4371844907603445e+03 0.0000000000000000e+00 0.0000000000000000e+00 0.0000000000000000e+00 0.0000000000000000e+00  1.3204258919445384e+00 5.4410753987711900e+00 0.0000000000000000e+00 5.4410753987711900e+00 1.4860141271363932e+03 0.0000000000000000e+00 0.0000000000000000e+00 0.0000000000000000e+00 0.0000000000000000e+00  7.7537777283266696e-01 1.4037322476106343e+01 0.0000000000000000e+00 1.4037322476106343e+01 1.5046796822120502e+03 0.0000000000000000e+00 0.0000000000000000e+00 0.0000000000000000e+00 0.0000000000000000e+00  -7.7408513202645102e+00 2.2638209151489363e+01 0.0000000000000000e+00 2.2638209151489363e+01 1.6212160278250658e+03 0.0000000000000000e+00 0.0000000000000000e+00 0.0000000000000000e+00 0.0000000000000000e+00  7.4025113373473964e-02 3.6970126567007043e+01 0.0000000000000000e+00 3.6970126567007043e+01 1.7596004716793564e+03 0.0000000000000000e+00 0.0000000000000000e+00 0.0000000000000000e+00 0.0000000000000000e+00  -1.3142412222964849e+01 1.6419811837974652e+01 0.0000000000000000e+00 1.6419811837974652e+01 1.9449040127648336e+03 0.0000000000000000e+00 0.0000000000000000e+00 0.0000000000000000e+00 0.0000000000000000e+00  -3.2408332802853032e+01 -3.0966770491149905e+01 0.0000000000000000e+00 -3.0966770491149905e+01 1.9085581340017725e+03 0.0000000000000000e+00 0.0000000000000000e+00 0.0000000000000000e+00 0.0000000000000000e+00  -3.6346431557839452e+01 -1.3104323788064181e+02 0.0000000000000000e+00 -1.3104323788064181e+02 1.6338254238270772e+03 0.0000000000000000e+00 0.0000000000000000e+00 0.0000000000000000e+00 0.0000000000000000e+00  -5.9510268108875746e+00 -1.5091676523094404e+02 0.0000000000000000e+00 -1.5091676523094404e+02 1.2100358656046233e+03 0.0000000000000000e+00 0.0000000000000000e+00 0.0000000000000000e+00 0.0000000000000000e+00  7.7912870733295193e+01 1.8487923335617044e+01 0.0000000000000000e+00 1.8487923335617044e+01 6.4865478658862992e+02 0.0000000000000000e+00 0.0000000000000000e+00 0.0000000000000000e+00 0.0000000000000000e+00  5.1082849258771212e+01 9.9447546056831200e+01 0.0000000000000000e+00 9.9447546056831200e+01 7.3599539684252022e+02 0.0000000000000000e+00 0.0000000000000000e+00 0.0000000000000000e+00 0.0000000000000000e+00  1.9880918418158309e+01 1.5102696208910561e+02 0.0000000000000000e+00 1.5102696208910561e+02 1.5122040816419155e+03 0.0000000000000000e+00 0.0000000000000000e+00 0.0000000000000000e+00 0.0000000000000000e+00  -1.2007850795672578e+01 1.1733154297870708e+02 0.0000000000000000e+00 1.1733154297870708e+02 2.2376547449837681e+03 0.0000000000000000e+00 0.0000000000000000e+00 0.0000000000000000e+00 0.0000000000000000e+00  -2.8457622655661314e+01 -1.2477773922330935e+02 0.0000000000000000e+00 -1.2477773922330935e+02 2.3964892465967246e+03 0.0000000000000000e+00 0.0000000000000000e+00 0.0000000000000000e+00 0.0000000000000000e+00  6.4073462734037349e+01 -3.8203826957856386e+01 0.0000000000000000e+00 -3.8203826957856386e+01 1.7190536077700888e+03 0.0000000000000000e+00 0.0000000000000000e+00 0.0000000000000000e+00 0.0000000000000000e+00  -6.1980010235215452e+01 7.7608572448724132e+01 0.0000000000000000e+00 7.7608572448724132e+01 2.0433815610658933e+03 0.0000000000000000e+00 0.0000000000000000e+00 0.0000000000000000e+00 0.0000000000000000e+00  -3.2834275771788768e+00 -6.1173336782753829e+01 0.0000000000000000e+00 -6.1173336782753829e+01 1.9707285544661227e+03 0.0000000000000000e+00 0.0000000000000000e+00 0.0000000000000000e+00 0.0000000000000000e+00  -1.4489689980571792e+00 -7.3253941508212051e+01 0.0000000000000000e+00 -7.3253941508212051e+01 1.5375711771761726e+03 0.0000000000000000e+00 0.0000000000000000e+00 0.0000000000000000e+00 0.0000000000000000e+00  1.6262762583781196e+01 -7.0032469762939833e+00 0.0000000000000000e+00 -7.0032469762939833e+00 1.4198566592298657e+03 0.0000000000000000e+00 0.0000000000000000e+00 0.0000000000000000e+00 0.0000000000000000e+00  -5.7031687805894213e+00 -4.5609200756799681e-02 0.0000000000000000e+00 -4.5609200756799681e-02 1.3871213082634479e+03 0.0000000000000000e+00 0.0000000000000000e+00 0.0000000000000000e+00 0.00000000000000