<?xml version="1.0"?>
<VTKFile type="UnstructuredGrid"  version="0.1"  >
<UnstructuredGrid>
<Piece  NumberOfPoints="3879" NumberOfCells="6881">
<Points>
<DataArray  type="Float64"  NumberOfComponents="3"  format="ascii">0.207524190028372 0.2122422770132111 0  0 0 0  1 0 0  0 1 0  1 1 0  0.6249674373315121 0.2590146544375328 0  0.204663578893616 0.322657230836866 0  0.09605577522599912 0.4018360776629776 0  0.671351124618251 0.08738059142081528 0  0.7842102907526436 0.1666439122351055 0  0.8512483166984784 0.1985391006160637 0  0.6418797837909295 0.4423157172830166 0  0.9292488447973215 0.3869277868069776 0  0.3197896119137055 0.5509935221980964 0  0.3979283685568406 0.5079871620336583 0  0.1572503457993085 0.7345153245035532 0  0.3032914287999163 0.7872981443735918 0  0.3549464687598876 0.8870324161721976 0  0.9691791685505482 0.5159450047798622 0  0.9447564590470373 0.6146164845729313 0  0.7687603548175107 0.7176858127488035 0  0.8926159261971183 0.7422924070424508 0  0.2061587782631535 0.2217389244366831 0  0.2021731605082994 0.2304662099646423 0  0.1958902278109265 0.2377171008267789 0  0.1878189860121365 0.2429041729681512 0  0.1786133191209442 0.2456072006525708 0  0.1690190155206647 0.2456072006525708 0  0.1598133486294724 0.2429041729681512 0  0.1517421068306824 0.2377171008267789 0  0.1454591741333096 0.2304662099646422 0  0.1414735563784554 0.221738924436683 0  0.1401081446132369 0.212242277013211 0  0.1414735563784555 0.202745629589739 0  0.1454591741333096 0.1940183440617798 0  0.1517421068306825 0.1867674531996431 0  0.1598133486294725 0.1815803810582709 0  0.1690190155206649 0.1788773533738513 0  0.1786133191209443 0.1788773533738514 0  0.1878189860121367 0.181580381058271 0  0.1958902278109266 0.1867674531996433 0  0.2021731605082994 0.19401834406178 0  0.2061587782631535 0.2027456295897391 0  0.03333333333333333 0 0  0.06666666666666667 0 0  0.1 0 0  0.1333333333333333 0 0  0.1666666666666667 0 0  0.2 0 0  0.2333333333333333 0 0  0.2666666666666667 0 0  0.3 0 0  0.3333333333333333 0 0  0.3666666666666666 0 0  0.4 0 0  0.4333333333333333 0 0  0.4666666666666667 0 0  0.5 0 0  0.5333333333333333 0 0  0.5666666666666667 0 0  0.6 0 0  0.6333333333333333 0 0  0.6666666666666666 0 0  0.7 0 0  0.7333333333333333 0 0  0.7666666666666667 0 0  0.8 0 0  0.8333333333333334 0 0  0.8666666666666667 0 0  0.9 0 0  0.9333333333333333 0 0  0.9666666666666667 0 0  0 0.9666666666666667 0  0 0.9333333333333333 0  0 0.9 0  0 0.8666666666666667 0  0 0.8333333333333334 0  0 0.8 0  0 0.7666666666666666 0  0 0.7333333333333334 0  0 0.7 0  0 0.6666666666666667 0  0 0.6333333333333333 0  0 0.6 0  0 0.5666666666666667 0  0 0.5333333333333333 0  0 0.5 0  0 0.4666666666666667 0  0 0.4333333333333333 0  0 0.4 0  0 0.3666666666666667 0  0 0.3333333333333334 0  0 0.3 0  0 0.2666666666666667 0  0 0.2333333333333333 0  0 0.2 0  0 0.1666666666666666 0  0 0.1333333333333333 0  0 0.09999999999999998 0  0 0.06666666666666665 0  0 0.03333333333333333 0  1 0.03333333333333333 0  1 0.06666666666666667 0  1 0.1 0  1 0.1333333333333333 0  1 0.1666666666666667 0  1 0.2 0  1 0.2333333333333333 0  1 0.2666666666666667 0  1 0.3 0  1 0.3333333333333333 0  1 0.3666666666666666 0  1 0.4 0  1 0.4333333333333333 0  1 0.4666666666666667 0  1 0.5 0  1 0.5333333333333333 0  1 0.5666666666666667 0  1 0.6 0  1 0.6333333333333333 0  1 0.6666666666666666 0  1 0.7 0  1 0.7333333333333333 0  1 0.7666666666666667 0  1 0.8 0  1 0.8333333333333334 0  1 0.8666666666666667 0  1 0.9 0  1 0.9333333333333333 0  1 0.9666666666666667 0  0.9666666666666667 1 0  0.9333333333333333 1 0  0.9 1 0  0.8666666666666667 1 0  0.8333333333333334 1 0  0.8 1 0  0.7666666666666666 1 0  0.7333333333333334 1 0  0.7 1 0  0.6666666666666667 1 0  0.6333333333333333 1 0  0.6 1 0  0.5666666666666667 1 0  0.5333333333333333 1 0  0.5 1 0  0.4666666666666667 1 0  0.4333333333333333 1 0  0.4 1 0  0.3666666666666667 1 0  0.3333333333333334 1 0  0.3 1 0  0.2666666666666667 1 0  0.2333333333333333 1 0  0.2 1 0  0.1666666666666666 1 0  0.1333333333333333 1 0  0.09999999999999998 1 0  0.06666666666666665 1 0  0.03333333333333333 1 0  0.6247072676344306 0.2689501343248463 0  0.6239274716502419 0.2788583817523955 0  0.6226301867455355 0.2887122389026952 0  0.6208189686880621 0.2984846970382296 0  0.6184987819006211 0.3081489705305245 0  0.6156759858539226 0.317678570277693 0  0.6123583176357204 0.3270473763092224 0  0.6085548707439923 0.3362297093789981 0  0.6042760701622942 0.3452004013503318 0  0.5995336437856049 0.3539348641800754 0  0.5943405902749808 0.3624091573127375 0  0.5887111434291297 0.3706000532998825 0  0.582660733170558 0.3784851014649517 0  0.5762059432532257 0.3860426894390078 0  0.5693644658076293 0.3932521023987353 0  0.5621550528479018 0.4000935798443317 0  0.5545974648738458 0.4065483697616639 0  0.5467124167087765 0.4125987800202355 0  0.5385215207216315 0.4182282268660866 0  0.5300472275889694 0.4234212803767108 0  0.5213127647592257 0.4281637067534002 0  0.512342072787892 0.4324425073350981 0  0.5031597397181163 0.4362459542268262 0  0.493790933686587 0.4395636224450283 0  0.4842613339394185 0.4423864184917269 0  0.4745970604471235 0.4447066052791678 0  0.4648246023115891 0.4465178233366412 0  0.4549707451612894 0.4478151082413475 0  0.4450624977337403 0.4485949042255363 0  0.4351270178464268 0.4488550739226177 0  0.4251915379591132 0.4485949042255363 0  0.4152832905315641 0.4478151082413475 0  0.4054294333812644 0.4465178233366411 0  0.39565697524573 0.4447066052791677 0  0.385992701753435 0.4423864184917267 0  0.3764631020062665 0.4395636224450281 0  0.3670942959747371 0.4362459542268259 0  0.3579119629049616 0.4324425073350978 0  0.3489412709336278 0.4281637067533998 0  0.3402068081038843 0.4234212803767103 0  0.3317325149712221 0.4182282268660862 0  0.3235416189840771 0.412598780020235 0  0.3156565708190078 0.4065483697616634 0  0.3080989828449519 0.4000935798443311 0  0.3008895698852244 0.3932521023987346 0  0.2940480924396279 0.3860426894390071 0  0.2875933025222958 0.3784851014649511 0  0.2815428922637242 0.3706000532998818 0  0.2759134454178731 0.3624091573127368 0  0.2707203919072489 0.3539348641800746 0  0.2659779655305596 0.3452004013503309 0  0.2616991649488616 0.3362297093789972 0  0.2578957180571336 0.3270473763092215 0  0.2545780498389315 0.3176785702776921 0  0.251755253792233 0.3081489705305236 0  0.249435067004792 0.2984846970382286 0  0.2476238489473186 0.2887122389026941 0  0.2463265640426123 0.2788583817523945 0  0.2455467680584236 0.2689501343248454 0  0.2452865983613423 0.2590146544375318 0  0.2455467680584237 0.2490791745502182 0  0.2463265640426126 0.2391709271226692 0  0.247623848947319 0.2293170699723696 0  0.2494350670047924 0.2195446118368351 0  0.2517552537922335 0.2098803383445402 0  0.2545780498389321 0.2003507385973717 0  0.2578957180571343 0.1909819325658423 0  0.2616991649488624 0.1817995994960667 0  0.2659779655305604 0.172828907524733 0  0.2707203919072498 0.1640944446949895 0  0.2759134454178741 0.1556201515623273 0  0.2815428922637251 0.1474292555751825 0  0.2875933025222969 0.1395442074101132 0  0.2940480924396291 0.1319866194360571 0  0.3008895698852256 0.1247772064763297 0  0.3080989828449531 0.1179357290307334 0  0.3156565708190092 0.1114809391134012 0  0.3235416189840785 0.1054305288548295 0  0.3317325149712236 0.09980108200897844 0  0.3402068081038856 0.0946080284983544 0  0.3489412709336291 0.08986560212166514 0  0.357911962904963 0.08558680153996717 0  0.3670942959747386 0.08178335464823916 0  0.3764631020062678 0.07846568643003712 0  0.3859927017534364 0.0756428903833386 0  0.3956569752457313 0.0733227035958976 0  0.4054294333812659 0.07151148553842429 0  0.4152832905315654 0.07021420063371797 0  0.4251915379591144 0.0694344046495293 0  0.435127017846428 0.0691742349524479 0  0.4450624977337415 0.06943440464952938 0  0.4549707451612905 0.07021420063371814 0  0.4648246023115901 0.07151148553842454 0  0.4745970604471245 0.07332270359589793 0  0.4842613339394195 0.07564289038333902 0  0.4937909336865879 0.07846568643003757 0  0.5031597397181173 0.0817833546482398 0  0.5123420727878929 0.08558680153996781 0  0.5213127647592265 0.08986560212166581 0  0.53004722758897 0.0946080284983552 0  0.5385215207216321 0.09980108200897933 0  0.5467124167087771 0.1054305288548305 0  0.5545974648738462 0.1114809391134021 0  0.5621550528479023 0.1179357290307343 0  0.5693644658076298 0.1247772064763308 0  0.576205943253226 0.1319866194360582 0  0.5826607331705582 0.1395442074101142 0  0.5887111434291299 0.1474292555751835 0  0.594340590274981 0.1556201515623285 0  0.5995336437856051 0.1640944446949906 0  0.6042760701622945 0.172828907524734 0  0.6085548707439925 0.1817995994960678 0  0.6123583176357205 0.1909819325658435 0  0.6156759858539227 0.2003507385973728 0  0.6184987819006211 0.2098803383445412 0  0.6208189686880622 0.2195446118368362 0  0.6226301867455355 0.2293170699723706 0  0.6239274716502419 0.2391709271226702 0  0.6247072676344306 0.2490791745502192 0  0.203885768735257 0.3325402459548524 0  0.2015714905276826 0.3421799084407872 0  0.1977777294810124 0.3513388578120612 0  0.1925979005829864 0.3597915703383434 0  0.1861595484119405 0.3673299121842922 0  0.1786212065659918 0.373768264355338 0  0.1701684940397096 0.378948093253364 0  0.1610095446684356 0.3827418543000342 0  0.1513698821825007 0.3850561325076086 0  0.1414868670645144 0.3858339426659677 0  0.1316038519465281 0.3850561325076086 0  0.1219641894605933 0.3827418543000343 0  0.1128052400893193 0.378948093253364 0  0.1043525275630371 0.3737682643553381 0  0.09681418571708833 0.3673299121842922 0  0.09037583354604248 0.3597915703383434 0  0.08519600464801645 0.3513388578120612 0  0.08140224360134621 0.3421799084407872 0  0.07908796539377183 0.3325402459548523 0  0.07831015523541281 0.3226572308368659 0  0.07908796539377186 0.3127742157188796 0  0.08140224360134626 0.3031345532329447 0  0.08519600464801655 0.2939756038616707 0  0.0903758335460426 0.2855228913353884 0  0.0968141857
[...]
<PointData  Tensors="$\sigma$"> 
<DataArray  type="Float64"  Name="$\sigma$"  NumberOfComponents="9" format="ascii">1.7197739879047958e+02 2.9701637829200092e+01 0.0000000000000000e+00 2.9701637829200180e+01 1.2451607065172977e+04 0.0000000000000000e+00 0.0000000000000000e+00 0.0000000000000000e+00 0.0000000000000000e+00  1.4624333207602883e+03 1.1231722710438240e+02 0.0000000000000000e+00 1.1231722710438255e+02 6.0877878618883933e+03 0.0000000000000000e+00 0.0000000000000000e+00 0.0000000000000000e+00 0.0000000000000000e+00  -3.1270448561046450e+01 -2.6053170183401125e+01 0.0000000000000000e+00 -2.6053170183401122e+01 6.2311607786321383e+03 0.0000000000000000e+00 0.0000000000000000e+00 0.0000000000000000e+00 0.0000000000000000e+00  8.2568609896310718e+00 -5.3624929902121927e+00 0.0000000000000000e+00 -5.3624929902122389e+00 6.3952432165253113e+03 0.0000000000000000e+00 0.0000000000000000e+00 0.0000000000000000e+00 0.0000000000000000e+00  8.2806300015671308e+00 1.2790719283841369e+01 0.0000000000000000e+00 1.2790719283841394e+01 5.5941597702152139e+03 0.0000000000000000e+00 0.0000000000000000e+00 0.0000000000000000e+00 0.0000000000000000e+00  1.1365460906891462e+02 -5.5096207361620415e+01 0.0000000000000000e+00 -5.5096207361619705e+01 1.2126368487974702e+04 0.0000000000000000e+00 0.0000000000000000e+00 0.0000000000000000e+00 0.0000000000000000e+00  -1.1071706278756743e+02 3.3537859737772283e+02 0.0000000000000000e+00 3.3537859737772368e+02 -8.1006553073038177e+00 0.0000000000000000e+00 0.0000000000000000e+00 0.0000000000000000e+00 0.0000000000000000e+00  6.7966636684879950e+02 3.5554015266664419e+02 0.0000000000000000e+00 3.5554015266664442e+02 1.2848054283602200e+04 0.0000000000000000e+00 0.0000000000000000e+00 0.0000000000000000e+00 0.0000000000000000e+00  4.4728574864702338e+01 -2.8571686751608149e+02 0.0000000000000000e+00 -2.8571686751608217e+02 1.2368164990020632e+04 0.0000000000000000e+00 0.0000000000000000e+00 0.0000000000000000e+00 0.0000000000000000e+00  -3.9061285102213742e+02 1.5736433661782297e+02 0.0000000000000000e+00 1.5736433661782317e+02 -3.7261754286656077e+02 0.0000000000000000e+00 0.0000000000000000e+00 0.0000000000000000e+00 0.0000000000000000e+00  -1.5378929186002230e+01 -7.7397904257484655e+01 0.0000000000000000e+00 -7.7397904257484669e+01 -5.9412881088965730e+02 0.0000000000000000e+00 0.0000000000000000e+00 0.0000000000000000e+00 0.0000000000000000e+00  1.9788858913936465e+02 5.0275849880139117e+02 0.0000000000000000e+00 5.0275849880139140e+02 6.9214963640255000e+03 0.0000000000000000e+00 0.0000000000000000e+00 0.0000000000000000e+00 0.0000000000000000e+00  2.9359009334056270e+02 -4.1288409266955995e+01 0.0000000000000000e+00 -4.1288409266956108e+01 1.1832479488564135e+04 0.0000000000000000e+00 0.0000000000000000e+00 0.0000000000000000e+00 0.0000000000000000e+00  1.3330006036222377e+02 7.1537775273029922e+01 0.0000000000000000e+00 7.1537775273029951e+01 1.2079148610147024e+04 0.0000000000000000e+00 0.0000000000000000e+00 0.0000000000000000e+00 0.0000000000000000e+00  -1.2344654203321086e+02 -2.3354418209863093e+02 0.0000000000000000e+00 -2.3354418209863005e+02 -1.5385716875474247e+03 0.0000000000000000e+00 0.0000000000000000e+00 0.0000000000000000e+00 0.0000000000000000e+00  -3.7589189548922900e+02 -2.4481226779009609e+02 0.0000000000000000e+00 -2.4481226779009640e+02 -1.7624799663370598e+03 0.0000000000000000e+00 0.0000000000000000e+00 0.0000000000000000e+00 0.0000000000000000e+00  2.3319703309291945e+01 -1.3220281085034298e+02 0.0000000000000000e+00 -1.3220281085034424e+02 7.8239144977344367e+03 0.0000000000000000e+00 0.0000000000000000e+00 0.0000000000000000e+00 0.0000000000000000e+00  1.3054536692977311e+02 1.1642348046974064e+02 0.0000000000000000e+00 1.1642348046974081e+02 9.8544879252847222e+03 0.0000000000000000e+00 0.0000000000000000e+00 0.0000000000000000e+00 0.0000000000000000e+00  6.0952682287888192e+03 6.0528659809172075e+02 0.0000000000000000e+00 6.0528659809172098e+02 1.8364120363381862e+04 0.0000000000000000e+00 0.0000000000000000e+00 0.0000000000000000e+00 0.0000000000000000e+00  1.1819604695029534e+03 1.1607740631118077e+02 0.0000000000000000e+00 1.1607740631118109e+02 1.3082945403819049e+04 0.0000000000000000e+00 0.0000000000000000e+00 0.0000000000000000e+00 0.0000000000000000e+00  4.6845069043362905e+01 1.8656876239146598e+02 0.0000000000000000e+00 1.8656876239146493e+02 9.7750327884852140e+03 0.0000000000000000e+00 0.0000000000000000e+00 0.0000000000000000e+00 0.0000000000000000e+00  1.1500454359951280e+02 4.6153894453259397e+01 0.0000000000000000e+00 4.6153894453259099e+01 4.5746043429896208e+03 0.0000000000000000e+00 0.0000000000000000e+00 0.0000000000000000e+00 0.0000000000000000e+00  6.4488401405414959e+02 -1.7664183665589953e+03 0.0000000000000000e+00 -1.7664183665589946e+03 7.8464088199179787e+03 0.0000000000000000e+00 0.0000000000000000e+00 0.0000000000000000e+00 0.0000000000000000e+00  -2.6480532544528228e+02 -5.8435390270081302e+02 0.0000000000000000e+00 -5.8435390270081359e+02 2.0987843931991324e+03 0.0000000000000000e+00 0.0000000000000000e+00 0.0000000000000000e+00 0.0000000000000000e+00  -2.2463492290084623e+03 1.4468911973500408e+03 0.0000000000000000e+00 1.4468911973500437e+03 -9.9884353471264785e+02 0.0000000000000000e+00 0.0000000000000000e+00 0.0000000000000000e+00 0.0000000000000000e+00  -5.0176722459163902e+03 1.8003540675328177e+03 0.0000000000000000e+00 1.8003540675328227e+03 -9.5550976184572505e+02 0.0000000000000000e+00 0.0000000000000000e+00 0.0000000000000000e+00 0.0000000000000000e+00  -3.8369472505561671e+03 9.7682110816918896e+02 0.0000000000000000e+00 9.7682110816918600e+02 -6.4369573998601777e+02 0.0000000000000000e+00 0.0000000000000000e+00 0.0000000000000000e+00 0.0000000000000000e+00  1.5430708685320153e+03 2.5955092470581421e+03 0.0000000000000000e+00 2.5955092470581426e+03 1.6289995074006765e+03 0.0000000000000000e+00 0.0000000000000000e+00 0.0000000000000000e+00 0.0000000000000000e+00  8.4024746116559127e+03 5.3844170637932048e+03 0.0000000000000000e+00 5.3844170637932057e+03 2.9843143086395980e+03 0.0000000000000000e+00 0.0000000000000000e+00 0.0000000000000000e+00 0.0000000000000000e+00  8.2771296419538357e+03 6.3533072316781490e+03 0.0000000000000000e+00 6.3533072316781581e+03 6.1680908470228587e+03 0.0000000000000000e+00 0.0000000000000000e+00 0.0000000000000000e+00 0.0000000000000000e+00  3.6568712639722398e+03 5.0494644885304360e+03 0.0000000000000000e+00 5.0494644885304415e+03 7.0327381244156168e+03 0.0000000000000000e+00 0.0000000000000000e+00 0.0000000000000000e+00 0.0000000000000000e+00  1.3019687209905185e+03 2.2008788849496405e+03 0.0000000000000000e+00 2.2008788849496409e+03 5.8156482426539487e+03 0.0000000000000000e+00 0.0000000000000000e+00 0.0000000000000000e+00 0.0000000000000000e+00  5.3292924662669414e+01 3.5272522786409610e+02 0.0000000000000000e+00 3.5272522786409661e+02 4.8461136284053864e+03 0.0000000000000000e+00 0.0000000000000000e+00 0.0000000000000000e+00 0.0000000000000000e+00  1.9440407046031513e+02 -3.5336209672081674e+02 0.0000000000000000e+00 -3.5336209672081657e+02 2.1712053236118154e+03 0.0000000000000000e+00 0.0000000000000000e+00 0.0000000000000000e+00 0.0000000000000000e+00  -2.8694279607968394e+02 2.5395822068681110e+02 0.0000000000000000e+00 2.5395822068681036e+02 4.1001875194799261e+01 0.0000000000000000e+00 0.0000000000000000e+00 0.0000000000000000e+00 0.0000000000000000e+00  -1.6406318052117495e+03 1.2298927174897415e+03 0.0000000000000000e+00 1.2298927174897433e+03 -9.5212908604018173e+02 0.0000000000000000e+00 0.0000000000000000e+00 0.0000000000000000e+00 0.0000000000000000e+00  -3.1375342841578013e+03 1.2793556040158728e+03 0.0000000000000000e+00 1.2793556040158714e+03 -8.0591217953266607e+02 0.0000000000000000e+00 0.0000000000000000e+00 0.0000000000000000e+00 0.0000000000000000e+00  -3.2136318690974499e+03 6.5992112279817331e+02 0.0000000000000000e+00 6.5992112279817241e+02 -4.0547920486808994e+02 0.0000000000000000e+00 0.0000000000000000e+00 0.0000000000000000e+00 0.0000000000000000e+00  -1.4637340816142273e+03 8.9084681734785089e+00 0.0000000000000000e+00 8.9084681734775373e+00 9.6833520592336754e+01 0.0000000000000000e+00 0.0000000000000000e+00 0.0000000000000000e+00 0.0000000000000000e+00  1.6410397169566631e+03 1.1192198630830744e+03 0.0000000000000000e+00 1.1192198630830733e+03 6.1458698948082645e+02 0.0000000000000000e+00 0.0000000000000000e+00 0.0000000000000000e+00 0.0000000000000000e+00  3.3442742440333063e+03 2.9307898960300049e+03 0.0000000000000000e+00 2.9307898960300049e+03 3.3122106745625306e+03 0.0000000000000000e+00 0.0000000000000000e+00 0.0000000000000000e+00 0.0000000000000000e+00  2.8083352981391768e+03 4.5138821949187695e+03 0.0000000000000000e+00 4.5138821949187777e+03 7.5333451666228066e+03 0.0000000000000000e+00 0.0000000000000000e+00 0.0000000000000000e+00 0.0000000000000000e+00  1.6807281824581034e+03 2.8960006012464619e+03 0.0000000000000000e+00 2.8960006012464632e+03 1.1422826558825509e+04 0.0000000000000000e+00 0.0000000000000000e+00 0.0000000000000000e+00 0.0000000000000000e+00  4.8834154653420603e+02 -3.6263239352308113e+02 0.0000000000000000e+00 -3.6263239352308153e+02 5.1069831605251275e+03 0.0000000000000000e+00 0.0000000000000000e+00 0.0000000000000000e+00 0.0000000000000000e+00  -9.8689794005432418e+01 6.0794158872072252e+01 0.0000000000000000e+00 6.0794158872072167e+01 4.4670144948649404e+03 0.0000000000000000e+00 0.0000000000000000e+00 0.0000000000000000e+00 0.0000000000000000e+00  3.0485495710151372e+02 -1.2001831873999294e+01 0.0000000000000000e+00 -1.2001831873999279e+01 3.4118439029217539e+03 0.0000000000000000e+00 0.0000000000000000e+00 0.0000000000000000e+00 0.0000000000000000e+00  -3.7296488885392712e+01 5.1379081612745722e+01 0.0000000000000000e+00 5.1379081612745672e+01 2.8636992485837563e+03 0.0000000000000000e+00 0.0000000000000000e+00 0.0000000000000000e+00 0.0000000000000000e+00  8.6273832591093921e+01 4.1980528777600597e+01 0.0000000000000000e+00 4.1980528777600568e+01 2.2614327050423767e+03 0.0000000000000000e+00 0.0000000000000000e+00 0.0000000000000000e+00 0.0000000000000000e+00  -1.0116331131526115e+02 3.0597965482897855e+01 0.0000000000000000e+00 3.0597965482897862e+01 1.7172484382993550e+03 0.0000000000000000e+00 0.0000000000000000e+00 0.0000000000000000e+00 0.0000000000000000e+00  -1.4510334259500021e+02 1.1673886428191674e+01 0.0000000000000000e+00 1.1673886428191716e+01 1.2433135822972927e+03 0.0000000000000000e+00 0.0000000000000000e+00 0.0000000000000000e+00 0.0000000000000000e+00  -2.5038601952946649e+02 9.0937356775148643e+00 0.0000000000000000e+00 9.0937356775148785e+00 7.7170206316216957e+02 0.0000000000000000e+00 0.0000000000000000e+00 0.0000000000000000e+00 0.0000000000000000e+00  -2.5333873319426505e+02 1.0801302671294449e+01 0.0000000000000000e+00 1.0801302671294449e+01 3.0636816120771920e+02 0.0000000000000000e+00 0.0000000000000000e+00 0.0000000000000000e+00 0.0000000000000000e+00  -3.0132290484208488e+02 1.7099856748214492e+01 0.0000000000000000e+00 1.7099856748214446e+01 -5.6514917344220414e+01 0.0000000000000000e+00 0.0000000000000000e+00 0.0000000000000000e+00 0.0000000000000000e+00  -4.0240917345740939e+02 1.4043100735630032e+01 0.0000000000000000e+00 1.4043100735630038e+01 -2.0208866969619885e+02 0.0000000000000000e+00 0.0000000000000000e+00 0.0000000000000000e+00 0.0000000000000000e+00  -4.8533833421402431e+02 8.6157936806097485e-02 0.0000000000000000e+00 8.6157936806103050e-02 -2.0257017418954260e+02 0.0000000000000000e+00 0.0000000000000000e+00 0.0000000000000000e+00 0.0000000000000000e+00  -5.5047110969918617e+02 4.2658622355301388e+00 0.0000000000000000e+00 4.2658622355301290e+00 -1.0767423405543971e+02 0.0000000000000000e+00 0.0000000000000000e+00 0.0000000000000000e+00 0.0000000000000000e+00  -5.9623683633932831e+02 -8.7949746775024167e+00 0.0000000000000000e+00 -8.7949746775023936e+00 8.3468327931011046e+01 0.0000000000000000e+00 0.0000000000000000e+00 0.0000000000000000e+00 0.0000000000000000e+00  -7.2456541823546229e+02 6.7153888623624773e+00 0.0000000000000000e+00 6.7153888623622464e+00 5.0814578126003551e+02 0.0000000000000000e+00 0.0000000000000000e+00 0.0000000000000000e+00 0.0000000000000000e+00  -1.0633312851464550e+03 2.5191878896181194e+01 0.0000000000000000e+00 2.5191878896181400e+01 1.1061192834583396e+03 0.0000000000000000e+00 0.0000000000000000e+00 0.0000000000000000e+00 0.0000000000000000e+00  -1.5968870508958212e+03 7.1717339466373431e+01 0.0000000000000000e+00 7.1717339466373460e+01 1.6189033669913488e+03 0.0000000000000000e+00 0.0000000000000000e+00 0.0000000000000000e+00 0.0000000000000000e+00  -1.8285321980783899e+03 -7.3095459533210658e+01 0.0000000000000000e+00 -7.3095459533210629e+01 1.0589685784026601e+03 0.0000000000000000e+00 0.0000000000000000e+00 0.0000000000000000e+00 0.0000000000000000e+00  -1.4171083303672615e+03 1.3781470100107621e+01 0.0000000000000000e+00 1.3781470100107633e+01 -1.7895360964942608e+02 0.0000000000000000e+00 0.0000000000000000e+00 0.0000000000000000e+00 0.0000000000000000e+00  -1.6119026863328552e+03 6.0705908798010462e+01 0.0000000000000000e+00 6.0705908798010547e+01 6.0881441228528365e+02 0.0000000000000000e+00 0.0000000000000000e+00 0.0000000000000000e+00 0.0000000000000000e+00  -1.3411440151781308e+03 -5.2245284692930689e+01 0.0000000000000000e+00 -5.2245284692930340e+01 1.3593244218578718e+03 0.0000000000000000e+00 0.0000000000000000e+00 0.0000000000000000e+00 0.0000000000000000e+00  -6.6496994526379922e+02 -5.7222574486374242e+01 0.0000000000000000e+00 -5.7222574486374448e+01 8.0740136108238869e+02 0.0000000000000000e+00 0.0000000000000000e+00 0.0000000000000000e+00 0.0000000000000000e+00  5.5993470228239694e+01 -3.1315000312029316e+01 0.0000000000000000e+00 -3.1315000312029106e+01 5.7225716485436715e+02 0.0000000000000000e+00 0.0000000000000000e+00 0.0000000000000000e+00 0.0000000000000000e+00  2.0358895122876419e+02 -1.7763352454959346e+01 0.0000000000000000e+00 -1.7763352454959509e+01 7.5345631003475671e+02 0.0000000000000000e+00 0.0000000000000000e+00 0.0000000000000000e+00 0.0000000000000000e+00  2.7018815566465105e+02 -1.5819149583249917e+01 0.0000000000000000e+00 -1.5819149583249882e+01 1.4055211227462364e+03 0.0000000000000000e+00 0.0000000000000000e+00 0.0000000000000000e+00 0.0000000000000000e+00  2.1400975679599594e+02 -3.0409828718658865e+01 0.0000000000000000e+00 -3.0409828718658886e+01 2.2308975081960384e+03 0.0000000000000000e+00 0.0000000000000000e+00 0.0000000000000000e+00 0.0000000000000000e+00  2.4428301663137597e+02 -2.8979440316604219e+01 0.0000000000000000e+00 -2.8979440316604176e+01 3.2191269014886016e+03 0.0000000000000000e+00 0.0000000000000000e+00 0.0000000000000000e+00 0.0000000000000000e+00  4.9004886334425933e+01 -1.9359226696016805e+01 0.0000000000000000e+00 -1.9359226696016929e+01 4.3191349148735335e+03 0.0000000000000000e+00 0.0000000000000000e+00 0.0000000000000000e+00 0.0000000000000000e+00  9.4854986266731842e+01 -3.0732361905643941e+01 0.0000000000000000e+00 -3.0732361905643977e+01 5.3018523880803241e+03 0.0000000000000000e+00 0.0000000000000000e+00 0.0000000000000000e+00 0.0000000000000000e+00  5.8449808534908296e+00 4.4664904495238908e+01 0.0000000000000000e+00 4.4664904495238964e+01 6.4436247353043937e+03 0.0000000000000000e+00 0.0000000000000000e+00 0.0000000000000000e+00 0.0000000000000000e+00  5.6779348025896625e-01 1.8208389241328746e+01 0.0000000000000000e+00 1.8208389241328845e+01 6.6720647754763013e+03 0.0000000000000000e+00 0.0000000000000000e+00 0.0000000000000000e+00 0.0000000000000000e+00  -3.0220706821581911e+00 3.3792388822591455e+01 0.0000000000000000e+00 3.3792388822591761e+01 6.8022386829038778e+03 0.0000000000000000e+00 0.0000000000000000e+00 0.0000000000000000e+00 0.0000000000000000e+00  -1.4076799785949396e+01 1.5915434296268208e+01 0.0000000000000000e+00 1.5915434296268293e+01 6.9991489634372138e+03 0.0000000000000000e+00 0.0000000000000000e+00 0.0000000000000000e+00 0.0000000000000000e+00  2.5582813892000917e+01 8.5902626984208759e+00 0.0000000000000000e+00 8.5902626984207640e+00 7.2777344669925769e+03 0.0000000000000000e+00 0.0000000000000000e+00 0.0000000000000000e+00 0.0000000000000000e+00  -5.8801282144503482e+00 7.3881603492328850e+01 0.0000000000000000e+00 7.3881603492328566e+01 7.3909174819004984e+03 0.0000000000000000e+00 0.0000000000000000e+00 0.0000000000000000e+00 0.0000000000000000e+00  -4.7078746582219289e+01 8.5941687455822290e+01 0.0000000000000000e+00 8.5941687455821949e+01 8.0395479725451187e+03 0.0000000000000000e+00 0.0000000000000000e+00 0.0000000000000000e+00 0.0000000000000000e+00  -4.5144723524909098e+00 1.5495244579891997e+02 0.0000000000000000e+00 1.5495244579892005e+02 8.8306244924157909e+03 0.0000000000000000e+00 0.0000000000000000e+00 0.0000000000000000e+00 0.0000000000000000e+00  -1.7272211274127077e+01 7.9582142555155713e+01 0.0000000000000000e+00 7.9582142555155315e+01 9.8709099340882058e+03 0.0000000000000000e+00 0.0000000000000000e+00 0.0000000000000000e+00 0.0000000000000000e+00  -4.8825248176144818e+01 -4.5719781662985653e+01 0.0000000000000000e+00 -4.5719781662985888e+01 1.0146616539507657e+04 0.0000000000000000e+00 0.0000000000000000e+00 0.0000000000000000e+00 0.0000000000000000e+00  -8.3201527141383963e+01 -3.5427926935833619e+02 0.0000000000000000e+00 -3.5427926935833551e+02 9.2105179719129937e+03 0.0000000000000000e+00 0.0000000000000000e+00 0.0000000000000000e+00 0.0000000000000000e+00  -3.2229785671461025e+02 -9.0535302962709784e+02 0.0000000000000000e+00 -9.0535302962709738e+02 7.0139326381486671e+03 0.0000000000000000e+00 0.0000000000000000e+00 0.0000000000000000e+00 0.0000000000000000e+00  5.0781649129437073e+02 1.3922787657941373e+02 0.0000000000000000e+00 1.3922787657941385e+02 2.2991891459075796e+03 0.0000000000000000e+00 0.0000000000000000e+00 0.0000000000000000e+00 0.0000000000000000e+00  5.4835650208592074e+02 9.1097973628366242e+02 0.0000000000000000e+00 9.1097973628366151e+02 2.7214508950053796e+03 0.0000000000000000e+00 0.0000000000000000e+00 0.0000000000000000e+00 0.0000000000000000e+00  2.5813431704440976e+01 5.5637240644438282e+02 0.0000000000000000e+00 5.5637240644438180e+02 8.9789930192861375e+03 0.0000000000000000e+00 0.0000000000000000e+00 0.0000000000000000e+00 0.0000000000000000e+00  1.3004847850144330e+02 2.6312390503731291e+02 0.0000000000000000e+00 2.6312390503731126e+02 1.2027883676739832e+04 0.0000000000000000e+00 0.0000000000000000e+00 0.0000000000000000e+00 0.0000000000000000e+00  5.7206473580919533e+02 -6.6776129717271647e+02 0.0000000000000000e+00 -6.6776129717271806e+02 1.2420236310819408e+04 0.0000000000000000e+00 0.0000000000000000e+00 0.0000000000000000e+00 0.0000000000000000e+00  -5.9233822909282242e+02 -3.0643973221155255e+02 0.0000000000000000e+00 -3.0643973221155227e+02 7.7376538179404870e+03 0.0000000000000000e+00 0.0000000000000000e+00 0.0000000000000000e+00 0.0000000000000000e+00  -2.7896566821521793e+02 4.2272802153826831e+02 0.0000000000000000e+00 4.2272802153826825e+02 1.0402187364713023e+04 0.0000000000000000e+00 0.0000000000000000e+00 0.0000000000000000e+00 0.0000000000000000e+00  6.0514231371706835e+01 -2.7494826848816859e+02 0.0000000000000000e+00 -2.7494826848816791e+02 9.8094933329812175e+03 0.0000000000000000e+00 0.0000000000000000e+00 0.0000000000000000e+00 0.0000000000000000e+00  -9.9400952914576465e+01 -3.1221970078243180e+02 0.0000000000000000e+00 -3.1221970078243186e+02 7.4234333737514362e+03 0.0000000000000000e+00 0.0000000000000000e+00 0.0000000000000000e+00 0.0000000000000000e+00  8.1770038294153309e+01 -8.2540818253147989e+00 0.0000000000000000e+00 -8.2540818253151169e+00 6.8362979919009113e+03 0.0000000000000000e+00 0.0000000000000000e+00 0.0000000000000000e+00 0.0000000000000000e+00  -6.1460333146655287e+01 -2.2951176793174142e+01 0.0000000000000000e+00 -2.2951176793174046e+01 6.5976250403061395e+03 0.0000000000000000e+00 0.0000000000000000e+00 0.0000000000000000e+00 0.000000000000000