<?xml version="1.0"?>
<VTKFile type="UnstructuredGrid"  version="0.1"  >
<UnstructuredGrid>
<Piece  NumberOfPoints="3879" NumberOfCells="6881">
<Points>
<DataArray  type="Float64"  NumberOfComponents="3"  format="ascii">0.207524190028372 0.2122422770132111 0  0 0 0  1 0 0  0 1 0  1 1 0  0.6249674373315121 0.2590146544375328 0  0.204663578893616 0.322657230836866 0  0.09605577522599912 0.4018360776629776 0  0.671351124618251 0.08738059142081528 0  0.7842102907526436 0.1666439122351055 0  0.8512483166984784 0.1985391006160637 0  0.6418797837909295 0.4423157172830166 0  0.9292488447973215 0.3869277868069776 0  0.3197896119137055 0.5509935221980964 0  0.3979283685568406 0.5079871620336583 0  0.1572503457993085 0.7345153245035532 0  0.3032914287999163 0.7872981443735918 0  0.3549464687598876 0.8870324161721976 0  0.9691791685505482 0.5159450047798622 0  0.9447564590470373 0.6146164845729313 0  0.7687603548175107 0.7176858127488035 0  0.8926159261971183 0.7422924070424508 0  0.2061587782631535 0.2217389244366831 0  0.2021731605082994 0.2304662099646423 0  0.1958902278109265 0.2377171008267789 0  0.1878189860121365 0.2429041729681512 0  0.1786133191209442 0.2456072006525708 0  0.1690190155206647 0.2456072006525708 0  0.1598133486294724 0.2429041729681512 0  0.1517421068306824 0.2377171008267789 0  0.1454591741333096 0.2304662099646422 0  0.1414735563784554 0.221738924436683 0  0.1401081446132369 0.212242277013211 0  0.1414735563784555 0.202745629589739 0  0.1454591741333096 0.1940183440617798 0  0.1517421068306825 0.1867674531996431 0  0.1598133486294725 0.1815803810582709 0  0.1690190155206649 0.1788773533738513 0  0.1786133191209443 0.1788773533738514 0  0.1878189860121367 0.181580381058271 0  0.1958902278109266 0.1867674531996433 0  0.2021731605082994 0.19401834406178 0  0.2061587782631535 0.2027456295897391 0  0.03333333333333333 0 0  0.06666666666666667 0 0  0.1 0 0  0.1333333333333333 0 0  0.1666666666666667 0 0  0.2 0 0  0.2333333333333333 0 0  0.2666666666666667 0 0  0.3 0 0  0.3333333333333333 0 0  0.3666666666666666 0 0  0.4 0 0  0.4333333333333333 0 0  0.4666666666666667 0 0  0.5 0 0  0.5333333333333333 0 0  0.5666666666666667 0 0  0.6 0 0  0.6333333333333333 0 0  0.6666666666666666 0 0  0.7 0 0  0.7333333333333333 0 0  0.7666666666666667 0 0  0.8 0 0  0.8333333333333334 0 0  0.8666666666666667 0 0  0.9 0 0  0.9333333333333333 0 0  0.9666666666666667 0 0  0 0.9666666666666667 0  0 0.9333333333333333 0  0 0.9 0  0 0.8666666666666667 0  0 0.8333333333333334 0  0 0.8 0  0 0.7666666666666666 0  0 0.7333333333333334 0  0 0.7 0  0 0.6666666666666667 0  0 0.6333333333333333 0  0 0.6 0  0 0.5666666666666667 0  0 0.5333333333333333 0  0 0.5 0  0 0.4666666666666667 0  0 0.4333333333333333 0  0 0.4 0  0 0.3666666666666667 0  0 0.3333333333333334 0  0 0.3 0  0 0.2666666666666667 0  0 0.2333333333333333 0  0 0.2 0  0 0.1666666666666666 0  0 0.1333333333333333 0  0 0.09999999999999998 0  0 0.06666666666666665 0  0 0.03333333333333333 0  1 0.03333333333333333 0  1 0.06666666666666667 0  1 0.1 0  1 0.1333333333333333 0  1 0.1666666666666667 0  1 0.2 0  1 0.2333333333333333 0  1 0.2666666666666667 0  1 0.3 0  1 0.3333333333333333 0  1 0.3666666666666666 0  1 0.4 0  1 0.4333333333333333 0  1 0.4666666666666667 0  1 0.5 0  1 0.5333333333333333 0  1 0.5666666666666667 0  1 0.6 0  1 0.6333333333333333 0  1 0.6666666666666666 0  1 0.7 0  1 0.7333333333333333 0  1 0.7666666666666667 0  1 0.8 0  1 0.8333333333333334 0  1 0.8666666666666667 0  1 0.9 0  1 0.9333333333333333 0  1 0.9666666666666667 0  0.9666666666666667 1 0  0.9333333333333333 1 0  0.9 1 0  0.8666666666666667 1 0  0.8333333333333334 1 0  0.8 1 0  0.7666666666666666 1 0  0.7333333333333334 1 0  0.7 1 0  0.6666666666666667 1 0  0.6333333333333333 1 0  0.6 1 0  0.5666666666666667 1 0  0.5333333333333333 1 0  0.5 1 0  0.4666666666666667 1 0  0.4333333333333333 1 0  0.4 1 0  0.3666666666666667 1 0  0.3333333333333334 1 0  0.3 1 0  0.2666666666666667 1 0  0.2333333333333333 1 0  0.2 1 0  0.1666666666666666 1 0  0.1333333333333333 1 0  0.09999999999999998 1 0  0.06666666666666665 1 0  0.03333333333333333 1 0  0.6247072676344306 0.2689501343248463 0  0.6239274716502419 0.2788583817523955 0  0.6226301867455355 0.2887122389026952 0  0.6208189686880621 0.2984846970382296 0  0.6184987819006211 0.3081489705305245 0  0.6156759858539226 0.317678570277693 0  0.6123583176357204 0.3270473763092224 0  0.6085548707439923 0.3362297093789981 0  0.6042760701622942 0.3452004013503318 0  0.5995336437856049 0.3539348641800754 0  0.5943405902749808 0.3624091573127375 0  0.5887111434291297 0.3706000532998825 0  0.582660733170558 0.3784851014649517 0  0.5762059432532257 0.3860426894390078 0  0.5693644658076293 0.3932521023987353 0  0.5621550528479018 0.4000935798443317 0  0.5545974648738458 0.4065483697616639 0  0.5467124167087765 0.4125987800202355 0  0.5385215207216315 0.4182282268660866 0  0.5300472275889694 0.4234212803767108 0  0.5213127647592257 0.4281637067534002 0  0.512342072787892 0.4324425073350981 0  0.5031597397181163 0.4362459542268262 0  0.493790933686587 0.4395636224450283 0  0.4842613339394185 0.4423864184917269 0  0.4745970604471235 0.4447066052791678 0  0.4648246023115891 0.4465178233366412 0  0.4549707451612894 0.4478151082413475 0  0.4450624977337403 0.4485949042255363 0  0.4351270178464268 0.4488550739226177 0  0.4251915379591132 0.4485949042255363 0  0.4152832905315641 0.4478151082413475 0  0.4054294333812644 0.4465178233366411 0  0.39565697524573 0.4447066052791677 0  0.385992701753435 0.4423864184917267 0  0.3764631020062665 0.4395636224450281 0  0.3670942959747371 0.4362459542268259 0  0.3579119629049616 0.4324425073350978 0  0.3489412709336278 0.4281637067533998 0  0.3402068081038843 0.4234212803767103 0  0.3317325149712221 0.4182282268660862 0  0.3235416189840771 0.412598780020235 0  0.3156565708190078 0.4065483697616634 0  0.3080989828449519 0.4000935798443311 0  0.3008895698852244 0.3932521023987346 0  0.2940480924396279 0.3860426894390071 0  0.2875933025222958 0.3784851014649511 0  0.2815428922637242 0.3706000532998818 0  0.2759134454178731 0.3624091573127368 0  0.2707203919072489 0.3539348641800746 0  0.2659779655305596 0.3452004013503309 0  0.2616991649488616 0.3362297093789972 0  0.2578957180571336 0.3270473763092215 0  0.2545780498389315 0.3176785702776921 0  0.251755253792233 0.3081489705305236 0  0.249435067004792 0.2984846970382286 0  0.2476238489473186 0.2887122389026941 0  0.2463265640426123 0.2788583817523945 0  0.2455467680584236 0.2689501343248454 0  0.2452865983613423 0.2590146544375318 0  0.2455467680584237 0.2490791745502182 0  0.2463265640426126 0.2391709271226692 0  0.247623848947319 0.2293170699723696 0  0.2494350670047924 0.2195446118368351 0  0.2517552537922335 0.2098803383445402 0  0.2545780498389321 0.2003507385973717 0  0.2578957180571343 0.1909819325658423 0  0.2616991649488624 0.1817995994960667 0  0.2659779655305604 0.172828907524733 0  0.2707203919072498 0.1640944446949895 0  0.2759134454178741 0.1556201515623273 0  0.2815428922637251 0.1474292555751825 0  0.2875933025222969 0.1395442074101132 0  0.2940480924396291 0.1319866194360571 0  0.3008895698852256 0.1247772064763297 0  0.3080989828449531 0.1179357290307334 0  0.3156565708190092 0.1114809391134012 0  0.3235416189840785 0.1054305288548295 0  0.3317325149712236 0.09980108200897844 0  0.3402068081038856 0.0946080284983544 0  0.3489412709336291 0.08986560212166514 0  0.357911962904963 0.08558680153996717 0  0.3670942959747386 0.08178335464823916 0  0.3764631020062678 0.07846568643003712 0  0.3859927017534364 0.0756428903833386 0  0.3956569752457313 0.0733227035958976 0  0.4054294333812659 0.07151148553842429 0  0.4152832905315654 0.07021420063371797 0  0.4251915379591144 0.0694344046495293 0  0.435127017846428 0.0691742349524479 0  0.4450624977337415 0.06943440464952938 0  0.4549707451612905 0.07021420063371814 0  0.4648246023115901 0.07151148553842454 0  0.4745970604471245 0.07332270359589793 0  0.4842613339394195 0.07564289038333902 0  0.4937909336865879 0.07846568643003757 0  0.5031597397181173 0.0817833546482398 0  0.5123420727878929 0.08558680153996781 0  0.5213127647592265 0.08986560212166581 0  0.53004722758897 0.0946080284983552 0  0.5385215207216321 0.09980108200897933 0  0.5467124167087771 0.1054305288548305 0  0.5545974648738462 0.1114809391134021 0  0.5621550528479023 0.1179357290307343 0  0.5693644658076298 0.1247772064763308 0  0.576205943253226 0.1319866194360582 0  0.5826607331705582 0.1395442074101142 0  0.5887111434291299 0.1474292555751835 0  0.594340590274981 0.1556201515623285 0  0.5995336437856051 0.1640944446949906 0  0.6042760701622945 0.172828907524734 0  0.6085548707439925 0.1817995994960678 0  0.6123583176357205 0.1909819325658435 0  0.6156759858539227 0.2003507385973728 0  0.6184987819006211 0.2098803383445412 0  0.6208189686880622 0.2195446118368362 0  0.6226301867455355 0.2293170699723706 0  0.6239274716502419 0.2391709271226702 0  0.6247072676344306 0.2490791745502192 0  0.203885768735257 0.3325402459548524 0  0.2015714905276826 0.3421799084407872 0  0.1977777294810124 0.3513388578120612 0  0.1925979005829864 0.3597915703383434 0  0.1861595484119405 0.3673299121842922 0  0.1786212065659918 0.373768264355338 0  0.1701684940397096 0.378948093253364 0  0.1610095446684356 0.3827418543000342 0  0.1513698821825007 0.3850561325076086 0  0.1414868670645144 0.3858339426659677 0  0.1316038519465281 0.3850561325076086 0  0.1219641894605933 0.3827418543000343 0  0.1128052400893193 0.378948093253364 0  0.1043525275630371 0.3737682643553381 0  0.09681418571708833 0.3673299121842922 0  0.09037583354604248 0.3597915703383434 0  0.08519600464801645 0.3513388578120612 0  0.08140224360134621 0.3421799084407872 0  0.07908796539377183 0.3325402459548523 0  0.07831015523541281 0.3226572308368659 0  0.07908796539377186 0.3127742157188796 0  0.08140224360134626 0.3031345532329447 0  0.08519600464801655 0.2939756038616707 0  0.0903758335460426 0.2855228913353884 0  0.0968141857
[...]
<PointData  Tensors="$\sigma$"> 
<DataArray  type="Float64"  Name="$\sigma$"  NumberOfComponents="9" format="ascii">7.7062306041938734e+02 -1.0755558640239633e+02 0.0000000000000000e+00 -1.0755558640239487e+02 1.3688487677266623e+04 0.0000000000000000e+00 0.0000000000000000e+00 0.0000000000000000e+00 0.0000000000000000e+00  1.6282569012548497e+03 1.0832586648165297e+02 0.0000000000000000e+00 1.0832586648165311e+02 6.8166499794063457e+03 0.0000000000000000e+00 0.0000000000000000e+00 0.0000000000000000e+00 0.0000000000000000e+00  -3.8750820549512085e+01 -3.2072586820221971e+01 0.0000000000000000e+00 -3.2072586820222035e+01 7.0856366518235009e+03 0.0000000000000000e+00 0.0000000000000000e+00 0.0000000000000000e+00 0.0000000000000000e+00  9.2348305210941479e+00 -6.0810652110572683e+00 0.0000000000000000e+00 -6.0810652110572896e+00 7.4992442550306068e+03 0.0000000000000000e+00 0.0000000000000000e+00 0.0000000000000000e+00 0.0000000000000000e+00  9.6177101180802236e+00 1.5284055300092017e+01 0.0000000000000000e+00 1.5284055300092053e+01 6.2988871262601551e+03 0.0000000000000000e+00 0.0000000000000000e+00 0.0000000000000000e+00 0.0000000000000000e+00  5.5358936018067595e+02 -2.6902097012926430e+02 0.0000000000000000e+00 -2.6902097012926362e+02 1.2136298646103553e+04 0.0000000000000000e+00 0.0000000000000000e+00 0.0000000000000000e+00 0.0000000000000000e+00  -5.9291184003819993e+01 4.0777436655119635e+02 0.0000000000000000e+00 4.0777436655119800e+02 -6.8317462217351220e+01 0.0000000000000000e+00 0.0000000000000000e+00 0.0000000000000000e+00 0.0000000000000000e+00  1.2629920153439969e+03 1.7617544816284496e+02 0.0000000000000000e+00 1.7617544816284496e+02 1.4783384595965967e+04 0.0000000000000000e+00 0.0000000000000000e+00 0.0000000000000000e+00 0.0000000000000000e+00  4.3863763297993535e+02 9.4901855367203055e+01 0.0000000000000000e+00 9.4901855367202884e+01 1.3185027760972152e+04 0.0000000000000000e+00 0.0000000000000000e+00 0.0000000000000000e+00 0.0000000000000000e+00  -5.5472376765493141e+02 2.5290905449045934e+02 0.0000000000000000e+00 2.5290905449045911e+02 -7.7760839086038050e+02 0.0000000000000000e+00 0.0000000000000000e+00 0.0000000000000000e+00 0.0000000000000000e+00  -3.2041392273585465e+01 -1.2194030932106919e+02 0.0000000000000000e+00 -1.2194030932106928e+02 -1.2993219154340534e+03 0.0000000000000000e+00 0.0000000000000000e+00 0.0000000000000000e+00 0.0000000000000000e+00  2.0564147064102013e+01 4.9044919896925359e+02 0.0000000000000000e+00 4.9044919896925165e+02 8.8844176753754855e+03 0.0000000000000000e+00 0.0000000000000000e+00 0.0000000000000000e+00 0.0000000000000000e+00  -5.0300000629057593e+02 -6.9447401670507105e+01 0.0000000000000000e+00 -6.9447401670506920e+01 1.1052226430394690e+04 0.0000000000000000e+00 0.0000000000000000e+00 0.0000000000000000e+00 0.0000000000000000e+00  3.6278294300510765e+02 1.1491840182848705e+02 0.0000000000000000e+00 1.1491840182848743e+02 1.1913862680575077e+04 0.0000000000000000e+00 0.0000000000000000e+00 0.0000000000000000e+00 0.0000000000000000e+00  -1.4447139199260829e+02 -2.6544000394657542e+02 0.0000000000000000e+00 -2.6544000394657354e+02 -1.5938648076325353e+03 0.0000000000000000e+00 0.0000000000000000e+00 0.0000000000000000e+00 0.0000000000000000e+00  -6.6855939574191143e+02 -3.6303935651862093e+02 0.0000000000000000e+00 -3.6303935651862076e+02 -3.6638712326265190e+03 0.0000000000000000e+00 0.0000000000000000e+00 0.0000000000000000e+00 0.0000000000000000e+00  -2.3248033698040413e+00 -1.0165688030523478e+02 0.0000000000000000e+00 -1.0165688030523603e+02 8.3700745461526021e+03 0.0000000000000000e+00 0.0000000000000000e+00 0.0000000000000000e+00 0.0000000000000000e+00  1.3913041757968841e+02 1.1823766830681798e+02 0.0000000000000000e+00 1.1823766830681893e+02 1.2368925663329692e+04 0.0000000000000000e+00 0.0000000000000000e+00 0.0000000000000000e+00 0.0000000000000000e+00  6.9758035000139680e+03 1.0951823590623746e+03 0.0000000000000000e+00 1.0951823590623751e+03 1.9463880539843030e+04 0.0000000000000000e+00 0.0000000000000000e+00 0.0000000000000000e+00 0.0000000000000000e+00  4.3989978247699815e+02 2.8303234182582349e+02 0.0000000000000000e+00 2.8303234182582366e+02 1.2004662083130755e+04 0.0000000000000000e+00 0.0000000000000000e+00 0.0000000000000000e+00 0.0000000000000000e+00  -8.0409287006929731e+00 1.4561471250588605e+02 0.0000000000000000e+00 1.4561471250588511e+02 1.1627495074553459e+04 0.0000000000000000e+00 0.0000000000000000e+00 0.0000000000000000e+00 0.0000000000000000e+00  8.0474885578501727e+01 9.9094753019355664e+01 0.0000000000000000e+00 9.9094753019354570e+01 4.7593234727898489e+03 0.0000000000000000e+00 0.0000000000000000e+00 0.0000000000000000e+00 0.0000000000000000e+00  6.5229340878498715e+02 -2.2900232098443935e+03 0.0000000000000000e+00 -2.2900232098443939e+03 9.4000626706266794e+03 0.0000000000000000e+00 0.0000000000000000e+00 0.0000000000000000e+00 0.0000000000000000e+00  -1.8258839363441206e+02 -8.0470552034197988e+02 0.0000000000000000e+00 -8.0470552034198033e+02 2.5404869206019916e+03 0.0000000000000000e+00 0.0000000000000000e+00 0.0000000000000000e+00 0.0000000000000000e+00  -2.5912648892861107e+03 1.6423798986297948e+03 0.0000000000000000e+00 1.6423798986297991e+03 -1.1503705853156036e+03 0.0000000000000000e+00 0.0000000000000000e+00 0.0000000000000000e+00 0.0000000000000000e+00  -6.3155372734327138e+03 2.2734174610372756e+03 0.0000000000000000e+00 2.2734174610372816e+03 -1.2175935772155792e+03 0.0000000000000000e+00 0.0000000000000000e+00 0.0000000000000000e+00 0.0000000000000000e+00  -5.4462069935909994e+03 1.1005683103544827e+03 0.0000000000000000e+00 1.1005683103544784e+03 -7.5685216483176430e+02 0.0000000000000000e+00 0.0000000000000000e+00 0.0000000000000000e+00 0.0000000000000000e+00  1.3777279755495840e+03 2.9725032898361906e+03 0.0000000000000000e+00 2.9725032898361901e+03 1.8144321088525296e+03 0.0000000000000000e+00 0.0000000000000000e+00 0.0000000000000000e+00 0.0000000000000000e+00  9.6953869458625395e+03 5.5681755356853719e+03 0.0000000000000000e+00 5.5681755356853701e+03 3.3697565367241573e+03 0.0000000000000000e+00 0.0000000000000000e+00 0.0000000000000000e+00 0.0000000000000000e+00  9.0587680063839125e+03 6.2388347054461756e+03 0.0000000000000000e+00 6.2388347054461892e+03 7.3142171226888076e+03 0.0000000000000000e+00 0.0000000000000000e+00 0.0000000000000000e+00 0.0000000000000000e+00  4.0506479592142828e+03 5.8586876414362714e+03 0.0000000000000000e+00 5.8586876414362714e+03 8.3437723197871564e+03 0.0000000000000000e+00 0.0000000000000000e+00 0.0000000000000000e+00 0.0000000000000000e+00  1.4211393356796534e+03 2.5763338851684016e+03 0.0000000000000000e+00 2.5763338851683957e+03 6.7751316820289530e+03 0.0000000000000000e+00 0.0000000000000000e+00 0.0000000000000000e+00 0.0000000000000000e+00  7.6714353143632366e+00 4.1557555527902065e+02 0.0000000000000000e+00 4.1557555527902218e+02 5.3985642676066200e+03 0.0000000000000000e+00 0.0000000000000000e+00 0.0000000000000000e+00 0.0000000000000000e+00  1.6418782140703269e+02 -2.8056059502181000e+02 0.0000000000000000e+00 -2.8056059502181000e+02 2.0623642316144364e+03 0.0000000000000000e+00 0.0000000000000000e+00 0.0000000000000000e+00 0.0000000000000000e+00  -5.1837050305435196e+02 5.3266948144102685e+02 0.0000000000000000e+00 5.3266948144102719e+02 -3.7171943167767557e+02 0.0000000000000000e+00 0.0000000000000000e+00 0.0000000000000000e+00 0.0000000000000000e+00  -2.1552636280924985e+03 1.6772654608150676e+03 0.0000000000000000e+00 1.6772654608150694e+03 -1.3650092124135888e+03 0.0000000000000000e+00 0.0000000000000000e+00 0.0000000000000000e+00 0.0000000000000000e+00  -3.9254355438649759e+03 1.6431546736348344e+03 0.0000000000000000e+00 1.6431546736348319e+03 -1.0268358635688624e+03 0.0000000000000000e+00 0.0000000000000000e+00 0.0000000000000000e+00 0.0000000000000000e+00  -3.9227840983786136e+03 8.0411416042168310e+02 0.0000000000000000e+00 8.0411416042168207e+02 -4.7210871793678723e+02 0.0000000000000000e+00 0.0000000000000000e+00 0.0000000000000000e+00 0.0000000000000000e+00  -1.7899237250877654e+03 -1.9941154061352034e+01 0.0000000000000000e+00 -1.9941154061352325e+01 1.1744182651534483e+02 0.0000000000000000e+00 0.0000000000000000e+00 0.0000000000000000e+00 0.0000000000000000e+00  1.9415348336311349e+03 1.2846078444467328e+03 0.0000000000000000e+00 1.2846078444467357e+03 6.7599452544470023e+02 0.0000000000000000e+00 0.0000000000000000e+00 0.0000000000000000e+00 0.0000000000000000e+00  3.9530989402066066e+03 3.4256881894490107e+03 0.0000000000000000e+00 3.4256881894490139e+03 3.7907335107177137e+03 0.0000000000000000e+00 0.0000000000000000e+00 0.0000000000000000e+00 0.0000000000000000e+00  3.2224044048877286e+03 5.2997977300798293e+03 0.0000000000000000e+00 5.2997977300798420e+03 8.6393691723044358e+03 0.0000000000000000e+00 0.0000000000000000e+00 0.0000000000000000e+00 0.0000000000000000e+00  2.2092866234862927e+03 3.3134477134373042e+03 0.0000000000000000e+00 3.3134477134373042e+03 1.3020115002253495e+04 0.0000000000000000e+00 0.0000000000000000e+00 0.0000000000000000e+00 0.0000000000000000e+00  5.2072471140470714e+02 -4.1038688807702783e+02 0.0000000000000000e+00 -4.1038688807702829e+02 5.7066946808633429e+03 0.0000000000000000e+00 0.0000000000000000e+00 0.0000000000000000e+00 0.0000000000000000e+00  -1.0365819095957087e+02 7.6558563835499768e+01 0.0000000000000000e+00 7.6558563835499626e+01 4.9780539023127903e+03 0.0000000000000000e+00 0.0000000000000000e+00 0.0000000000000000e+00 0.0000000000000000e+00  3.4362988542336859e+02 -2.3902413956303299e+01 0.0000000000000000e+00 -2.3902413956303288e+01 3.7759335373254708e+03 0.0000000000000000e+00 0.0000000000000000e+00 0.0000000000000000e+00 0.0000000000000000e+00  -7.9907884593006884e+01 6.5294532266515631e+01 0.0000000000000000e+00 6.5294532266515589e+01 3.1604050648103685e+03 0.0000000000000000e+00 0.0000000000000000e+00 0.0000000000000000e+00 0.0000000000000000e+00  5.9442386806933939e+01 4.4334345103110664e+01 0.0000000000000000e+00 4.4334345103110579e+01 2.5082698285736760e+03 0.0000000000000000e+00 0.0000000000000000e+00 0.0000000000000000e+00 0.0000000000000000e+00  -1.9062467117811721e+02 3.6350885229204174e+01 0.0000000000000000e+00 3.6350885229204245e+01 1.9243979805503716e+03 0.0000000000000000e+00 0.0000000000000000e+00 0.0000000000000000e+00 0.0000000000000000e+00  -2.5202395794359438e+02 1.1880746305960360e+01 0.0000000000000000e+00 1.1880746305960388e+01 1.4131706434313453e+03 0.0000000000000000e+00 0.0000000000000000e+00 0.0000000000000000e+00 0.0000000000000000e+00  -3.8814110400824399e+02 8.7683074392988960e+00 0.0000000000000000e+00 8.7683074392989191e+00 8.8435370206043660e+02 0.0000000000000000e+00 0.0000000000000000e+00 0.0000000000000000e+00 0.0000000000000000e+00  -4.0210669174271811e+02 1.1957377731528849e+01 0.0000000000000000e+00 1.1957377731528837e+01 3.5398005936346914e+02 0.0000000000000000e+00 0.0000000000000000e+00 0.0000000000000000e+00 0.0000000000000000e+00  -4.6327485071946040e+02 1.8948713429772237e+01 0.0000000000000000e+00 1.8948713429772138e+01 -6.5575294380023692e+01 0.0000000000000000e+00 0.0000000000000000e+00 0.0000000000000000e+00 0.0000000000000000e+00  -5.8476257025241398e+02 1.6266960392464284e+01 0.0000000000000000e+00 1.6266960392464195e+01 -2.4541474301354765e+02 0.0000000000000000e+00 0.0000000000000000e+00 0.0000000000000000e+00 0.0000000000000000e+00  -6.8479162548803322e+02 -3.4341700219462484e-01 0.0000000000000000e+00 -3.4341700219459143e-01 -2.5420083552020293e+02 0.0000000000000000e+00 0.0000000000000000e+00 0.0000000000000000e+00 0.0000000000000000e+00  -7.6365128678742701e+02 5.4593342361420421e+00 0.0000000000000000e+00 5.4593342361419595e+00 -1.4122904897332526e+02 0.0000000000000000e+00 0.0000000000000000e+00 0.0000000000000000e+00 0.0000000000000000e+00  -8.2155136736785983e+02 -1.0949943509385763e+01 0.0000000000000000e+00 -1.0949943509385697e+01 1.0037067868367610e+02 0.0000000000000000e+00 0.0000000000000000e+00 0.0000000000000000e+00 0.0000000000000000e+00  -9.8141171439000709e+02 8.1581207264293578e+00 0.0000000000000000e+00 8.1581207264290878e+00 6.3361207919038452e+02 0.0000000000000000e+00 0.0000000000000000e+00 0.0000000000000000e+00 0.0000000000000000e+00  -1.4138579218682837e+03 2.8835047584906683e+01 0.0000000000000000e+00 2.8835047584906508e+01 1.3827370544665712e+03 0.0000000000000000e+00 0.0000000000000000e+00 0.0000000000000000e+00 0.0000000000000000e+00  -2.0887664220364131e+03 9.0690836236351004e+01 0.0000000000000000e+00 9.0690836236351444e+01 2.0285538943841825e+03 0.0000000000000000e+00 0.0000000000000000e+00 0.0000000000000000e+00 0.0000000000000000e+00  -2.3954529577921808e+03 -8.5901355991611538e+01 0.0000000000000000e+00 -8.5901355991611382e+01 1.3049507366435193e+03 0.0000000000000000e+00 0.0000000000000000e+00 0.0000000000000000e+00 0.0000000000000000e+00  -1.8829660525880413e+03 1.8903579366828279e+01 0.0000000000000000e+00 1.8903579366828271e+01 -3.0864237371882547e+02 0.0000000000000000e+00 0.0000000000000000e+00 0.0000000000000000e+00 0.0000000000000000e+00  -2.0914948312611059e+03 6.9806536194353285e+01 0.0000000000000000e+00 6.9806536194353470e+01 5.6733032240485147e+02 0.0000000000000000e+00 0.0000000000000000e+00 0.0000000000000000e+00 0.0000000000000000e+00  -1.7599797907396942e+03 -6.7809762192161941e+01 0.0000000000000000e+00 -6.7809762192161656e+01 1.5006211568789206e+03 0.0000000000000000e+00 0.0000000000000000e+00 0.0000000000000000e+00 0.0000000000000000e+00  -9.6632082629032800e+02 -6.5882552123764398e+01 0.0000000000000000e+00 -6.5882552123764938e+01 8.8392710001660475e+02 0.0000000000000000e+00 0.0000000000000000e+00 0.0000000000000000e+00 0.0000000000000000e+00  -8.0852340552811896e+01 -3.8418431537480686e+01 0.0000000000000000e+00 -3.8418431537480522e+01 5.9381113965194697e+02 0.0000000000000000e+00 0.0000000000000000e+00 0.0000000000000000e+00 0.0000000000000000e+00  1.2238286584727517e+02 -2.0735715432572764e+01 0.0000000000000000e+00 -2.0735715432572700e+01 7.6843894597587234e+02 0.0000000000000000e+00 0.0000000000000000e+00 0.0000000000000000e+00 0.0000000000000000e+00  2.3776448703413288e+02 -2.1175656800085438e+01 0.0000000000000000e+00 -2.1175656800085353e+01 1.4994945669998015e+03 0.0000000000000000e+00 0.0000000000000000e+00 0.0000000000000000e+00 0.0000000000000000e+00  1.9623314822973256e+02 -3.4189130486218652e+01 0.0000000000000000e+00 -3.4189130486218666e+01 2.4282814715665199e+03 0.0000000000000000e+00 0.0000000000000000e+00 0.0000000000000000e+00 0.0000000000000000e+00  2.6058800523254678e+02 -3.6000818103372119e+01 0.0000000000000000e+00 -3.6000818103372133e+01 3.5650285809997185e+03 0.0000000000000000e+00 0.0000000000000000e+00 0.0000000000000000e+00 0.0000000000000000e+00  4.1602718105530982e+01 -2.3025666516876310e+01 0.0000000000000000e+00 -2.3025666516876413e+01 4.8336796377825140e+03 0.0000000000000000e+00 0.0000000000000000e+00 0.0000000000000000e+00 0.0000000000000000e+00  1.0933522491970555e+02 -3.6099409007243402e+01 0.0000000000000000e+00 -3.6099409007243423e+01 5.9894939134673705e+03 0.0000000000000000e+00 0.0000000000000000e+00 0.0000000000000000e+00 0.0000000000000000e+00  8.1393641731898168e+00 5.2846962005417680e+01 0.0000000000000000e+00 5.2846962005417694e+01 7.5464899242060965e+03 0.0000000000000000e+00 0.0000000000000000e+00 0.0000000000000000e+00 0.0000000000000000e+00  -1.0590483106522346e+00 2.1528227359734142e+01 0.0000000000000000e+00 2.1528227359734231e+01 7.8152621992088361e+03 0.0000000000000000e+00 0.0000000000000000e+00 0.0000000000000000e+00 0.0000000000000000e+00  -2.0207509321297628e+00 3.4432571448793958e+01 0.0000000000000000e+00 3.4432571448794285e+01 7.9567445443264987e+03 0.0000000000000000e+00 0.0000000000000000e+00 0.0000000000000000e+00 0.0000000000000000e+00  -1.9788654026647812e+01 1.6543259217986698e+01 0.0000000000000000e+00 1.6543259217986606e+01 8.1672641194345251e+03 0.0000000000000000e+00 0.0000000000000000e+00 0.0000000000000000e+00 0.0000000000000000e+00  3.3627536492541338e+01 5.1083889488161525e+00 0.0000000000000000e+00 5.1083889488161036e+00 8.4973598585795426e+03 0.0000000000000000e+00 0.0000000000000000e+00 0.0000000000000000e+00 0.0000000000000000e+00  -5.7537035388808482e+00 9.8502109951677724e+01 0.0000000000000000e+00 9.8502109951677241e+01 8.6376753119575842e+03 0.0000000000000000e+00 0.0000000000000000e+00 0.0000000000000000e+00 0.0000000000000000e+00  -6.1635703183850765e+01 1.0092222426280827e+02 0.0000000000000000e+00 1.0092222426280807e+02 9.4479378686318305e+03 0.0000000000000000e+00 0.0000000000000000e+00 0.0000000000000000e+00 0.0000000000000000e+00  -7.4622199892567025e+00 1.6313920192226220e+02 0.0000000000000000e+00 1.6313920192226203e+02 1.0391237486504053e+04 0.0000000000000000e+00 0.0000000000000000e+00 0.0000000000000000e+00 0.0000000000000000e+00  -1.4427014339601977e+01 1.0699271786521946e+02 0.0000000000000000e+00 1.0699271786521909e+02 1.1525245075851242e+04 0.0000000000000000e+00 0.0000000000000000e+00 0.0000000000000000e+00 0.0000000000000000e+00  1.7603091069766531e+01 -2.2376470032880452e+01 0.0000000000000000e+00 -2.2376470032880828e+01 1.2006874533898061e+04 0.0000000000000000e+00 0.0000000000000000e+00 0.0000000000000000e+00 0.0000000000000000e+00  -5.1836669881365136e+00 -2.5270806153610988e+02 0.0000000000000000e+00 -2.5270806153610914e+02 1.1729617783564618e+04 0.0000000000000000e+00 0.0000000000000000e+00 0.0000000000000000e+00 0.0000000000000000e+00  -2.1532126500732477e+02 -7.9151387289441266e+02 0.0000000000000000e+00 -7.9151387289441197e+02 9.1003898918214472e+03 0.0000000000000000e+00 0.0000000000000000e+00 0.0000000000000000e+00 0.0000000000000000e+00  9.7117932041067036e+02 1.7540827555135678e+02 0.0000000000000000e+00 1.7540827555135760e+02 3.0814350299375474e+03 0.0000000000000000e+00 0.0000000000000000e+00 0.0000000000000000e+00 0.0000000000000000e+00  1.0003368603946498e+03 1.3870463775130297e+03 0.0000000000000000e+00 1.3870463775130295e+03 3.1761744199456034e+03 0.0000000000000000e+00 0.0000000000000000e+00 0.0000000000000000e+00 0.0000000000000000e+00  3.1862500481733605e+02 1.2588261715836495e+02 0.0000000000000000e+00 1.2588261715836504e+02 1.1782519280235118e+04 0.0000000000000000e+00 0.0000000000000000e+00 0.0000000000000000e+00 0.0000000000000000e+00  1.4076798853175915e+03 -1.8075960289663027e+02 0.0000000000000000e+00 -1.8075960289663109e+02 1.3460702795490492e+04 0.0000000000000000e+00 0.0000000000000000e+00 0.0000000000000000e+00 0.0000000000000000e+00  1.8670690905914098e+03 -8.6044723970321274e+02 0.0000000000000000e+00 -8.6044723970321343e+02 1.3583545933850799e+04 0.0000000000000000e+00 0.0000000000000000e+00 0.0000000000000000e+00 0.0000000000000000e+00  -1.6710628309811773e+03 -3.4545662427142145e+02 0.0000000000000000e+00 -3.4545662427142150e+02 9.2878023127942142e+03 0.0000000000000000e+00 0.0000000000000000e+00 0.0000000000000000e+00 0.0000000000000000e+00  1.3743365676027614e+02 4.8853876636697026e+02 0.0000000000000000e+00 4.8853876636697066e+02 1.1921072766339959e+04 0.0000000000000000e+00 0.0000000000000000e+00 0.0000000000000000e+00 0.0000000000000000e+00  2.4699204614733361e+02 -4.0777622676533144e+02 0.0000000000000000e+00 -4.0777622676533247e+02 1.1423226617642693e+04 0.0000000000000000e+00 0.0000000000000000e+00 0.0000000000000000e+00 0.0000000000000000e+00  -1.6340635621375409e+02 -3.9090808022829253e+02 0.0000000000000000e+00 -3.9090808022829202e+02 8.4625947708519852e+03 0.0000000000000000e+00 0.0000000000000000e+00 0.0000000000000000e+00 0.0000000000000000e+00  1.1419007342931695e+02 2.9905805899801523e+00 0.0000000000000000e+00 2.9905805899797393e+00 7.6494672864156746e+03 0.0000000000000000e+00 0.0000000000000000e+00 0.0000000000000000e+00 0.0000000000000000e+00  -8.2559469057836694e+01 -3.5808143734204762e+01 0.0000000000000000e+00 -3.5808143734204663e+01 7.3944537569037020e+03 0.0000000000000000e+00 0.0000000000000000e+00 0.0000000000000000e+00 0.0000000