<?xml version="1.0"?>
<VTKFile type="UnstructuredGrid"  version="0.1"  >
<UnstructuredGrid>
<Piece  NumberOfPoints="3879" NumberOfCells="6881">
<Points>
<DataArray  type="Float64"  NumberOfComponents="3"  format="ascii">0.207524190028372 0.2122422770132111 0  0 0 0  1 0 0  0 1 0  1 1 0  0.6249674373315121 0.2590146544375328 0  0.204663578893616 0.322657230836866 0  0.09605577522599912 0.4018360776629776 0  0.671351124618251 0.08738059142081528 0  0.7842102907526436 0.1666439122351055 0  0.8512483166984784 0.1985391006160637 0  0.6418797837909295 0.4423157172830166 0  0.9292488447973215 0.3869277868069776 0  0.3197896119137055 0.5509935221980964 0  0.3979283685568406 0.5079871620336583 0  0.1572503457993085 0.7345153245035532 0  0.3032914287999163 0.7872981443735918 0  0.3549464687598876 0.8870324161721976 0  0.9691791685505482 0.5159450047798622 0  0.9447564590470373 0.6146164845729313 0  0.7687603548175107 0.7176858127488035 0  0.8926159261971183 0.7422924070424508 0  0.2061587782631535 0.2217389244366831 0  0.2021731605082994 0.2304662099646423 0  0.1958902278109265 0.2377171008267789 0  0.1878189860121365 0.2429041729681512 0  0.1786133191209442 0.2456072006525708 0  0.1690190155206647 0.2456072006525708 0  0.1598133486294724 0.2429041729681512 0  0.1517421068306824 0.2377171008267789 0  0.1454591741333096 0.2304662099646422 0  0.1414735563784554 0.221738924436683 0  0.1401081446132369 0.212242277013211 0  0.1414735563784555 0.202745629589739 0  0.1454591741333096 0.1940183440617798 0  0.1517421068306825 0.1867674531996431 0  0.1598133486294725 0.1815803810582709 0  0.1690190155206649 0.1788773533738513 0  0.1786133191209443 0.1788773533738514 0  0.1878189860121367 0.181580381058271 0  0.1958902278109266 0.1867674531996433 0  0.2021731605082994 0.19401834406178 0  0.2061587782631535 0.2027456295897391 0  0.03333333333333333 0 0  0.06666666666666667 0 0  0.1 0 0  0.1333333333333333 0 0  0.1666666666666667 0 0  0.2 0 0  0.2333333333333333 0 0  0.2666666666666667 0 0  0.3 0 0  0.3333333333333333 0 0  0.3666666666666666 0 0  0.4 0 0  0.4333333333333333 0 0  0.4666666666666667 0 0  0.5 0 0  0.5333333333333333 0 0  0.5666666666666667 0 0  0.6 0 0  0.6333333333333333 0 0  0.6666666666666666 0 0  0.7 0 0  0.7333333333333333 0 0  0.7666666666666667 0 0  0.8 0 0  0.8333333333333334 0 0  0.8666666666666667 0 0  0.9 0 0  0.9333333333333333 0 0  0.9666666666666667 0 0  0 0.9666666666666667 0  0 0.9333333333333333 0  0 0.9 0  0 0.8666666666666667 0  0 0.8333333333333334 0  0 0.8 0  0 0.7666666666666666 0  0 0.7333333333333334 0  0 0.7 0  0 0.6666666666666667 0  0 0.6333333333333333 0  0 0.6 0  0 0.5666666666666667 0  0 0.5333333333333333 0  0 0.5 0  0 0.4666666666666667 0  0 0.4333333333333333 0  0 0.4 0  0 0.3666666666666667 0  0 0.3333333333333334 0  0 0.3 0  0 0.2666666666666667 0  0 0.2333333333333333 0  0 0.2 0  0 0.1666666666666666 0  0 0.1333333333333333 0  0 0.09999999999999998 0  0 0.06666666666666665 0  0 0.03333333333333333 0  1 0.03333333333333333 0  1 0.06666666666666667 0  1 0.1 0  1 0.1333333333333333 0  1 0.1666666666666667 0  1 0.2 0  1 0.2333333333333333 0  1 0.2666666666666667 0  1 0.3 0  1 0.3333333333333333 0  1 0.3666666666666666 0  1 0.4 0  1 0.4333333333333333 0  1 0.4666666666666667 0  1 0.5 0  1 0.5333333333333333 0  1 0.5666666666666667 0  1 0.6 0  1 0.6333333333333333 0  1 0.6666666666666666 0  1 0.7 0  1 0.7333333333333333 0  1 0.7666666666666667 0  1 0.8 0  1 0.8333333333333334 0  1 0.8666666666666667 0  1 0.9 0  1 0.9333333333333333 0  1 0.9666666666666667 0  0.9666666666666667 1 0  0.9333333333333333 1 0  0.9 1 0  0.8666666666666667 1 0  0.8333333333333334 1 0  0.8 1 0  0.7666666666666666 1 0  0.7333333333333334 1 0  0.7 1 0  0.6666666666666667 1 0  0.6333333333333333 1 0  0.6 1 0  0.5666666666666667 1 0  0.5333333333333333 1 0  0.5 1 0  0.4666666666666667 1 0  0.4333333333333333 1 0  0.4 1 0  0.3666666666666667 1 0  0.3333333333333334 1 0  0.3 1 0  0.2666666666666667 1 0  0.2333333333333333 1 0  0.2 1 0  0.1666666666666666 1 0  0.1333333333333333 1 0  0.09999999999999998 1 0  0.06666666666666665 1 0  0.03333333333333333 1 0  0.6247072676344306 0.2689501343248463 0  0.6239274716502419 0.2788583817523955 0  0.6226301867455355 0.2887122389026952 0  0.6208189686880621 0.2984846970382296 0  0.6184987819006211 0.3081489705305245 0  0.6156759858539226 0.317678570277693 0  0.6123583176357204 0.3270473763092224 0  0.6085548707439923 0.3362297093789981 0  0.6042760701622942 0.3452004013503318 0  0.5995336437856049 0.3539348641800754 0  0.5943405902749808 0.3624091573127375 0  0.5887111434291297 0.3706000532998825 0  0.582660733170558 0.3784851014649517 0  0.5762059432532257 0.3860426894390078 0  0.5693644658076293 0.3932521023987353 0  0.5621550528479018 0.4000935798443317 0  0.5545974648738458 0.4065483697616639 0  0.5467124167087765 0.4125987800202355 0  0.5385215207216315 0.4182282268660866 0  0.5300472275889694 0.4234212803767108 0  0.5213127647592257 0.4281637067534002 0  0.512342072787892 0.4324425073350981 0  0.5031597397181163 0.4362459542268262 0  0.493790933686587 0.4395636224450283 0  0.4842613339394185 0.4423864184917269 0  0.4745970604471235 0.4447066052791678 0  0.4648246023115891 0.4465178233366412 0  0.4549707451612894 0.4478151082413475 0  0.4450624977337403 0.4485949042255363 0  0.4351270178464268 0.4488550739226177 0  0.4251915379591132 0.4485949042255363 0  0.4152832905315641 0.4478151082413475 0  0.4054294333812644 0.4465178233366411 0  0.39565697524573 0.4447066052791677 0  0.385992701753435 0.4423864184917267 0  0.3764631020062665 0.4395636224450281 0  0.3670942959747371 0.4362459542268259 0  0.3579119629049616 0.4324425073350978 0  0.3489412709336278 0.4281637067533998 0  0.3402068081038843 0.4234212803767103 0  0.3317325149712221 0.4182282268660862 0  0.3235416189840771 0.412598780020235 0  0.3156565708190078 0.4065483697616634 0  0.3080989828449519 0.4000935798443311 0  0.3008895698852244 0.3932521023987346 0  0.2940480924396279 0.3860426894390071 0  0.2875933025222958 0.3784851014649511 0  0.2815428922637242 0.3706000532998818 0  0.2759134454178731 0.3624091573127368 0  0.2707203919072489 0.3539348641800746 0  0.2659779655305596 0.3452004013503309 0  0.2616991649488616 0.3362297093789972 0  0.2578957180571336 0.3270473763092215 0  0.2545780498389315 0.3176785702776921 0  0.251755253792233 0.3081489705305236 0  0.249435067004792 0.2984846970382286 0  0.2476238489473186 0.2887122389026941 0  0.2463265640426123 0.2788583817523945 0  0.2455467680584236 0.2689501343248454 0  0.2452865983613423 0.2590146544375318 0  0.2455467680584237 0.2490791745502182 0  0.2463265640426126 0.2391709271226692 0  0.247623848947319 0.2293170699723696 0  0.2494350670047924 0.2195446118368351 0  0.2517552537922335 0.2098803383445402 0  0.2545780498389321 0.2003507385973717 0  0.2578957180571343 0.1909819325658423 0  0.2616991649488624 0.1817995994960667 0  0.2659779655305604 0.172828907524733 0  0.2707203919072498 0.1640944446949895 0  0.2759134454178741 0.1556201515623273 0  0.2815428922637251 0.1474292555751825 0  0.2875933025222969 0.1395442074101132 0  0.2940480924396291 0.1319866194360571 0  0.3008895698852256 0.1247772064763297 0  0.3080989828449531 0.1179357290307334 0  0.3156565708190092 0.1114809391134012 0  0.3235416189840785 0.1054305288548295 0  0.3317325149712236 0.09980108200897844 0  0.3402068081038856 0.0946080284983544 0  0.3489412709336291 0.08986560212166514 0  0.357911962904963 0.08558680153996717 0  0.3670942959747386 0.08178335464823916 0  0.3764631020062678 0.07846568643003712 0  0.3859927017534364 0.0756428903833386 0  0.3956569752457313 0.0733227035958976 0  0.4054294333812659 0.07151148553842429 0  0.4152832905315654 0.07021420063371797 0  0.4251915379591144 0.0694344046495293 0  0.435127017846428 0.0691742349524479 0  0.4450624977337415 0.06943440464952938 0  0.4549707451612905 0.07021420063371814 0  0.4648246023115901 0.07151148553842454 0  0.4745970604471245 0.07332270359589793 0  0.4842613339394195 0.07564289038333902 0  0.4937909336865879 0.07846568643003757 0  0.5031597397181173 0.0817833546482398 0  0.5123420727878929 0.08558680153996781 0  0.5213127647592265 0.08986560212166581 0  0.53004722758897 0.0946080284983552 0  0.5385215207216321 0.09980108200897933 0  0.5467124167087771 0.1054305288548305 0  0.5545974648738462 0.1114809391134021 0  0.5621550528479023 0.1179357290307343 0  0.5693644658076298 0.1247772064763308 0  0.576205943253226 0.1319866194360582 0  0.5826607331705582 0.1395442074101142 0  0.5887111434291299 0.1474292555751835 0  0.594340590274981 0.1556201515623285 0  0.5995336437856051 0.1640944446949906 0  0.6042760701622945 0.172828907524734 0  0.6085548707439925 0.1817995994960678 0  0.6123583176357205 0.1909819325658435 0  0.6156759858539227 0.2003507385973728 0  0.6184987819006211 0.2098803383445412 0  0.6208189686880622 0.2195446118368362 0  0.6226301867455355 0.2293170699723706 0  0.6239274716502419 0.2391709271226702 0  0.6247072676344306 0.2490791745502192 0  0.203885768735257 0.3325402459548524 0  0.2015714905276826 0.3421799084407872 0  0.1977777294810124 0.3513388578120612 0  0.1925979005829864 0.3597915703383434 0  0.1861595484119405 0.3673299121842922 0  0.1786212065659918 0.373768264355338 0  0.1701684940397096 0.378948093253364 0  0.1610095446684356 0.3827418543000342 0  0.1513698821825007 0.3850561325076086 0  0.1414868670645144 0.3858339426659677 0  0.1316038519465281 0.3850561325076086 0  0.1219641894605933 0.3827418543000343 0  0.1128052400893193 0.378948093253364 0  0.1043525275630371 0.3737682643553381 0  0.09681418571708833 0.3673299121842922 0  0.09037583354604248 0.3597915703383434 0  0.08519600464801645 0.3513388578120612 0  0.08140224360134621 0.3421799084407872 0  0.07908796539377183 0.3325402459548523 0  0.07831015523541281 0.3226572308368659 0  0.07908796539377186 0.3127742157188796 0  0.08140224360134626 0.3031345532329447 0  0.08519600464801655 0.2939756038616707 0  0.0903758335460426 0.2855228913353884 0  0.0968141857
[...]
<PointData  Tensors="$\sigma$"> 
<DataArray  type="Float64"  Name="$\sigma$"  NumberOfComponents="9" format="ascii">1.4473838999609259e+02 3.6067771581326681e+01 0.0000000000000000e+00 3.6067771581326632e+01 1.0517581055297298e+04 0.0000000000000000e+00 0.0000000000000000e+00 0.0000000000000000e+00 0.0000000000000000e+00  1.2565051111965608e+03 1.0520181301899080e+02 0.0000000000000000e+00 1.0520181301899096e+02 5.2099998151834725e+03 0.0000000000000000e+00 0.0000000000000000e+00 0.0000000000000000e+00 0.0000000000000000e+00  -2.5438187066819570e+01 -2.1755790732797340e+01 0.0000000000000000e+00 -2.1755790732797294e+01 5.4838794602532025e+03 0.0000000000000000e+00 0.0000000000000000e+00 0.0000000000000000e+00 0.0000000000000000e+00  7.6278232360131923e+00 -4.7276984259510320e+00 0.0000000000000000e+00 -4.7276984259510790e+00 5.4045363943967268e+03 0.0000000000000000e+00 0.0000000000000000e+00 0.0000000000000000e+00 0.0000000000000000e+00  8.2115842585292267e+00 1.0929906849236614e+01 0.0000000000000000e+00 1.0929906849236625e+01 4.9853884275505970e+03 0.0000000000000000e+00 0.0000000000000000e+00 0.0000000000000000e+00 0.0000000000000000e+00  8.3712683519361434e+01 8.4145837366222864e+01 0.0000000000000000e+00 8.4145837366224100e+01 1.0535472672455084e+04 0.0000000000000000e+00 0.0000000000000000e+00 0.0000000000000000e+00 0.0000000000000000e+00  -9.0185296355054405e+01 2.5995353588817306e+02 0.0000000000000000e+00 2.5995353588817375e+02 2.0669318556922565e+02 0.0000000000000000e+00 0.0000000000000000e+00 0.0000000000000000e+00 0.0000000000000000e+00  6.3320905388649760e+02 3.9004439797195488e+02 0.0000000000000000e+00 3.9004439797195494e+02 1.1130725341378376e+04 0.0000000000000000e+00 0.0000000000000000e+00 0.0000000000000000e+00 0.0000000000000000e+00  2.0668678280586215e+02 -3.2282250708385999e+02 0.0000000000000000e+00 -3.2282250708386016e+02 1.0537841322130522e+04 0.0000000000000000e+00 0.0000000000000000e+00 0.0000000000000000e+00 0.0000000000000000e+00  -2.9451271075672554e+02 1.0540107966557164e+02 0.0000000000000000e+00 1.0540107966557240e+02 -1.9240406260233831e+02 0.0000000000000000e+00 0.0000000000000000e+00 0.0000000000000000e+00 0.0000000000000000e+00  -3.2954043755901901e+00 -4.7475431036227164e+01 0.0000000000000000e+00 -4.7475431036227114e+01 -2.2390153526264712e+02 0.0000000000000000e+00 0.0000000000000000e+00 0.0000000000000000e+00 0.0000000000000000e+00  1.2151256066822540e+02 4.2670579115707687e+02 0.0000000000000000e+00 4.2670579115707812e+02 5.8290073237563120e+03 0.0000000000000000e+00 0.0000000000000000e+00 0.0000000000000000e+00 0.0000000000000000e+00  3.2373344095680892e+02 1.6872034619599297e+01 0.0000000000000000e+00 1.6872034619598956e+01 1.2461429797220664e+04 0.0000000000000000e+00 0.0000000000000000e+00 0.0000000000000000e+00 0.0000000000000000e+00  5.9856636046366035e+01 1.1743804932670868e+02 0.0000000000000000e+00 1.1743804932670881e+02 1.0760615961797088e+04 0.0000000000000000e+00 0.0000000000000000e+00 0.0000000000000000e+00 0.0000000000000000e+00  -9.7325745640699452e+01 -2.0995030228776469e+02 0.0000000000000000e+00 -2.0995030228776341e+02 -1.2756244385553559e+03 0.0000000000000000e+00 0.0000000000000000e+00 0.0000000000000000e+00 0.0000000000000000e+00  -2.4016404555762327e+02 -1.9652588182328745e+02 0.0000000000000000e+00 -1.9652588182328830e+02 -9.2310791914096262e+02 0.0000000000000000e+00 0.0000000000000000e+00 0.0000000000000000e+00 0.0000000000000000e+00  5.1638142861616160e+01 -1.2611814595929899e+02 0.0000000000000000e+00 -1.2611814595929890e+02 6.7570160749397264e+03 0.0000000000000000e+00 0.0000000000000000e+00 0.0000000000000000e+00 0.0000000000000000e+00  1.2524815837208067e+02 1.0054905219958721e+02 0.0000000000000000e+00 1.0054905219958701e+02 8.1710843112596331e+03 0.0000000000000000e+00 0.0000000000000000e+00 0.0000000000000000e+00 0.0000000000000000e+00  5.2724312561971992e+03 3.5146917516491902e+02 0.0000000000000000e+00 3.5146917516491868e+02 1.7755499142760029e+04 0.0000000000000000e+00 0.0000000000000000e+00 0.0000000000000000e+00 0.0000000000000000e+00  3.5299542626523362e+02 -2.9445876652175690e+02 0.0000000000000000e+00 -2.9445876652175701e+02 1.2553050551721743e+04 0.0000000000000000e+00 0.0000000000000000e+00 0.0000000000000000e+00 0.0000000000000000e+00  4.3804708273517576e+01 1.6536685667848838e+02 0.0000000000000000e+00 1.6536685667848764e+02 8.0868414230399458e+03 0.0000000000000000e+00 0.0000000000000000e+00 0.0000000000000000e+00 0.0000000000000000e+00  1.2407215185286712e+02 2.2385673062222128e+01 0.0000000000000000e+00 2.2385673062222025e+01 4.1587081567699570e+03 0.0000000000000000e+00 0.0000000000000000e+00 0.0000000000000000e+00 0.0000000000000000e+00  5.2411344925955405e+02 -1.4356821252630589e+03 0.0000000000000000e+00 -1.4356821252630589e+03 6.6028245009808707e+03 0.0000000000000000e+00 0.0000000000000000e+00 0.0000000000000000e+00 0.0000000000000000e+00  -2.5427752737970357e+02 -4.6000957684512497e+02 0.0000000000000000e+00 -4.6000957684512525e+02 1.7718725799602778e+03 0.0000000000000000e+00 0.0000000000000000e+00 0.0000000000000000e+00 0.0000000000000000e+00  -1.9184486023500922e+03 1.2388797831735908e+03 0.0000000000000000e+00 1.2388797831735922e+03 -8.4826930717368134e+02 0.0000000000000000e+00 0.0000000000000000e+00 0.0000000000000000e+00 0.0000000000000000e+00  -4.1080481739711922e+03 1.4827992007892078e+03 0.0000000000000000e+00 1.4827992007892105e+03 -8.2138845786191564e+02 0.0000000000000000e+00 0.0000000000000000e+00 0.0000000000000000e+00 0.0000000000000000e+00  -3.1196853866757510e+03 8.3574589686404909e+02 0.0000000000000000e+00 8.3574589686404727e+02 -5.2695833131978770e+02 0.0000000000000000e+00 0.0000000000000000e+00 0.0000000000000000e+00 0.0000000000000000e+00  1.3634820142832923e+03 2.1721683250354527e+03 0.0000000000000000e+00 2.1721683250354522e+03 1.3771623588113880e+03 0.0000000000000000e+00 0.0000000000000000e+00 0.0000000000000000e+00 0.0000000000000000e+00  6.9491816334016330e+03 4.4780027709566957e+03 0.0000000000000000e+00 4.4780027709566930e+03 2.5127579314270793e+03 0.0000000000000000e+00 0.0000000000000000e+00 0.0000000000000000e+00 0.0000000000000000e+00  6.8965567145900195e+03 5.4275839595346088e+03 0.0000000000000000e+00 5.4275839595346133e+03 5.0373024923434868e+03 0.0000000000000000e+00 0.0000000000000000e+00 0.0000000000000000e+00 0.0000000000000000e+00  3.0754817884157887e+03 4.1472783930957412e+03 0.0000000000000000e+00 4.1472783930957430e+03 5.8032829704032993e+03 0.0000000000000000e+00 0.0000000000000000e+00 0.0000000000000000e+00 0.0000000000000000e+00  1.0991975690693648e+03 1.8252456982173549e+03 0.0000000000000000e+00 1.8252456982173567e+03 4.8383285826864767e+03 0.0000000000000000e+00 0.0000000000000000e+00 0.0000000000000000e+00 0.0000000000000000e+00  6.8440524980665941e+01 2.9131692994512133e+02 0.0000000000000000e+00 2.9131692994512167e+02 4.1137837271388125e+03 0.0000000000000000e+00 0.0000000000000000e+00 0.0000000000000000e+00 0.0000000000000000e+00  1.8200318444244388e+02 -3.3353733217980380e+02 0.0000000000000000e+00 -3.3353733217980351e+02 1.9579754197746258e+03 0.0000000000000000e+00 0.0000000000000000e+00 0.0000000000000000e+00 0.0000000000000000e+00  -1.8534748164304767e+02 1.4266420170215346e+02 0.0000000000000000e+00 1.4266420170215295e+02 1.6878414628834935e+02 0.0000000000000000e+00 0.0000000000000000e+00 0.0000000000000000e+00 0.0000000000000000e+00  -1.3118482467243830e+03 9.5782267726315729e+02 0.0000000000000000e+00 9.5782267726315956e+02 -7.1471554077858991e+02 0.0000000000000000e+00 0.0000000000000000e+00 0.0000000000000000e+00 0.0000000000000000e+00  -2.5581787908535462e+03 1.0252198043337792e+03 0.0000000000000000e+00 1.0252198043337778e+03 -6.4746375804261811e+02 0.0000000000000000e+00 0.0000000000000000e+00 0.0000000000000000e+00 0.0000000000000000e+00  -2.6512101134499085e+03 5.4614328955705116e+02 0.0000000000000000e+00 5.4614328955705082e+02 -3.4367018020524091e+02 0.0000000000000000e+00 0.0000000000000000e+00 0.0000000000000000e+00 0.0000000000000000e+00  -1.2045097246367882e+03 2.3041893685888390e+01 0.0000000000000000e+00 2.3041893685888212e+01 8.0280575770426580e+01 0.0000000000000000e+00 0.0000000000000000e+00 0.0000000000000000e+00 0.0000000000000000e+00  1.3689524666654256e+03 9.5635857779852381e+02 0.0000000000000000e+00 9.5635857779852347e+02 5.4278769129307466e+02 0.0000000000000000e+00 0.0000000000000000e+00 0.0000000000000000e+00 0.0000000000000000e+00  2.8033691705033470e+03 2.4744251335036479e+03 0.0000000000000000e+00 2.4744251335036502e+03 2.8362299929468486e+03 0.0000000000000000e+00 0.0000000000000000e+00 0.0000000000000000e+00 0.0000000000000000e+00  2.3733215286811919e+03 3.8060626274161787e+03 0.0000000000000000e+00 3.8060626274161837e+03 6.4030391178298923e+03 0.0000000000000000e+00 0.0000000000000000e+00 0.0000000000000000e+00 0.0000000000000000e+00  1.4534076979571817e+03 2.4294017455712656e+03 0.0000000000000000e+00 2.4294017455712669e+03 9.6323571092318161e+03 0.0000000000000000e+00 0.0000000000000000e+00 0.0000000000000000e+00 0.0000000000000000e+00  4.3246514783345168e+02 -3.0768137537859087e+02 0.0000000000000000e+00 -3.0768137537859099e+02 4.3768038934843753e+03 0.0000000000000000e+00 0.0000000000000000e+00 0.0000000000000000e+00 0.0000000000000000e+00  -8.6310730054248054e+01 4.7488737793361018e+01 0.0000000000000000e+00 4.7488737793360933e+01 3.8342781675805577e+03 0.0000000000000000e+00 0.0000000000000000e+00 0.0000000000000000e+00 0.0000000000000000e+00  2.6018792454880531e+02 -5.3782963981424494e+00 0.0000000000000000e+00 -5.3782963981424272e+00 2.9436560810108572e+03 0.0000000000000000e+00 0.0000000000000000e+00 0.0000000000000000e+00 0.0000000000000000e+00  -1.4076473504057834e+01 4.0442972309582778e+01 0.0000000000000000e+00 4.0442972309582778e+01 2.4787723154201890e+03 0.0000000000000000e+00 0.0000000000000000e+00 0.0000000000000000e+00 0.0000000000000000e+00  8.6854513631547562e+01 3.7267775203443350e+01 0.0000000000000000e+00 3.7267775203443335e+01 1.9603132384767518e+03 0.0000000000000000e+00 0.0000000000000000e+00 0.0000000000000000e+00 0.0000000000000000e+00  -5.9397071514185690e+01 2.5687805850706599e+01 0.0000000000000000e+00 2.5687805850706628e+01 1.4907038440568313e+03 0.0000000000000000e+00 0.0000000000000000e+00 0.0000000000000000e+00 0.0000000000000000e+00  -9.4750119196258183e+01 1.0731638226059943e+01 0.0000000000000000e+00 1.0731638226059983e+01 1.0811506800204770e+03 0.0000000000000000e+00 0.0000000000000000e+00 0.0000000000000000e+00 0.0000000000000000e+00  -1.7716806091431329e+02 8.2418442583102713e+00 0.0000000000000000e+00 8.2418442583102696e+00 6.7852379703388476e+02 0.0000000000000000e+00 0.0000000000000000e+00 0.0000000000000000e+00 0.0000000000000000e+00  -1.7333746956993309e+02 9.2153475594082312e+00 0.0000000000000000e+00 9.2153475594082206e+00 2.7886480167400998e+02 0.0000000000000000e+00 0.0000000000000000e+00 0.0000000000000000e+00 0.0000000000000000e+00  -2.0760446981734191e+02 1.4541800461506892e+01 0.0000000000000000e+00 1.4541800461506851e+01 -3.5361362606601432e+01 0.0000000000000000e+00 0.0000000000000000e+00 0.0000000000000000e+00 0.0000000000000000e+00  -2.8840719537660289e+02 1.1789717412992228e+01 0.0000000000000000e+00 1.1789717412992191e+01 -1.6087444369709752e+02 0.0000000000000000e+00 0.0000000000000000e+00 0.0000000000000000e+00 0.0000000000000000e+00  -3.5550717263086608e+02 1.5687653397543252e-01 0.0000000000000000e+00 1.5687653397546178e-01 -1.6165128007842512e+02 0.0000000000000000e+00 0.0000000000000000e+00 0.0000000000000000e+00 0.0000000000000000e+00  -4.0888599370454631e+02 3.5692050941842761e+00 0.0000000000000000e+00 3.5692050941842752e+00 -8.3058307341318411e+01 0.0000000000000000e+00 0.0000000000000000e+00 0.0000000000000000e+00 0.0000000000000000e+00  -4.4647663850741174e+02 -7.2361248963221962e+00 0.0000000000000000e+00 -7.2361248963221385e+00 7.1704680218183839e+01 0.0000000000000000e+00 0.0000000000000000e+00 0.0000000000000000e+00 0.0000000000000000e+00  -5.5333783905727080e+02 5.8223255194423595e+00 0.0000000000000000e+00 5.8223255194421633e+00 4.1880023610055770e+02 0.0000000000000000e+00 0.0000000000000000e+00 0.0000000000000000e+00 0.0000000000000000e+00  -8.2757231129546039e+02 2.2325218266864262e+01 0.0000000000000000e+00 2.2325218266864383e+01 9.0821240967390429e+02 0.0000000000000000e+00 0.0000000000000000e+00 0.0000000000000000e+00 0.0000000000000000e+00  -1.2659793749648682e+03 5.8885991920573971e+01 0.0000000000000000e+00 5.8885991920573993e+01 1.3269078177777214e+03 0.0000000000000000e+00 0.0000000000000000e+00 0.0000000000000000e+00 0.0000000000000000e+00  -1.4510997356823807e+03 -6.1767904439548893e+01 0.0000000000000000e+00 -6.1767904439548907e+01 8.7670249532701735e+02 0.0000000000000000e+00 0.0000000000000000e+00 0.0000000000000000e+00 0.0000000000000000e+00  -1.1125009608671980e+03 1.0062898031396010e+01 0.0000000000000000e+00 1.0062898031396003e+01 -1.1810598902418455e+02 0.0000000000000000e+00 0.0000000000000000e+00 0.0000000000000000e+00 0.0000000000000000e+00  -1.2801314636931761e+03 5.1788395115764288e+01 0.0000000000000000e+00 5.1788395115764402e+01 5.5090098428244539e+02 0.0000000000000000e+00 0.0000000000000000e+00 0.0000000000000000e+00 0.0000000000000000e+00  -1.0580946514781424e+03 -4.1035389826097799e+01 0.0000000000000000e+00 -4.1035389826097720e+01 1.1631403889118851e+03 0.0000000000000000e+00 0.0000000000000000e+00 0.0000000000000000e+00 0.0000000000000000e+00  -4.8811595027387546e+02 -4.9771181726498497e+01 0.0000000000000000e+00 -4.9771181726498916e+01 6.9963688888527986e+02 0.0000000000000000e+00 0.0000000000000000e+00 0.0000000000000000e+00 0.0000000000000000e+00  1.0654542247851400e+02 -2.6725511384280015e+01 0.0000000000000000e+00 -2.6725511384279582e+01 5.1699062932814059e+02 0.0000000000000000e+00 0.0000000000000000e+00 0.0000000000000000e+00 0.0000000000000000e+00  2.2111321901580806e+02 -1.6262917282473211e+01 0.0000000000000000e+00 -1.6262917282473321e+01 7.0073071136765816e+02 0.0000000000000000e+00 0.0000000000000000e+00 0.0000000000000000e+00 0.0000000000000000e+00  2.6279841386466865e+02 -1.3050367540853449e+01 0.0000000000000000e+00 -1.3050367540853420e+01 1.2811993822891641e+03 0.0000000000000000e+00 0.0000000000000000e+00 0.0000000000000000e+00 0.0000000000000000e+00  2.0518212028004095e+02 -2.7819891087403512e+01 0.0000000000000000e+00 -2.7819891087403523e+01 2.0129048133076601e+03 0.0000000000000000e+00 0.0000000000000000e+00 0.0000000000000000e+00 0.0000000000000000e+00  2.1919471111619018e+02 -2.4810229529721422e+01 0.0000000000000000e+00 -2.4810229529721347e+01 2.8762773663796042e+03 0.0000000000000000e+00 0.0000000000000000e+00 0.0000000000000000e+00 0.0000000000000000e+00  4.7952377388845996e+01 -1.6909279430833973e+01 0.0000000000000000e+00 -1.6909279430834079e+01 3.8371172313783618e+03 0.0000000000000000e+00 0.0000000000000000e+00 0.0000000000000000e+00 0.0000000000000000e+00  8.2643005385796840e+01 -2.6737280308626495e+01 0.0000000000000000e+00 -2.6737280308626524e+01 4.6814068260073946e+03 0.0000000000000000e+00 0.0000000000000000e+00 0.0000000000000000e+00 0.0000000000000000e+00  4.0447489854980772e+00 3.8059281338273863e+01 0.0000000000000000e+00 3.8059281338273905e+01 5.4502861431631964e+03 0.0000000000000000e+00 0.0000000000000000e+00 0.0000000000000000e+00 0.0000000000000000e+00  1.5672116266988931e+00 1.5036632245187890e+01 0.0000000000000000e+00 1.5036632245187937e+01 5.6411748602893631e+03 0.0000000000000000e+00 0.0000000000000000e+00 0.0000000000000000e+00 0.0000000000000000e+00  -3.5603436600844063e+00 3.1191965749070626e+01 0.0000000000000000e+00 3.1191965749070931e+01 5.7531000921873147e+03 0.0000000000000000e+00 0.0000000000000000e+00 0.0000000000000000e+00 0.0000000000000000e+00  -1.0115598836259753e+01 1.3704883000477720e+01 0.0000000000000000e+00 1.3704883000477748e+01 5.9248082859620927e+03 0.0000000000000000e+00 0.0000000000000000e+00 0.0000000000000000e+00 0.0000000000000000e+00  1.9130188922721548e+01 8.8955359872007733e+00 0.0000000000000000e+00 8.8955359872007342e+00 6.1517898369921468e+03 0.0000000000000000e+00 0.0000000000000000e+00 0.0000000000000000e+00 0.0000000000000000e+00  -5.0057614560592745e+00 5.6157849782316440e+01 0.0000000000000000e+00 5.6157849782316276e+01 6.2362125072310464e+03 0.0000000000000000e+00 0.0000000000000000e+00 0.0000000000000000e+00 0.0000000000000000e+00  -3.5988838322034781e+01 6.9560582658148093e+01 0.0000000000000000e+00 6.9560582658147865e+01 6.7485823854586752e+03 0.0000000000000000e+00 0.0000000000000000e+00 0.0000000000000000e+00 0.0000000000000000e+00  -2.1511419667403504e+00 1.3168020535897460e+02 0.0000000000000000e+00 1.3168020535897475e+02 7.3765130516583795e+03 0.0000000000000000e+00 0.0000000000000000e+00 0.0000000000000000e+00 0.0000000000000000e+00  -2.4801030176933960e+01 5.3366592846376683e+01 0.0000000000000000e+00 5.3366592846376335e+01 8.2478847174233397e+03 0.0000000000000000e+00 0.0000000000000000e+00 0.0000000000000000e+00 0.0000000000000000e+00  -4.4283927818086177e+01 -8.3020911639674992e+01 0.0000000000000000e+00 -8.3020911639675063e+01 8.2600630327791332e+03 0.0000000000000000e+00 0.0000000000000000e+00 0.0000000000000000e+00 0.0000000000000000e+00  -1.5172151470506665e+02 -3.7996801818096696e+02 0.0000000000000000e+00 -3.7996801818096662e+02 7.2518725745305519e+03 0.0000000000000000e+00 0.0000000000000000e+00 0.0000000000000000e+00 0.0000000000000000e+00  -9.6446070933553628e+01 -7.5425574844720904e+02 0.0000000000000000e+00 -7.5425574844720882e+02 5.2668995314636595e+03 0.0000000000000000e+00 0.0000000000000000e+00 0.0000000000000000e+00 0.0000000000000000e+00  1.8683003369661415e+02 4.8367120122556805e+01 0.0000000000000000e+00 4.8367120122556955e+01 2.3135481093206208e+03 0.0000000000000000e+00 0.0000000000000000e+00 0.0000000000000000e+00 0.0000000000000000e+00  2.1323376738156708e+02 5.7641458643512578e+02 0.0000000000000000e+00 5.7641458643512510e+02 2.6275877633265281e+03 0.0000000000000000e+00 0.0000000000000000e+00 0.0000000000000000e+00 0.0000000000000000e+00  4.3000600628097622e+01 5.0474423421976019e+02 0.0000000000000000e+00 5.0474423421975894e+02 6.7960568553218909e+03 0.0000000000000000e+00 0.0000000000000000e+00 0.0000000000000000e+00 0.0000000000000000e+00  5.6977144126328012e+00 3.0496932282792653e+02 0.0000000000000000e+00 3.0496932282792557e+02 9.8492459534903173e+03 0.0000000000000000e+00 0.0000000000000000e+00 0.0000000000000000e+00 0.0000000000000000e+00  5.5038676913551669e+01 -4.7403330459609327e+02 0.0000000000000000e+00 -4.7403330459609367e+02 1.0459142501378179e+04 0.0000000000000000e+00 0.0000000000000000e+00 0.0000000000000000e+00 0.0000000000000000e+00  -3.3002799522128743e+02 -2.1433150193087596e+02 0.0000000000000000e+00 -2.1433150193087641e+02 6.6076633310443494e+03 0.0000000000000000e+00 0.0000000000000000e+00 0.0000000000000000e+00 0.0000000000000000e+00  -2.7047094043737280e+02 3.1208973898826929e+02 0.0000000000000000e+00 3.1208973898826935e+02 8.6406388769245514e+03 0.0000000000000000e+00 0.0000000000000000e+00 0.0000000000000000e+00 0.0000000000000000e+00  2.5883787965690296e+01 -2.1515729813436812e+02 0.0000000000000000e+00 -2.1515729813436749e+02 8.2781613082579915e+03 0.0000000000000000e+00 0.0000000000000000e+00 0.0000000000000000e+00 0.0000000000000000e+00  -6.7882606505030409e+01 -2.6026298181137389e+02 0.0000000000000000e+00 -2.6026298181137366e+02 6.3073350297944653e+03 0.0000000000000000e+00 0.0000000000000000e+00 0.0000000000000000e+00 0.0000000000000000e+00  6.5604852497308329e+01 -5.3096799836943820e+00 0.0000000000000000e+00 -5.3096799836945889e+00 5.8394705617963073e+03 0.0000000000000000e+00 0.0000000000000000e+00 0.0000000000000000e+00 0.0000000000000000e+00  -4.8198518958578504e+01 -1.3617662232471730e+01 0.0000000000000000e+00 -1.3617662232471714e+01 5.6656187826405139e+03 0.0000000000000000e+00 0.0000000000000000e+00 0.0000000000000000e+00 0.0000000000000000e+