<?xml version="1.0"?>
<VTKFile type="UnstructuredGrid"  version="0.1"  >
<UnstructuredGrid>
<Piece  NumberOfPoints="3879" NumberOfCells="6881">
<Points>
<DataArray  type="Float64"  NumberOfComponents="3"  format="ascii">0.207524190028372 0.2122422770132111 0  0 0 0  1 0 0  0 1 0  1 1 0  0.6249674373315121 0.2590146544375328 0  0.204663578893616 0.322657230836866 0  0.09605577522599912 0.4018360776629776 0  0.671351124618251 0.08738059142081528 0  0.7842102907526436 0.1666439122351055 0  0.8512483166984784 0.1985391006160637 0  0.6418797837909295 0.4423157172830166 0  0.9292488447973215 0.3869277868069776 0  0.3197896119137055 0.5509935221980964 0  0.3979283685568406 0.5079871620336583 0  0.1572503457993085 0.7345153245035532 0  0.3032914287999163 0.7872981443735918 0  0.3549464687598876 0.8870324161721976 0  0.9691791685505482 0.5159450047798622 0  0.9447564590470373 0.6146164845729313 0  0.7687603548175107 0.7176858127488035 0  0.8926159261971183 0.7422924070424508 0  0.2061587782631535 0.2217389244366831 0  0.2021731605082994 0.2304662099646423 0  0.1958902278109265 0.2377171008267789 0  0.1878189860121365 0.2429041729681512 0  0.1786133191209442 0.2456072006525708 0  0.1690190155206647 0.2456072006525708 0  0.1598133486294724 0.2429041729681512 0  0.1517421068306824 0.2377171008267789 0  0.1454591741333096 0.2304662099646422 0  0.1414735563784554 0.221738924436683 0  0.1401081446132369 0.212242277013211 0  0.1414735563784555 0.202745629589739 0  0.1454591741333096 0.1940183440617798 0  0.1517421068306825 0.1867674531996431 0  0.1598133486294725 0.1815803810582709 0  0.1690190155206649 0.1788773533738513 0  0.1786133191209443 0.1788773533738514 0  0.1878189860121367 0.181580381058271 0  0.1958902278109266 0.1867674531996433 0  0.2021731605082994 0.19401834406178 0  0.2061587782631535 0.2027456295897391 0  0.03333333333333333 0 0  0.06666666666666667 0 0  0.1 0 0  0.1333333333333333 0 0  0.1666666666666667 0 0  0.2 0 0  0.2333333333333333 0 0  0.2666666666666667 0 0  0.3 0 0  0.3333333333333333 0 0  0.3666666666666666 0 0  0.4 0 0  0.4333333333333333 0 0  0.4666666666666667 0 0  0.5 0 0  0.5333333333333333 0 0  0.5666666666666667 0 0  0.6 0 0  0.6333333333333333 0 0  0.6666666666666666 0 0  0.7 0 0  0.7333333333333333 0 0  0.7666666666666667 0 0  0.8 0 0  0.8333333333333334 0 0  0.8666666666666667 0 0  0.9 0 0  0.9333333333333333 0 0  0.9666666666666667 0 0  0 0.9666666666666667 0  0 0.9333333333333333 0  0 0.9 0  0 0.8666666666666667 0  0 0.8333333333333334 0  0 0.8 0  0 0.7666666666666666 0  0 0.7333333333333334 0  0 0.7 0  0 0.6666666666666667 0  0 0.6333333333333333 0  0 0.6 0  0 0.5666666666666667 0  0 0.5333333333333333 0  0 0.5 0  0 0.4666666666666667 0  0 0.4333333333333333 0  0 0.4 0  0 0.3666666666666667 0  0 0.3333333333333334 0  0 0.3 0  0 0.2666666666666667 0  0 0.2333333333333333 0  0 0.2 0  0 0.1666666666666666 0  0 0.1333333333333333 0  0 0.09999999999999998 0  0 0.06666666666666665 0  0 0.03333333333333333 0  1 0.03333333333333333 0  1 0.06666666666666667 0  1 0.1 0  1 0.1333333333333333 0  1 0.1666666666666667 0  1 0.2 0  1 0.2333333333333333 0  1 0.2666666666666667 0  1 0.3 0  1 0.3333333333333333 0  1 0.3666666666666666 0  1 0.4 0  1 0.4333333333333333 0  1 0.4666666666666667 0  1 0.5 0  1 0.5333333333333333 0  1 0.5666666666666667 0  1 0.6 0  1 0.6333333333333333 0  1 0.6666666666666666 0  1 0.7 0  1 0.7333333333333333 0  1 0.7666666666666667 0  1 0.8 0  1 0.8333333333333334 0  1 0.8666666666666667 0  1 0.9 0  1 0.9333333333333333 0  1 0.9666666666666667 0  0.9666666666666667 1 0  0.9333333333333333 1 0  0.9 1 0  0.8666666666666667 1 0  0.8333333333333334 1 0  0.8 1 0  0.7666666666666666 1 0  0.7333333333333334 1 0  0.7 1 0  0.6666666666666667 1 0  0.6333333333333333 1 0  0.6 1 0  0.5666666666666667 1 0  0.5333333333333333 1 0  0.5 1 0  0.4666666666666667 1 0  0.4333333333333333 1 0  0.4 1 0  0.3666666666666667 1 0  0.3333333333333334 1 0  0.3 1 0  0.2666666666666667 1 0  0.2333333333333333 1 0  0.2 1 0  0.1666666666666666 1 0  0.1333333333333333 1 0  0.09999999999999998 1 0  0.06666666666666665 1 0  0.03333333333333333 1 0  0.6247072676344306 0.2689501343248463 0  0.6239274716502419 0.2788583817523955 0  0.6226301867455355 0.2887122389026952 0  0.6208189686880621 0.2984846970382296 0  0.6184987819006211 0.3081489705305245 0  0.6156759858539226 0.317678570277693 0  0.6123583176357204 0.3270473763092224 0  0.6085548707439923 0.3362297093789981 0  0.6042760701622942 0.3452004013503318 0  0.5995336437856049 0.3539348641800754 0  0.5943405902749808 0.3624091573127375 0  0.5887111434291297 0.3706000532998825 0  0.582660733170558 0.3784851014649517 0  0.5762059432532257 0.3860426894390078 0  0.5693644658076293 0.3932521023987353 0  0.5621550528479018 0.4000935798443317 0  0.5545974648738458 0.4065483697616639 0  0.5467124167087765 0.4125987800202355 0  0.5385215207216315 0.4182282268660866 0  0.5300472275889694 0.4234212803767108 0  0.5213127647592257 0.4281637067534002 0  0.512342072787892 0.4324425073350981 0  0.5031597397181163 0.4362459542268262 0  0.493790933686587 0.4395636224450283 0  0.4842613339394185 0.4423864184917269 0  0.4745970604471235 0.4447066052791678 0  0.4648246023115891 0.4465178233366412 0  0.4549707451612894 0.4478151082413475 0  0.4450624977337403 0.4485949042255363 0  0.4351270178464268 0.4488550739226177 0  0.4251915379591132 0.4485949042255363 0  0.4152832905315641 0.4478151082413475 0  0.4054294333812644 0.4465178233366411 0  0.39565697524573 0.4447066052791677 0  0.385992701753435 0.4423864184917267 0  0.3764631020062665 0.4395636224450281 0  0.3670942959747371 0.4362459542268259 0  0.3579119629049616 0.4324425073350978 0  0.3489412709336278 0.4281637067533998 0  0.3402068081038843 0.4234212803767103 0  0.3317325149712221 0.4182282268660862 0  0.3235416189840771 0.412598780020235 0  0.3156565708190078 0.4065483697616634 0  0.3080989828449519 0.4000935798443311 0  0.3008895698852244 0.3932521023987346 0  0.2940480924396279 0.3860426894390071 0  0.2875933025222958 0.3784851014649511 0  0.2815428922637242 0.3706000532998818 0  0.2759134454178731 0.3624091573127368 0  0.2707203919072489 0.3539348641800746 0  0.2659779655305596 0.3452004013503309 0  0.2616991649488616 0.3362297093789972 0  0.2578957180571336 0.3270473763092215 0  0.2545780498389315 0.3176785702776921 0  0.251755253792233 0.3081489705305236 0  0.249435067004792 0.2984846970382286 0  0.2476238489473186 0.2887122389026941 0  0.2463265640426123 0.2788583817523945 0  0.2455467680584236 0.2689501343248454 0  0.2452865983613423 0.2590146544375318 0  0.2455467680584237 0.2490791745502182 0  0.2463265640426126 0.2391709271226692 0  0.247623848947319 0.2293170699723696 0  0.2494350670047924 0.2195446118368351 0  0.2517552537922335 0.2098803383445402 0  0.2545780498389321 0.2003507385973717 0  0.2578957180571343 0.1909819325658423 0  0.2616991649488624 0.1817995994960667 0  0.2659779655305604 0.172828907524733 0  0.2707203919072498 0.1640944446949895 0  0.2759134454178741 0.1556201515623273 0  0.2815428922637251 0.1474292555751825 0  0.2875933025222969 0.1395442074101132 0  0.2940480924396291 0.1319866194360571 0  0.3008895698852256 0.1247772064763297 0  0.3080989828449531 0.1179357290307334 0  0.3156565708190092 0.1114809391134012 0  0.3235416189840785 0.1054305288548295 0  0.3317325149712236 0.09980108200897844 0  0.3402068081038856 0.0946080284983544 0  0.3489412709336291 0.08986560212166514 0  0.357911962904963 0.08558680153996717 0  0.3670942959747386 0.08178335464823916 0  0.3764631020062678 0.07846568643003712 0  0.3859927017534364 0.0756428903833386 0  0.3956569752457313 0.0733227035958976 0  0.4054294333812659 0.07151148553842429 0  0.4152832905315654 0.07021420063371797 0  0.4251915379591144 0.0694344046495293 0  0.435127017846428 0.0691742349524479 0  0.4450624977337415 0.06943440464952938 0  0.4549707451612905 0.07021420063371814 0  0.4648246023115901 0.07151148553842454 0  0.4745970604471245 0.07332270359589793 0  0.4842613339394195 0.07564289038333902 0  0.4937909336865879 0.07846568643003757 0  0.5031597397181173 0.0817833546482398 0  0.5123420727878929 0.08558680153996781 0  0.5213127647592265 0.08986560212166581 0  0.53004722758897 0.0946080284983552 0  0.5385215207216321 0.09980108200897933 0  0.5467124167087771 0.1054305288548305 0  0.5545974648738462 0.1114809391134021 0  0.5621550528479023 0.1179357290307343 0  0.5693644658076298 0.1247772064763308 0  0.576205943253226 0.1319866194360582 0  0.5826607331705582 0.1395442074101142 0  0.5887111434291299 0.1474292555751835 0  0.594340590274981 0.1556201515623285 0  0.5995336437856051 0.1640944446949906 0  0.6042760701622945 0.172828907524734 0  0.6085548707439925 0.1817995994960678 0  0.6123583176357205 0.1909819325658435 0  0.6156759858539227 0.2003507385973728 0  0.6184987819006211 0.2098803383445412 0  0.6208189686880622 0.2195446118368362 0  0.6226301867455355 0.2293170699723706 0  0.6239274716502419 0.2391709271226702 0  0.6247072676344306 0.2490791745502192 0  0.203885768735257 0.3325402459548524 0  0.2015714905276826 0.3421799084407872 0  0.1977777294810124 0.3513388578120612 0  0.1925979005829864 0.3597915703383434 0  0.1861595484119405 0.3673299121842922 0  0.1786212065659918 0.373768264355338 0  0.1701684940397096 0.378948093253364 0  0.1610095446684356 0.3827418543000342 0  0.1513698821825007 0.3850561325076086 0  0.1414868670645144 0.3858339426659677 0  0.1316038519465281 0.3850561325076086 0  0.1219641894605933 0.3827418543000343 0  0.1128052400893193 0.378948093253364 0  0.1043525275630371 0.3737682643553381 0  0.09681418571708833 0.3673299121842922 0  0.09037583354604248 0.3597915703383434 0  0.08519600464801645 0.3513388578120612 0  0.08140224360134621 0.3421799084407872 0  0.07908796539377183 0.3325402459548523 0  0.07831015523541281 0.3226572308368659 0  0.07908796539377186 0.3127742157188796 0  0.08140224360134626 0.3031345532329447 0  0.08519600464801655 0.2939756038616707 0  0.0903758335460426 0.2855228913353884 0  0.0968141857
[...]
<PointData  Tensors="$\sigma$"> 
<DataArray  type="Float64"  Name="$\sigma$"  NumberOfComponents="9" format="ascii">2.8341014281687711e+02 1.3768533853536365e+01 0.0000000000000000e+00 1.3768533853536320e+01 1.3041348050893364e+04 0.0000000000000000e+00 0.0000000000000000e+00 0.0000000000000000e+00 0.0000000000000000e+00  1.5204142312718052e+03 1.1176874951720815e+02 0.0000000000000000e+00 1.1176874951720835e+02 6.3411392635374996e+03 0.0000000000000000e+00 0.0000000000000000e+00 0.0000000000000000e+00 0.0000000000000000e+00  -3.3467748781443085e+01 -2.7787930999695238e+01 0.0000000000000000e+00 -2.7787930999695224e+01 6.4974803120917722e+03 0.0000000000000000e+00 0.0000000000000000e+00 0.0000000000000000e+00 0.0000000000000000e+00  8.3837460473093746e+00 -5.5720468007359729e+00 0.0000000000000000e+00 -5.5720468007360173e+00 6.7365555265004987e+03 0.0000000000000000e+00 0.0000000000000000e+00 0.0000000000000000e+00 0.0000000000000000e+00  8.6370732377695987e+00 1.3556792052270069e+01 0.0000000000000000e+00 1.3556792052270096e+01 5.8155529238245990e+03 0.0000000000000000e+00 0.0000000000000000e+00 0.0000000000000000e+00 0.0000000000000000e+00  3.2288533777396958e+02 -1.5994253251639159e+02 0.0000000000000000e+00 -1.5994253251639083e+02 1.2226972402379897e+04 0.0000000000000000e+00 0.0000000000000000e+00 0.0000000000000000e+00 0.0000000000000000e+00  -9.8706849815870953e+01 3.6546008815245000e+02 0.0000000000000000e+00 3.6546008815245023e+02 -2.3244545858091495e+01 0.0000000000000000e+00 0.0000000000000000e+00 0.0000000000000000e+00 0.0000000000000000e+00  7.6083451340697843e+02 3.1704938157280316e+02 0.0000000000000000e+00 3.1704938157280378e+02 1.3528750602102849e+04 0.0000000000000000e+00 0.0000000000000000e+00 0.0000000000000000e+00 0.0000000000000000e+00  8.5760907749218276e+01 -1.9647020011718877e+02 0.0000000000000000e+00 -1.9647020011718885e+02 1.2784415752071935e+04 0.0000000000000000e+00 0.0000000000000000e+00 0.0000000000000000e+00 0.0000000000000000e+00  -4.3350685351614351e+02 1.8123668497833512e+02 0.0000000000000000e+00 1.8123668497833543e+02 -4.7508724299813360e+02 0.0000000000000000e+00 0.0000000000000000e+00 0.0000000000000000e+00 0.0000000000000000e+00  -2.0510994887819891e+01 -9.0309475027085199e+01 0.0000000000000000e+00 -9.0309475027085298e+01 -7.7935209717254645e+02 0.0000000000000000e+00 0.0000000000000000e+00 0.0000000000000000e+00 0.0000000000000000e+00  2.1660891017618033e+02 5.2976170736516758e+02 0.0000000000000000e+00 5.2976170736516849e+02 7.4329259421864426e+03 0.0000000000000000e+00 0.0000000000000000e+00 0.0000000000000000e+00 0.0000000000000000e+00  -5.0856398213523812e+00 -2.8770843880420468e+01 0.0000000000000000e+00 -2.8770843880420468e+01 1.1491599655984563e+04 0.0000000000000000e+00 0.0000000000000000e+00 0.0000000000000000e+00 0.0000000000000000e+00  2.7481165052325116e+02 6.4352732723278578e+01 0.0000000000000000e+00 6.4352732723278692e+01 1.2195179205534896e+04 0.0000000000000000e+00 0.0000000000000000e+00 0.0000000000000000e+00 0.0000000000000000e+00  -1.3466116490027943e+02 -2.4850026571854622e+02 0.0000000000000000e+00 -2.4850026571854482e+02 -1.6331521982658271e+03 0.0000000000000000e+00 0.0000000000000000e+00 0.0000000000000000e+00 0.0000000000000000e+00  -4.4622761739177764e+02 -2.6096845491850092e+02 0.0000000000000000e+00 -2.6096845491850161e+02 -2.2247061287794045e+03 0.0000000000000000e+00 0.0000000000000000e+00 0.0000000000000000e+00 0.0000000000000000e+00  1.1202378363199418e+01 -1.3134657145663616e+02 0.0000000000000000e+00 -1.3134657145663775e+02 8.0756366577847330e+03 0.0000000000000000e+00 0.0000000000000000e+00 0.0000000000000000e+00 0.0000000000000000e+00  1.3366080637560859e+02 1.2291198242157316e+02 0.0000000000000000e+00 1.2291198242157371e+02 1.0571979245356188e+04 0.0000000000000000e+00 0.0000000000000000e+00 0.0000000000000000e+00 0.0000000000000000e+00  6.3887595253758445e+03 7.7320587673220552e+02 0.0000000000000000e+00 7.7320587673220655e+02 1.8730194784640444e+04 0.0000000000000000e+00 0.0000000000000000e+00 0.0000000000000000e+00 0.0000000000000000e+00  1.1371245587638991e+03 2.6028099448714545e+02 0.0000000000000000e+00 2.6028099448714539e+02 1.2737710377011193e+04 0.0000000000000000e+00 0.0000000000000000e+00 0.0000000000000000e+00 0.0000000000000000e+00  4.7066675600266763e+01 1.9346663534246900e+02 0.0000000000000000e+00 1.9346663534246767e+02 1.0397890083735299e+04 0.0000000000000000e+00 0.0000000000000000e+00 0.0000000000000000e+00 0.0000000000000000e+00  1.0685380375817009e+02 6.0369098985706472e+01 0.0000000000000000e+00 6.0369098985705939e+01 4.6651042688908801e+03 0.0000000000000000e+00 0.0000000000000000e+00 0.0000000000000000e+00 0.0000000000000000e+00  6.7101508233749905e+02 -1.9056147673960922e+03 0.0000000000000000e+00 -1.9056147673960916e+03 8.3347867661748969e+03 0.0000000000000000e+00 0.0000000000000000e+00 0.0000000000000000e+00 0.0000000000000000e+00  -2.5343049318614462e+02 -6.4525246978026530e+02 0.0000000000000000e+00 -6.4525246978026553e+02 2.2365397590672196e+03 0.0000000000000000e+00 0.0000000000000000e+00 0.0000000000000000e+00 0.0000000000000000e+00  -2.3622984997181584e+03 1.5135365227066052e+03 0.0000000000000000e+00 1.5135365227066093e+03 -1.0423906381098720e+03 0.0000000000000000e+00 0.0000000000000000e+00 0.0000000000000000e+00 0.0000000000000000e+00  -5.3949708002886928e+03 1.9278031751585404e+03 0.0000000000000000e+00 1.9278031751585456e+03 -1.0089791385549909e+03 0.0000000000000000e+00 0.0000000000000000e+00 0.0000000000000000e+00 0.0000000000000000e+00  -4.2114247313521319e+03 1.0263957110054084e+03 0.0000000000000000e+00 1.0263957110054052e+03 -6.8301987246594592e+02 0.0000000000000000e+00 0.0000000000000000e+00 0.0000000000000000e+00 0.0000000000000000e+00  1.5241027767266139e+03 2.7320894297360342e+03 0.0000000000000000e+00 2.7320894297360360e+03 1.6846317582582012e+03 0.0000000000000000e+00 0.0000000000000000e+00 0.0000000000000000e+00 0.0000000000000000e+00  8.8482583516280611e+03 5.5697236389666687e+03 0.0000000000000000e+00 5.5697236389666668e+03 3.1400958430313754e+03 0.0000000000000000e+00 0.0000000000000000e+00 0.0000000000000000e+00 0.0000000000000000e+00  8.6354968896902574e+03 6.4015208438048821e+03 0.0000000000000000e+00 6.4015208438048876e+03 6.5896476429672921e+03 0.0000000000000000e+00 0.0000000000000000e+00 0.0000000000000000e+00 0.0000000000000000e+00  3.8128447161868057e+03 5.3844124332848342e+03 0.0000000000000000e+00 5.3844124332848387e+03 7.4646987053563007e+03 0.0000000000000000e+00 0.0000000000000000e+00 0.0000000000000000e+00 0.0000000000000000e+00  1.3595310433980922e+03 2.3247302196725373e+03 0.0000000000000000e+00 2.3247302196725359e+03 6.1379099509490488e+03 0.0000000000000000e+00 0.0000000000000000e+00 0.0000000000000000e+00 0.0000000000000000e+00  4.0819256199610386e+01 3.7668228030628268e+02 0.0000000000000000e+00 3.7668228030628308e+02 5.0545338000750862e+03 0.0000000000000000e+00 0.0000000000000000e+00 0.0000000000000000e+00 0.0000000000000000e+00  1.8867552832807283e+02 -3.4207337567188540e+02 0.0000000000000000e+00 -3.4207337567188529e+02 2.1784610015517997e+03 0.0000000000000000e+00 0.0000000000000000e+00 0.0000000000000000e+00 0.0000000000000000e+00  -3.4613966752083724e+02 3.2353179263097940e+02 0.0000000000000000e+00 3.2353179263097871e+02 -5.9981617746581094e+01 0.0000000000000000e+00 0.0000000000000000e+00 0.0000000000000000e+00 0.0000000000000000e+00  -1.7852407117267601e+03 1.3542325311078234e+03 0.0000000000000000e+00 1.3542325311078253e+03 -1.0671236394137798e+03 0.0000000000000000e+00 0.0000000000000000e+00 0.0000000000000000e+00 0.0000000000000000e+00  -3.3685762863888940e+03 1.3851402772601027e+03 0.0000000000000000e+00 1.3851402772601007e+03 -8.7182812595928726e+02 0.0000000000000000e+00 0.0000000000000000e+00 0.0000000000000000e+00 0.0000000000000000e+00  -3.4266497385619996e+03 7.0359508104024678e+02 0.0000000000000000e+00 7.0359508104024633e+02 -4.2735265103193473e+02 0.0000000000000000e+00 0.0000000000000000e+00 0.0000000000000000e+00 0.0000000000000000e+00  -1.5606908600606175e+03 1.8639661176302376e+00 0.0000000000000000e+00 1.8639661176287008e+00 1.0320028464393634e+02 0.0000000000000000e+00 0.0000000000000000e+00 0.0000000000000000e+00 0.0000000000000000e+00  1.7393079622546761e+03 1.1750530122693456e+03 0.0000000000000000e+00 1.1750530122693453e+03 6.3736285225014819e+02 0.0000000000000000e+00 0.0000000000000000e+00 0.0000000000000000e+00 0.0000000000000000e+00  3.5370843529745912e+03 3.0919444442088225e+03 0.0000000000000000e+00 3.0919444442088216e+03 3.4755392766764639e+03 0.0000000000000000e+00 0.0000000000000000e+00 0.0000000000000000e+00 0.0000000000000000e+00  2.9624616769056743e+03 4.7641045708705396e+03 0.0000000000000000e+00 4.7641045708705506e+03 7.9224917308359372e+03 0.0000000000000000e+00 0.0000000000000000e+00 0.0000000000000000e+00 0.0000000000000000e+00  1.7584661383576829e+03 3.0665738788505387e+03 0.0000000000000000e+00 3.0665738788505387e+03 1.2069240482009200e+04 0.0000000000000000e+00 0.0000000000000000e+00 0.0000000000000000e+00 0.0000000000000000e+00  5.0061858530194792e+02 -3.7970785633223886e+02 0.0000000000000000e+00 -3.7970785633223937e+02 5.3169467943296613e+03 0.0000000000000000e+00 0.0000000000000000e+00 0.0000000000000000e+00 0.0000000000000000e+00  -1.0099159383191075e+02 6.5816599218610122e+01 0.0000000000000000e+00 6.5816599218610037e+01 4.6482811521260037e+03 0.0000000000000000e+00 0.0000000000000000e+00 0.0000000000000000e+00 0.0000000000000000e+00  3.1867092354536754e+02 -1.5303038316006219e+01 0.0000000000000000e+00 -1.5303038316006216e+01 3.5435307170479623e+03 0.0000000000000000e+00 0.0000000000000000e+00 0.0000000000000000e+00 0.0000000000000000e+00  -4.9232375152678628e+01 5.5487589510354304e+01 0.0000000000000000e+00 5.5487589510354248e+01 2.9716341957015634e+03 0.0000000000000000e+00 0.0000000000000000e+00 0.0000000000000000e+00 0.0000000000000000e+00  8.0592620567182919e+01 4.2943524764680859e+01 0.0000000000000000e+00 4.2943524764680816e+01 2.3498584833939108e+03 0.0000000000000000e+00 0.0000000000000000e+00 0.0000000000000000e+00 0.0000000000000000e+00  -1.2489494447772154e+02 3.2291561423574869e+01 0.0000000000000000e+00 3.2291561423574876e+01 1.7893754370350532e+03 0.0000000000000000e+00 0.0000000000000000e+00 0.0000000000000000e+00 0.0000000000000000e+00  -1.7340137940697804e+02 1.1809746514903537e+01 0.0000000000000000e+00 1.1809746514903596e+01 1.3002046739232546e+03 0.0000000000000000e+00 0.0000000000000000e+00 0.0000000000000000e+00 0.0000000000000000e+00  -2.8757720666637715e+02 9.0609179062987995e+00 0.0000000000000000e+00 9.0609179062988137e+00 8.0831435090688899e+02 0.0000000000000000e+00 0.0000000000000000e+00 0.0000000000000000e+00 0.0000000000000000e+00  -2.9326604797677078e+02 1.1130237664958239e+01 0.0000000000000000e+00 1.1130237664958234e+01 3.2123303372834374e+02 0.0000000000000000e+00 0.0000000000000000e+00 0.0000000000000000e+00 0.0000000000000000e+00  -3.4516624088941137e+02 1.7699384092641051e+01 0.0000000000000000e+00 1.7699384092640983e+01 -5.9886688884136134e+01 0.0000000000000000e+00 0.0000000000000000e+00 0.0000000000000000e+00 0.0000000000000000e+00  -4.5270615368981703e+02 1.4733353293023287e+01 0.0000000000000000e+00 1.4733353293023278e+01 -2.1551616859025125e+02 0.0000000000000000e+00 0.0000000000000000e+00 0.0000000000000000e+00 0.0000000000000000e+00  -5.4099002430730957e+02 -5.7985820496230626e-03 0.0000000000000000e+00 -5.7985820495868486e-03 -2.1786599610979613e+02 0.0000000000000000e+00 0.0000000000000000e+00 0.0000000000000000e+00 0.0000000000000000e+00  -6.1034608422324720e+02 4.6137242291385414e+00 0.0000000000000000e+00 4.6137242291385174e+00 -1.1729866347710873e+02 0.0000000000000000e+00 0.0000000000000000e+00 0.0000000000000000e+00 0.0000000000000000e+00  -6.5968971263495257e+02 -9.3682557281458063e+00 0.0000000000000000e+00 -9.3682557281457726e+00 8.8490510227348693e+01 0.0000000000000000e+00 0.0000000000000000e+00 0.0000000000000000e+00 0.0000000000000000e+00  -7.9709583083273367e+02 7.1914989747032285e+00 0.0000000000000000e+00 7.1914989747030607e+00 5.4430166046897955e+02 0.0000000000000000e+00 0.0000000000000000e+00 0.0000000000000000e+00 0.0000000000000000e+00  -1.1624374677505389e+03 2.6363966848009866e+01 0.0000000000000000e+00 2.6363966848009909e+01 1.1853340669802287e+03 0.0000000000000000e+00 0.0000000000000000e+00 0.0000000000000000e+00 0.0000000000000000e+00  -1.7353826810820574e+03 7.7083107517302835e+01 0.0000000000000000e+00 7.7083107517302949e+01 1.7352408018077015e+03 0.0000000000000000e+00 0.0000000000000000e+00 0.0000000000000000e+00 0.0000000000000000e+00  -1.9873104253163679e+03 -7.7058179356830706e+01 0.0000000000000000e+00 -7.7058179356830607e+01 1.1288471174134743e+03 0.0000000000000000e+00 0.0000000000000000e+00 0.0000000000000000e+00 0.0000000000000000e+00  -1.5471055103172882e+03 1.5339773216359227e+01 0.0000000000000000e+00 1.5339773216359218e+01 -2.1220997383642066e+02 0.0000000000000000e+00 0.0000000000000000e+00 0.0000000000000000e+00 0.0000000000000000e+00  -1.7492379955366764e+03 6.3704144512366824e+01 0.0000000000000000e+00 6.3704144512366881e+01 6.1191594480500589e+02 0.0000000000000000e+00 0.0000000000000000e+00 0.0000000000000000e+00 0.0000000000000000e+00  -1.4598948716927578e+03 -5.6815522166721500e+01 0.0000000000000000e+00 -5.6815522166721529e+01 1.4168119094159842e+03 0.0000000000000000e+00 0.0000000000000000e+00 0.0000000000000000e+00 0.0000000000000000e+00  -7.4597791598017056e+02 -5.9955814662192509e+01 0.0000000000000000e+00 -5.9955814662192765e+01 8.3856519582752310e+02 0.0000000000000000e+00 0.0000000000000000e+00 0.0000000000000000e+00 0.0000000000000000e+00  2.4183935660443353e+01 -3.3336777833147536e+01 0.0000000000000000e+00 -3.3336777833147082e+01 5.8503293514513086e+02 0.0000000000000000e+00 0.0000000000000000e+00 0.0000000000000000e+00 0.0000000000000000e+00  1.8676285728984323e+02 -1.8560166109277308e+01 0.0000000000000000e+00 -1.8560166109277436e+01 7.6423981467518888e+02 0.0000000000000000e+00 0.0000000000000000e+00 0.0000000000000000e+00 0.0000000000000000e+00  2.6586347703860656e+02 -1.7243031270961257e+01 0.0000000000000000e+00 -1.7243031270961183e+01 1.4412286280726862e+03 0.0000000000000000e+00 0.0000000000000000e+00 0.0000000000000000e+00 0.0000000000000000e+00  2.1247223201002259e+02 -3.1534859898944084e+01 0.0000000000000000e+00 -3.1534859898944084e+01 2.2993497530167010e+03 0.0000000000000000e+00 0.0000000000000000e+00 0.0000000000000000e+00 0.0000000000000000e+00  2.5117505830915243e+02 -3.0886692945162441e+01 0.0000000000000000e+00 -3.0886692945162427e+01 3.3331408172156207e+03 0.0000000000000000e+00 0.0000000000000000e+00 0.0000000000000000e+00 0.0000000000000000e+00  4.7983761231721260e+01 -2.0425384053093122e+01 0.0000000000000000e+00 -2.0425384053093278e+01 4.4845485672342202e+03 0.0000000000000000e+00 0.0000000000000000e+00 0.0000000000000000e+00 0.0000000000000000e+00  9.9290142227923170e+01 -3.2316629520937205e+01 0.0000000000000000e+00 -3.2316629520937269e+01 5.5191605633854879e+03 0.0000000000000000e+00 0.0000000000000000e+00 0.0000000000000000e+00 0.0000000000000000e+00  6.5559497829178701e+00 4.6988227035869777e+01 0.0000000000000000e+00 4.6988227035869805e+01 6.7849430489263887e+03 0.0000000000000000e+00 0.0000000000000000e+00 0.0000000000000000e+00 0.0000000000000000e+00  1.1052889987234027e-01 1.9227865159656240e+01 0.0000000000000000e+00 1.9227865159656357e+01 7.0262427405174258e+03 0.0000000000000000e+00 0.0000000000000000e+00 0.0000000000000000e+00 0.0000000000000000e+00  -2.7613757423628402e+00 3.4143905021267756e+01 0.0000000000000000e+00 3.4143905021268154e+01 7.1610798740937016e+03 0.0000000000000000e+00 0.0000000000000000e+00 0.0000000000000000e+00 0.0000000000000000e+00  -1.5731363544328376e+01 1.6321934263050810e+01 0.0000000000000000e+00 1.6321934263050888e+01 7.3641718864980148e+03 0.0000000000000000e+00 0.0000000000000000e+00 0.0000000000000000e+00 0.0000000000000000e+00  2.8098227737732046e+01 7.8375108115141252e+00 0.0000000000000000e+00 7.8375108115140613e+00 7.6600636234504509e+03 0.0000000000000000e+00 0.0000000000000000e+00 0.0000000000000000e+00 0.0000000000000000e+00  -6.0444221918419858e+00 8.1017695486783950e+01 0.0000000000000000e+00 8.1017695486783708e+01 7.7829067082672755e+03 0.0000000000000000e+00 0.0000000000000000e+00 0.0000000000000000e+00 0.0000000000000000e+00  -5.1536510703244524e+01 9.1003256864516203e+01 0.0000000000000000e+00 9.1003256864515691e+01 8.4818016212046878e+03 0.0000000000000000e+00 0.0000000000000000e+00 0.0000000000000000e+00 0.0000000000000000e+00  -6.2123465442796828e+00 1.6007921791911349e+02 0.0000000000000000e+00 1.6007921791911369e+02 9.3288359858818858e+03 0.0000000000000000e+00 0.0000000000000000e+00 0.0000000000000000e+00 0.0000000000000000e+00  -1.2287909741588521e+01 8.7103096282169503e+01 0.0000000000000000e+00 8.7103096282169091e+01 1.0409000209528669e+04 0.0000000000000000e+00 0.0000000000000000e+00 0.0000000000000000e+00 0.0000000000000000e+00  -5.4228191637578327e+01 -3.2880363388367535e+01 0.0000000000000000e+00 -3.2880363388367861e+01 1.0784095084617715e+04 0.0000000000000000e+00 0.0000000000000000e+00 0.0000000000000000e+00 0.0000000000000000e+00  -4.8096108000435670e+01 -3.3084080329815225e+02 0.0000000000000000e+00 -3.3084080329815134e+02 9.9951662963827002e+03 0.0000000000000000e+00 0.0000000000000000e+00 0.0000000000000000e+00 0.0000000000000000e+00  -3.4831517942008838e+02 -9.0099428179045265e+02 0.0000000000000000e+00 -9.0099428179045242e+02 7.6253028412740587e+03 0.0000000000000000e+00 0.0000000000000000e+00 0.0000000000000000e+00 0.0000000000000000e+00  6.3736046983842311e+02 1.6190919139647158e+02 0.0000000000000000e+00 1.6190919139647201e+02 2.3598603311940083e+03 0.0000000000000000e+00 0.0000000000000000e+00 0.0000000000000000e+00 0.0000000000000000e+00  8.2018032488470408e+02 1.0548822961912178e+03 0.0000000000000000e+00 1.0548822961912172e+03 2.6608564168841281e+03 0.0000000000000000e+00 0.0000000000000000e+00 0.0000000000000000e+00 0.0000000000000000e+00  6.1414548325501116e+01 4.8468037268877168e+02 0.0000000000000000e+00 4.8468037268877191e+02 9.8512858460238695e+03 0.0000000000000000e+00 0.0000000000000000e+00 0.0000000000000000e+00 0.0000000000000000e+00  4.8027158957383466e+02 1.5877306671060597e+02 0.0000000000000000e+00 1.5877306671060489e+02 1.2568271685725302e+04 0.0000000000000000e+00 0.0000000000000000e+00 0.0000000000000000e+00 0.0000000000000000e+00  1.1100409341600935e+03 -7.6939314150269831e+02 0.0000000000000000e+00 -7.6939314150269934e+02 1.2791869618292572e+04 0.0000000000000000e+00 0.0000000000000000e+00 0.0000000000000000e+00 0.0000000000000000e+00  -9.1213170052742248e+02 -3.9960852918036727e+02 0.0000000000000000e+00 -3.9960852918036710e+02 8.3580486178358187e+03 0.0000000000000000e+00 0.0000000000000000e+00 0.0000000000000000e+00 0.0000000000000000e+00  -2.3518696556370332e+02 4.5123490351331509e+02 0.0000000000000000e+00 4.5123490351331498e+02 1.1008483796743431e+04 0.0000000000000000e+00 0.0000000000000000e+00 0.0000000000000000e+00 0.0000000000000000e+00  6.7768675303851410e+01 -2.9719797483400885e+02 0.0000000000000000e+00 -2.9719797483400896e+02 1.0307546860313414e+04 0.0000000000000000e+00 0.0000000000000000e+00 0.0000000000000000e+00 0.0000000000000000e+00  -1.1077267734068369e+02 -3.2921132068171983e+02 0.0000000000000000e+00 -3.2921132068171949e+02 7.7684460718554183e+03 0.0000000000000000e+00 0.0000000000000000e+00 0.0000000000000000e+00 0.0000000000000000e+00  8.7199934354129596e+01 -8.1716805058898032e+00 0.0000000000000000e+00 -8.1716805058901461e+00 7.1394971514412973e+03 0.0000000000000000e+00 0.0000000000000000e+00 0.0000000000000000e+00 0.0000000000000000e+00  -6.7039971967818417e+01 -2.7030970180762026e+01 0.0000000000000000e+00 -2.7030970180761869e+01 6.8773875076244185e+03 0.0000000000000000e+00 0.0000000000000000e+00 0.0000000000000000e+00 0.00000000000