<?xml version="1.0"?>
<VTKFile type="UnstructuredGrid"  version="0.1"  >
<UnstructuredGrid>
<Piece  NumberOfPoints="3879" NumberOfCells="6881">
<Points>
<DataArray  type="Float64"  NumberOfComponents="3"  format="ascii">0.207524190028372 0.2122422770132111 0  0 0 0  1 0 0  0 1 0  1 1 0  0.6249674373315121 0.2590146544375328 0  0.204663578893616 0.322657230836866 0  0.09605577522599912 0.4018360776629776 0  0.671351124618251 0.08738059142081528 0  0.7842102907526436 0.1666439122351055 0  0.8512483166984784 0.1985391006160637 0  0.6418797837909295 0.4423157172830166 0  0.9292488447973215 0.3869277868069776 0  0.3197896119137055 0.5509935221980964 0  0.3979283685568406 0.5079871620336583 0  0.1572503457993085 0.7345153245035532 0  0.3032914287999163 0.7872981443735918 0  0.3549464687598876 0.8870324161721976 0  0.9691791685505482 0.5159450047798622 0  0.9447564590470373 0.6146164845729313 0  0.7687603548175107 0.7176858127488035 0  0.8926159261971183 0.7422924070424508 0  0.2061587782631535 0.2217389244366831 0  0.2021731605082994 0.2304662099646423 0  0.1958902278109265 0.2377171008267789 0  0.1878189860121365 0.2429041729681512 0  0.1786133191209442 0.2456072006525708 0  0.1690190155206647 0.2456072006525708 0  0.1598133486294724 0.2429041729681512 0  0.1517421068306824 0.2377171008267789 0  0.1454591741333096 0.2304662099646422 0  0.1414735563784554 0.221738924436683 0  0.1401081446132369 0.212242277013211 0  0.1414735563784555 0.202745629589739 0  0.1454591741333096 0.1940183440617798 0  0.1517421068306825 0.1867674531996431 0  0.1598133486294725 0.1815803810582709 0  0.1690190155206649 0.1788773533738513 0  0.1786133191209443 0.1788773533738514 0  0.1878189860121367 0.181580381058271 0  0.1958902278109266 0.1867674531996433 0  0.2021731605082994 0.19401834406178 0  0.2061587782631535 0.2027456295897391 0  0.03333333333333333 0 0  0.06666666666666667 0 0  0.1 0 0  0.1333333333333333 0 0  0.1666666666666667 0 0  0.2 0 0  0.2333333333333333 0 0  0.2666666666666667 0 0  0.3 0 0  0.3333333333333333 0 0  0.3666666666666666 0 0  0.4 0 0  0.4333333333333333 0 0  0.4666666666666667 0 0  0.5 0 0  0.5333333333333333 0 0  0.5666666666666667 0 0  0.6 0 0  0.6333333333333333 0 0  0.6666666666666666 0 0  0.7 0 0  0.7333333333333333 0 0  0.7666666666666667 0 0  0.8 0 0  0.8333333333333334 0 0  0.8666666666666667 0 0  0.9 0 0  0.9333333333333333 0 0  0.9666666666666667 0 0  0 0.9666666666666667 0  0 0.9333333333333333 0  0 0.9 0  0 0.8666666666666667 0  0 0.8333333333333334 0  0 0.8 0  0 0.7666666666666666 0  0 0.7333333333333334 0  0 0.7 0  0 0.6666666666666667 0  0 0.6333333333333333 0  0 0.6 0  0 0.5666666666666667 0  0 0.5333333333333333 0  0 0.5 0  0 0.4666666666666667 0  0 0.4333333333333333 0  0 0.4 0  0 0.3666666666666667 0  0 0.3333333333333334 0  0 0.3 0  0 0.2666666666666667 0  0 0.2333333333333333 0  0 0.2 0  0 0.1666666666666666 0  0 0.1333333333333333 0  0 0.09999999999999998 0  0 0.06666666666666665 0  0 0.03333333333333333 0  1 0.03333333333333333 0  1 0.06666666666666667 0  1 0.1 0  1 0.1333333333333333 0  1 0.1666666666666667 0  1 0.2 0  1 0.2333333333333333 0  1 0.2666666666666667 0  1 0.3 0  1 0.3333333333333333 0  1 0.3666666666666666 0  1 0.4 0  1 0.4333333333333333 0  1 0.4666666666666667 0  1 0.5 0  1 0.5333333333333333 0  1 0.5666666666666667 0  1 0.6 0  1 0.6333333333333333 0  1 0.6666666666666666 0  1 0.7 0  1 0.7333333333333333 0  1 0.7666666666666667 0  1 0.8 0  1 0.8333333333333334 0  1 0.8666666666666667 0  1 0.9 0  1 0.9333333333333333 0  1 0.9666666666666667 0  0.9666666666666667 1 0  0.9333333333333333 1 0  0.9 1 0  0.8666666666666667 1 0  0.8333333333333334 1 0  0.8 1 0  0.7666666666666666 1 0  0.7333333333333334 1 0  0.7 1 0  0.6666666666666667 1 0  0.6333333333333333 1 0  0.6 1 0  0.5666666666666667 1 0  0.5333333333333333 1 0  0.5 1 0  0.4666666666666667 1 0  0.4333333333333333 1 0  0.4 1 0  0.3666666666666667 1 0  0.3333333333333334 1 0  0.3 1 0  0.2666666666666667 1 0  0.2333333333333333 1 0  0.2 1 0  0.1666666666666666 1 0  0.1333333333333333 1 0  0.09999999999999998 1 0  0.06666666666666665 1 0  0.03333333333333333 1 0  0.6247072676344306 0.2689501343248463 0  0.6239274716502419 0.2788583817523955 0  0.6226301867455355 0.2887122389026952 0  0.6208189686880621 0.2984846970382296 0  0.6184987819006211 0.3081489705305245 0  0.6156759858539226 0.317678570277693 0  0.6123583176357204 0.3270473763092224 0  0.6085548707439923 0.3362297093789981 0  0.6042760701622942 0.3452004013503318 0  0.5995336437856049 0.3539348641800754 0  0.5943405902749808 0.3624091573127375 0  0.5887111434291297 0.3706000532998825 0  0.582660733170558 0.3784851014649517 0  0.5762059432532257 0.3860426894390078 0  0.5693644658076293 0.3932521023987353 0  0.5621550528479018 0.4000935798443317 0  0.5545974648738458 0.4065483697616639 0  0.5467124167087765 0.4125987800202355 0  0.5385215207216315 0.4182282268660866 0  0.5300472275889694 0.4234212803767108 0  0.5213127647592257 0.4281637067534002 0  0.512342072787892 0.4324425073350981 0  0.5031597397181163 0.4362459542268262 0  0.493790933686587 0.4395636224450283 0  0.4842613339394185 0.4423864184917269 0  0.4745970604471235 0.4447066052791678 0  0.4648246023115891 0.4465178233366412 0  0.4549707451612894 0.4478151082413475 0  0.4450624977337403 0.4485949042255363 0  0.4351270178464268 0.4488550739226177 0  0.4251915379591132 0.4485949042255363 0  0.4152832905315641 0.4478151082413475 0  0.4054294333812644 0.4465178233366411 0  0.39565697524573 0.4447066052791677 0  0.385992701753435 0.4423864184917267 0  0.3764631020062665 0.4395636224450281 0  0.3670942959747371 0.4362459542268259 0  0.3579119629049616 0.4324425073350978 0  0.3489412709336278 0.4281637067533998 0  0.3402068081038843 0.4234212803767103 0  0.3317325149712221 0.4182282268660862 0  0.3235416189840771 0.412598780020235 0  0.3156565708190078 0.4065483697616634 0  0.3080989828449519 0.4000935798443311 0  0.3008895698852244 0.3932521023987346 0  0.2940480924396279 0.3860426894390071 0  0.2875933025222958 0.3784851014649511 0  0.2815428922637242 0.3706000532998818 0  0.2759134454178731 0.3624091573127368 0  0.2707203919072489 0.3539348641800746 0  0.2659779655305596 0.3452004013503309 0  0.2616991649488616 0.3362297093789972 0  0.2578957180571336 0.3270473763092215 0  0.2545780498389315 0.3176785702776921 0  0.251755253792233 0.3081489705305236 0  0.249435067004792 0.2984846970382286 0  0.2476238489473186 0.2887122389026941 0  0.2463265640426123 0.2788583817523945 0  0.2455467680584236 0.2689501343248454 0  0.2452865983613423 0.2590146544375318 0  0.2455467680584237 0.2490791745502182 0  0.2463265640426126 0.2391709271226692 0  0.247623848947319 0.2293170699723696 0  0.2494350670047924 0.2195446118368351 0  0.2517552537922335 0.2098803383445402 0  0.2545780498389321 0.2003507385973717 0  0.2578957180571343 0.1909819325658423 0  0.2616991649488624 0.1817995994960667 0  0.2659779655305604 0.172828907524733 0  0.2707203919072498 0.1640944446949895 0  0.2759134454178741 0.1556201515623273 0  0.2815428922637251 0.1474292555751825 0  0.2875933025222969 0.1395442074101132 0  0.2940480924396291 0.1319866194360571 0  0.3008895698852256 0.1247772064763297 0  0.3080989828449531 0.1179357290307334 0  0.3156565708190092 0.1114809391134012 0  0.3235416189840785 0.1054305288548295 0  0.3317325149712236 0.09980108200897844 0  0.3402068081038856 0.0946080284983544 0  0.3489412709336291 0.08986560212166514 0  0.357911962904963 0.08558680153996717 0  0.3670942959747386 0.08178335464823916 0  0.3764631020062678 0.07846568643003712 0  0.3859927017534364 0.0756428903833386 0  0.3956569752457313 0.0733227035958976 0  0.4054294333812659 0.07151148553842429 0  0.4152832905315654 0.07021420063371797 0  0.4251915379591144 0.0694344046495293 0  0.435127017846428 0.0691742349524479 0  0.4450624977337415 0.06943440464952938 0  0.4549707451612905 0.07021420063371814 0  0.4648246023115901 0.07151148553842454 0  0.4745970604471245 0.07332270359589793 0  0.4842613339394195 0.07564289038333902 0  0.4937909336865879 0.07846568643003757 0  0.5031597397181173 0.0817833546482398 0  0.5123420727878929 0.08558680153996781 0  0.5213127647592265 0.08986560212166581 0  0.53004722758897 0.0946080284983552 0  0.5385215207216321 0.09980108200897933 0  0.5467124167087771 0.1054305288548305 0  0.5545974648738462 0.1114809391134021 0  0.5621550528479023 0.1179357290307343 0  0.5693644658076298 0.1247772064763308 0  0.576205943253226 0.1319866194360582 0  0.5826607331705582 0.1395442074101142 0  0.5887111434291299 0.1474292555751835 0  0.594340590274981 0.1556201515623285 0  0.5995336437856051 0.1640944446949906 0  0.6042760701622945 0.172828907524734 0  0.6085548707439925 0.1817995994960678 0  0.6123583176357205 0.1909819325658435 0  0.6156759858539227 0.2003507385973728 0  0.6184987819006211 0.2098803383445412 0  0.6208189686880622 0.2195446118368362 0  0.6226301867455355 0.2293170699723706 0  0.6239274716502419 0.2391709271226702 0  0.6247072676344306 0.2490791745502192 0  0.203885768735257 0.3325402459548524 0  0.2015714905276826 0.3421799084407872 0  0.1977777294810124 0.3513388578120612 0  0.1925979005829864 0.3597915703383434 0  0.1861595484119405 0.3673299121842922 0  0.1786212065659918 0.373768264355338 0  0.1701684940397096 0.378948093253364 0  0.1610095446684356 0.3827418543000342 0  0.1513698821825007 0.3850561325076086 0  0.1414868670645144 0.3858339426659677 0  0.1316038519465281 0.3850561325076086 0  0.1219641894605933 0.3827418543000343 0  0.1128052400893193 0.378948093253364 0  0.1043525275630371 0.3737682643553381 0  0.09681418571708833 0.3673299121842922 0  0.09037583354604248 0.3597915703383434 0  0.08519600464801645 0.3513388578120612 0  0.08140224360134621 0.3421799084407872 0  0.07908796539377183 0.3325402459548523 0  0.07831015523541281 0.3226572308368659 0  0.07908796539377186 0.3127742157188796 0  0.08140224360134626 0.3031345532329447 0  0.08519600464801655 0.2939756038616707 0  0.0903758335460426 0.2855228913353884 0  0.0968141857
[...]
<PointData  Tensors="$\sigma$"> 
<DataArray  type="Float64"  Name="$\sigma$"  NumberOfComponents="9" format="ascii">1.3485269123151357e+02 3.4121356489521638e+01 0.0000000000000000e+00 3.4121356489521595e+01 9.2622323611120919e+03 0.0000000000000000e+00 0.0000000000000000e+00 0.0000000000000000e+00 0.0000000000000000e+00  1.1161392176717675e+03 9.8217474400139309e+01 0.0000000000000000e+00 9.8217474400139395e+01 4.6187984937695001e+03 0.0000000000000000e+00 0.0000000000000000e+00 0.0000000000000000e+00 0.0000000000000000e+00  -2.1411315861010944e+01 -1.9058542970875973e+01 0.0000000000000000e+00 -1.9058542970875948e+01 4.9407690864173028e+03 0.0000000000000000e+00 0.0000000000000000e+00 0.0000000000000000e+00 0.0000000000000000e+00  7.1886148861264685e+00 -4.2990595433175738e+00 0.0000000000000000e+00 -4.2990595433176226e+00 4.7760740055460819e+03 0.0000000000000000e+00 0.0000000000000000e+00 0.0000000000000000e+00 0.0000000000000000e+00  8.7211280237183093e+00 9.8483872390469820e+00 0.0000000000000000e+00 9.8483872390469855e+00 4.5197177293930863e+03 0.0000000000000000e+00 0.0000000000000000e+00 0.0000000000000000e+00 0.0000000000000000e+00  7.7756771796350861e+01 8.0220215772873587e+01 0.0000000000000000e+00 8.0220215772874184e+01 9.2532451434233953e+03 0.0000000000000000e+00 0.0000000000000000e+00 0.0000000000000000e+00 0.0000000000000000e+00  -7.7139507319897049e+01 2.2540860894862948e+02 0.0000000000000000e+00 2.2540860894862877e+02 2.5779609136495679e+02 0.0000000000000000e+00 0.0000000000000000e+00 0.0000000000000000e+00 0.0000000000000000e+00  5.9750564667433332e+02 3.8670540235433793e+02 0.0000000000000000e+00 3.8670540235433822e+02 9.9856716281940462e+03 0.0000000000000000e+00 0.0000000000000000e+00 0.0000000000000000e+00 0.0000000000000000e+00  2.1845440143045769e+02 -3.0153765542157561e+02 0.0000000000000000e+00 -3.0153765542157623e+02 9.2749265821932786e+03 0.0000000000000000e+00 0.0000000000000000e+00 0.0000000000000000e+00 0.0000000000000000e+00  -2.4034688770341256e+02 7.8242357424394356e+01 0.0000000000000000e+00 7.8242357424394825e+01 -1.3394804079437918e+02 0.0000000000000000e+00 0.0000000000000000e+00 0.0000000000000000e+00 0.0000000000000000e+00  2.6190238701912434e+00 -3.1569254333780144e+01 0.0000000000000000e+00 -3.1569254333780030e+01 -9.3862074175912923e+01 0.0000000000000000e+00 0.0000000000000000e+00 0.0000000000000000e+00 0.0000000000000000e+00  1.1625021566406410e+02 3.8605324929888417e+02 0.0000000000000000e+00 3.8605324929888423e+02 5.1543704391879710e+03 0.0000000000000000e+00 0.0000000000000000e+00 0.0000000000000000e+00 0.0000000000000000e+00  -5.3053766084437591e+01 6.2034961098942588e+01 0.0000000000000000e+00 6.2034961098942240e+01 1.1795888411747224e+04 0.0000000000000000e+00 0.0000000000000000e+00 0.0000000000000000e+00 0.0000000000000000e+00  5.8797962002799316e+01 1.1019994302821833e+02 0.0000000000000000e+00 1.1019994302821847e+02 9.5432612900208587e+03 0.0000000000000000e+00 0.0000000000000000e+00 0.0000000000000000e+00 0.0000000000000000e+00  -8.6073613096621671e+01 -1.9522728503586561e+02 0.0000000000000000e+00 -1.9522728503586529e+02 -1.1300579846155188e+03 0.0000000000000000e+00 0.0000000000000000e+00 0.0000000000000000e+00 0.0000000000000000e+00  -1.8625939416758843e+02 -1.6912805591254681e+02 0.0000000000000000e+00 -1.6912805591254613e+02 -6.1474015397863673e+02 0.0000000000000000e+00 0.0000000000000000e+00 0.0000000000000000e+00 0.0000000000000000e+00  5.2015749400811615e+01 -1.2475381210907470e+02 0.0000000000000000e+00 -1.2475381210907497e+02 6.0055251502359533e+03 0.0000000000000000e+00 0.0000000000000000e+00 0.0000000000000000e+00 0.0000000000000000e+00  1.2078241510964160e+02 9.3532428882289949e+01 0.0000000000000000e+00 9.3532428882289906e+01 7.1701567276228880e+03 0.0000000000000000e+00 0.0000000000000000e+00 0.0000000000000000e+00 0.0000000000000000e+00  4.7400020887825649e+03 6.6994989185999930e+02 0.0000000000000000e+00 6.6994989186000009e+02 1.7607865329736051e+04 0.0000000000000000e+00 0.0000000000000000e+00 0.0000000000000000e+00 0.0000000000000000e+00  2.5896305069331419e+02 -3.1448907608948042e+02 0.0000000000000000e+00 -3.1448907608948087e+02 1.1091076318976891e+04 0.0000000000000000e+00 0.0000000000000000e+00 0.0000000000000000e+00 0.0000000000000000e+00  4.1720699208108165e+01 1.5095076534252232e+02 0.0000000000000000e+00 1.5095076534252192e+02 7.0685718468023042e+03 0.0000000000000000e+00 0.0000000000000000e+00 0.0000000000000000e+00 0.0000000000000000e+00  1.2529545010603820e+02 1.3740798247622958e+01 0.0000000000000000e+00 1.3740798247622740e+01 3.7830957938640822e+03 0.0000000000000000e+00 0.0000000000000000e+00 0.0000000000000000e+00 0.0000000000000000e+00  4.5242846347203630e+02 -1.2406660562271159e+03 0.0000000000000000e+00 -1.2406660562271163e+03 5.8174463605778428e+03 0.0000000000000000e+00 0.0000000000000000e+00 0.0000000000000000e+00 0.0000000000000000e+00  -2.3379913509176745e+02 -3.9372083816948162e+02 0.0000000000000000e+00 -3.9372083816948179e+02 1.5717161505280515e+03 0.0000000000000000e+00 0.0000000000000000e+00 0.0000000000000000e+00 0.0000000000000000e+00  -1.7047980208665147e+03 1.0998267726003303e+03 0.0000000000000000e+00 1.0998267726003319e+03 -7.4625939857184017e+02 0.0000000000000000e+00 0.0000000000000000e+00 0.0000000000000000e+00 0.0000000000000000e+00  -3.5803759080238565e+03 1.2908824782931019e+03 0.0000000000000000e+00 1.2908824782931022e+03 -7.3363004599799046e+02 0.0000000000000000e+00 0.0000000000000000e+00 0.0000000000000000e+00 0.0000000000000000e+00  -2.7397222363845490e+03 7.4409802719644222e+02 0.0000000000000000e+00 7.4409802719644142e+02 -4.5970937779498263e+02 0.0000000000000000e+00 0.0000000000000000e+00 0.0000000000000000e+00 0.0000000000000000e+00  1.2012542995676256e+03 1.9039337106125433e+03 0.0000000000000000e+00 1.9039337106125420e+03 1.2065762871060069e+03 0.0000000000000000e+00 0.0000000000000000e+00 0.0000000000000000e+00 0.0000000000000000e+00  6.0509255722692787e+03 3.9097838143828735e+03 0.0000000000000000e+00 3.9097838143828690e+03 2.2165173697024243e+03 0.0000000000000000e+00 0.0000000000000000e+00 0.0000000000000000e+00 0.0000000000000000e+00  6.0153626756561471e+03 4.7263640681898250e+03 0.0000000000000000e+00 4.7263640681898305e+03 4.3832720392203237e+03 0.0000000000000000e+00 0.0000000000000000e+00 0.0000000000000000e+00 0.0000000000000000e+00  2.7063292735980358e+03 3.6222348404799077e+03 0.0000000000000000e+00 3.6222348404799104e+03 5.0618583928535672e+03 0.0000000000000000e+00 0.0000000000000000e+00 0.0000000000000000e+00 0.0000000000000000e+00  9.6820606686865483e+02 1.5944786603135265e+03 0.0000000000000000e+00 1.5944786603135281e+03 4.2320480265268225e+03 0.0000000000000000e+00 0.0000000000000000e+00 0.0000000000000000e+00 0.0000000000000000e+00  7.2059255012178426e+01 2.5420413194117759e+02 0.0000000000000000e+00 2.5420413194117768e+02 3.6254144722534184e+03 0.0000000000000000e+00 0.0000000000000000e+00 0.0000000000000000e+00 0.0000000000000000e+00  1.6636626007669673e+02 -3.0598219251738419e+02 0.0000000000000000e+00 -3.0598219251738374e+02 1.7621114204532153e+03 0.0000000000000000e+00 0.0000000000000000e+00 0.0000000000000000e+00 0.0000000000000000e+00  -1.4392506053255073e+02 1.0432489432455728e+02 0.0000000000000000e+00 1.0432489432455685e+02 1.9153959844778331e+02 0.0000000000000000e+00 0.0000000000000000e+00 0.0000000000000000e+00 0.0000000000000000e+00  -1.1359662166185419e+03 8.1809565447041609e+02 0.0000000000000000e+00 8.1809565447041803e+02 -5.9827372124493115e+02 0.0000000000000000e+00 0.0000000000000000e+00 0.0000000000000000e+00 0.0000000000000000e+00  -2.2254876800888883e+03 8.8360466156485961e+02 0.0000000000000000e+00 8.8360466156485836e+02 -5.5806304320525885e+02 0.0000000000000000e+00 0.0000000000000000e+00 0.0000000000000000e+00 0.0000000000000000e+00  -2.3174916118786314e+03 4.7745703147339003e+02 0.0000000000000000e+00 4.7745703147338929e+02 -3.0429293162660611e+02 0.0000000000000000e+00 0.0000000000000000e+00 0.0000000000000000e+00 0.0000000000000000e+00  -1.0518383841205350e+03 2.6227969946465841e+01 0.0000000000000000e+00 2.6227969946465475e+01 6.9437762125003132e+01 0.0000000000000000e+00 0.0000000000000000e+00 0.0000000000000000e+00 0.0000000000000000e+00  1.1942628928350362e+03 8.4526226981216041e+02 0.0000000000000000e+00 8.4526226981216109e+02 4.8844827714646311e+02 0.0000000000000000e+00 0.0000000000000000e+00 0.0000000000000000e+00 0.0000000000000000e+00  2.4562785055986697e+03 2.1765855854191691e+03 0.0000000000000000e+00 2.1765855854191723e+03 2.5158530507909786e+03 0.0000000000000000e+00 0.0000000000000000e+00 0.0000000000000000e+00 0.0000000000000000e+00  2.0894591195914595e+03 3.3470919888566577e+03 0.0000000000000000e+00 3.3470919888566605e+03 5.6570436455151812e+03 0.0000000000000000e+00 0.0000000000000000e+00 0.0000000000000000e+00 0.0000000000000000e+00  1.2967904998403824e+03 2.1291328577821132e+03 0.0000000000000000e+00 2.1291328577821155e+03 8.4755110776683268e+03 0.0000000000000000e+00 0.0000000000000000e+00 0.0000000000000000e+00 0.0000000000000000e+00  3.9092874148840093e+02 -2.7155061100340288e+02 0.0000000000000000e+00 -2.7155061100340299e+02 3.8815663317847711e+03 0.0000000000000000e+00 0.0000000000000000e+00 0.0000000000000000e+00 0.0000000000000000e+00  -7.7484673486524969e+01 3.9559854677422940e+01 0.0000000000000000e+00 3.9559854677422869e+01 3.4011089070957892e+03 0.0000000000000000e+00 0.0000000000000000e+00 0.0000000000000000e+00 0.0000000000000000e+00  2.3034347062526621e+02 -2.1075346166521580e+00 0.0000000000000000e+00 -2.1075346166521296e+00 2.6167603051472693e+03 0.0000000000000000e+00 0.0000000000000000e+00 0.0000000000000000e+00 0.0000000000000000e+00  -3.4520683738281424e+00 3.3901628544594793e+01 0.0000000000000000e+00 3.3901628544594836e+01 2.2059012418084367e+03 0.0000000000000000e+00 0.0000000000000000e+00 0.0000000000000000e+00 0.0000000000000000e+00  8.2531985440223252e+01 3.3684702503029762e+01 0.0000000000000000e+00 3.3684702503029733e+01 1.7446550744546068e+03 0.0000000000000000e+00 0.0000000000000000e+00 0.0000000000000000e+00 0.0000000000000000e+00  -4.0593490409680804e+01 2.2504937123145371e+01 0.0000000000000000e+00 2.2504937123145414e+01 1.3266607384287481e+03 0.0000000000000000e+00 0.0000000000000000e+00 0.0000000000000000e+00 0.0000000000000000e+00  -7.1873028414466731e+01 9.7255967105089987e+00 0.0000000000000000e+00 9.7255967105090200e+00 9.6231611389756665e+02 0.0000000000000000e+00 0.0000000000000000e+00 0.0000000000000000e+00 0.0000000000000000e+00  -1.4202930697849322e+02 7.4366483109182173e+00 0.0000000000000000e+00 7.4366483109182084e+00 6.0679894311044063e+02 0.0000000000000000e+00 0.0000000000000000e+00 0.0000000000000000e+00 0.0000000000000000e+00  -1.3642418689916676e+02 8.0965921228510780e+00 0.0000000000000000e+00 8.0965921228510638e+00 2.5265400359548067e+02 0.0000000000000000e+00 0.0000000000000000e+00 0.0000000000000000e+00 0.0000000000000000e+00  -1.6420488232758302e+02 1.2771598352846654e+01 0.0000000000000000e+00 1.2771598352846594e+01 -2.6970999748654890e+01 0.0000000000000000e+00 0.0000000000000000e+00 0.0000000000000000e+00 0.0000000000000000e+00  -2.3373782188283096e+02 1.0312041748375636e+01 0.0000000000000000e+00 1.0312041748375597e+01 -1.3799759450216408e+02 0.0000000000000000e+00 0.0000000000000000e+00 0.0000000000000000e+00 0.0000000000000000e+00  -2.9171553661455391e+02 1.0947220349180353e-01 0.0000000000000000e+00 1.0947220349183139e-01 -1.3870075864161350e+02 0.0000000000000000e+00 0.0000000000000000e+00 0.0000000000000000e+00 0.0000000000000000e+00  -3.3799972715883763e+02 3.1298399104426671e+00 0.0000000000000000e+00 3.1298399104426715e+00 -6.9721288234612899e+01 0.0000000000000000e+00 0.0000000000000000e+00 0.0000000000000000e+00 0.0000000000000000e+00  -3.7081185632493668e+02 -6.2620802377234188e+00 0.0000000000000000e+00 -6.2620802377233700e+00 6.4486787772210818e+01 0.0000000000000000e+00 0.0000000000000000e+00 0.0000000000000000e+00 0.0000000000000000e+00  -4.6545622083241511e+02 5.4257413519771216e+00 0.0000000000000000e+00 5.4257413519769271e+00 3.6730531004370363e+02 0.0000000000000000e+00 0.0000000000000000e+00 0.0000000000000000e+00 0.0000000000000000e+00  -7.0288007511815113e+02 2.0666243401304712e+01 0.0000000000000000e+00 2.0666243401304730e+01 7.9392556392374343e+02 0.0000000000000000e+00 0.0000000000000000e+00 0.0000000000000000e+00 0.0000000000000000e+00  -1.0877123103053400e+03 5.1678202211721732e+01 0.0000000000000000e+00 5.1678202211721654e+01 1.1579133652113453e+03 0.0000000000000000e+00 0.0000000000000000e+00 0.0000000000000000e+00 0.0000000000000000e+00  -1.2477492530720722e+03 -5.4614919125431648e+01 0.0000000000000000e+00 -5.4614919125431662e+01 7.6761747286655316e+02 0.0000000000000000e+00 0.0000000000000000e+00 0.0000000000000000e+00 0.0000000000000000e+00  -9.5118846668033677e+02 8.0207785110242877e+00 0.0000000000000000e+00 8.0207785110243037e+00 -9.4845633350752266e+01 0.0000000000000000e+00 0.0000000000000000e+00 0.0000000000000000e+00 0.0000000000000000e+00  -1.0995218846438236e+03 4.6063368411451471e+01 0.0000000000000000e+00 4.6063368411451613e+01 4.9355650512327554e+02 0.0000000000000000e+00 0.0000000000000000e+00 0.0000000000000000e+00 0.0000000000000000e+00  -9.0665481437693029e+02 -3.4680572762478953e+01 0.0000000000000000e+00 -3.4680572762478917e+01 1.0254232716480524e+03 0.0000000000000000e+00 0.0000000000000000e+00 0.0000000000000000e+00 0.0000000000000000e+00  -4.0468060594520665e+02 -4.4884954433647685e+01 0.0000000000000000e+00 -4.4884954433647813e+01 6.2098651431534154e+02 0.0000000000000000e+00 0.0000000000000000e+00 0.0000000000000000e+00 0.0000000000000000e+00  1.1503531509417699e+02 -2.4061467707955270e+01 0.0000000000000000e+00 -2.4061467707954975e+01 4.6811804229244996e+02 0.0000000000000000e+00 0.0000000000000000e+00 0.0000000000000000e+00 0.0000000000000000e+00  2.1342309190594682e+02 -1.5453948626584173e+01 0.0000000000000000e+00 -1.5453948626584204e+01 6.4472762436668609e+02 0.0000000000000000e+00 0.0000000000000000e+00 0.0000000000000000e+00 0.0000000000000000e+00  2.4501340087296751e+02 -1.1850037473443551e+01 0.0000000000000000e+00 -1.1850037473443532e+01 1.1701249486543604e+03 0.0000000000000000e+00 0.0000000000000000e+00 0.0000000000000000e+00 0.0000000000000000e+00  1.9081372947573590e+02 -2.6157588954327107e+01 0.0000000000000000e+00 -2.6157588954327146e+01 1.8317494904217572e+03 0.0000000000000000e+00 0.0000000000000000e+00 0.0000000000000000e+00 0.0000000000000000e+00  1.9841002526033182e+02 -2.2464395862507157e+01 0.0000000000000000e+00 -2.2464395862507072e+01 2.6072393901363039e+03 0.0000000000000000e+00 0.0000000000000000e+00 0.0000000000000000e+00 0.0000000000000000e+00  4.5246331468031364e+01 -1.5415343049169442e+01 0.0000000000000000e+00 -1.5415343049169516e+01 3.4715723154570755e+03 0.0000000000000000e+00 0.0000000000000000e+00 0.0000000000000000e+00 0.0000000000000000e+00  7.4179353836791122e+01 -2.4077523925306682e+01 0.0000000000000000e+00 -2.4077523925306711e+01 4.2221182606291204e+03 0.0000000000000000e+00 0.0000000000000000e+00 0.0000000000000000e+00 0.0000000000000000e+00  2.9737990547566580e+00 3.4030902761857554e+01 0.0000000000000000e+00 3.4030902761857618e+01 4.8193339364898720e+03 0.0000000000000000e+00 0.0000000000000000e+00 0.0000000000000000e+00 0.0000000000000000e+00  2.1040599318605593e+00 1.2863772025438671e+01 0.0000000000000000e+00 1.2863772025438736e+01 4.9861523091718009e+03 0.0000000000000000e+00 0.0000000000000000e+00 0.0000000000000000e+00 0.0000000000000000e+00  -3.7789378210083524e+00 2.9024819425195556e+01 0.0000000000000000e+00 2.9024819425195727e+01 5.0846709971492146e+03 0.0000000000000000e+00 0.0000000000000000e+00 0.0000000000000000e+00 0.0000000000000000e+00  -7.9372770861966897e+00 1.1962077073789319e+01 0.0000000000000000e+00 1.1962077073789319e+01 5.2373764760099202e+03 0.0000000000000000e+00 0.0000000000000000e+00 0.0000000000000000e+00 0.0000000000000000e+00  1.5519019676851819e+01 8.6163545407870092e+00 0.0000000000000000e+00 8.6163545407869560e+00 5.4319768262445032e+03 0.0000000000000000e+00 0.0000000000000000e+00 0.0000000000000000e+00 0.0000000000000000e+00  -4.3606159280631731e+00 4.6818332483425031e+01 0.0000000000000000e+00 4.6818332483424932e+01 5.5003366353868423e+03 0.0000000000000000e+00 0.0000000000000000e+00 0.0000000000000000e+00 0.0000000000000000e+00  -2.9982554531176497e+01 5.9688704240769852e+01 0.0000000000000000e+00 5.9688704240769660e+01 5.9360868532765644e+03 0.0000000000000000e+00 0.0000000000000000e+00 0.0000000000000000e+00 0.0000000000000000e+00  -1.4457835749738124e+00 1.1573365269099094e+02 0.0000000000000000e+00 1.1573365269099101e+02 6.4696912609390056e+03 0.0000000000000000e+00 0.0000000000000000e+00 0.0000000000000000e+00 0.0000000000000000e+00  -2.4409496432713858e+01 3.9421155096566032e+01 0.0000000000000000e+00 3.9421155096565982e+01 7.2213786106601137e+03 0.0000000000000000e+00 0.0000000000000000e+00 0.0000000000000000e+00 0.0000000000000000e+00  -5.1515967866471364e+01 -8.9046656892676552e+01 0.0000000000000000e+00 -8.9046656892676566e+01 7.1509236268697578e+03 0.0000000000000000e+00 0.0000000000000000e+00 0.0000000000000000e+00 0.0000000000000000e+00  -1.2502994674100397e+02 -3.7015844169095038e+02 0.0000000000000000e+00 -3.7015844169094999e+02 6.1758394844650475e+03 0.0000000000000000e+00 0.0000000000000000e+00 0.0000000000000000e+00 0.0000000000000000e+00  -8.8709853976758453e+01 -6.2452544172389310e+02 0.0000000000000000e+00 -6.2452544172389298e+02 4.4388777732716153e+03 0.0000000000000000e+00 0.0000000000000000e+00 0.0000000000000000e+00 0.0000000000000000e+00  1.9080997661697094e+02 7.8716125279835495e+01 0.0000000000000000e+00 7.8716125279835651e+01 2.2614070008890794e+03 0.0000000000000000e+00 0.0000000000000000e+00 0.0000000000000000e+00 0.0000000000000000e+00  1.9095106318284672e+02 4.3422829506921624e+02 0.0000000000000000e+00 4.3422829506921573e+02 2.3729522172272123e+03 0.0000000000000000e+00 0.0000000000000000e+00 0.0000000000000000e+00 0.0000000000000000e+00  1.4354352627321431e+01 4.5773006252012004e+02 0.0000000000000000e+00 4.5773006252011891e+02 5.7874817969686555e+03 0.0000000000000000e+00 0.0000000000000000e+00 0.0000000000000000e+00 0.0000000000000000e+00  -5.0612798375359203e-01 2.9796496755960601e+02 0.0000000000000000e+00 2.9796496755960550e+02 8.5225478114472589e+03 0.0000000000000000e+00 0.0000000000000000e+00 0.0000000000000000e+00 0.0000000000000000e+00  3.6000340483941194e+01 -3.9953211658785125e+02 0.0000000000000000e+00 -3.9953211658785159e+02 9.1000070012442920e+03 0.0000000000000000e+00 0.0000000000000000e+00 0.0000000000000000e+00 0.0000000000000000e+00  -8.1169501250422314e+01 -1.6934719412266028e+02 0.0000000000000000e+00 -1.6934719412266085e+02 5.9167711103072770e+03 0.0000000000000000e+00 0.0000000000000000e+00 0.0000000000000000e+00 0.0000000000000000e+00  -2.0649082352859091e+02 2.6218761772735695e+02 0.0000000000000000e+00 2.6218761772735667e+02 7.5868201651276850e+03 0.0000000000000000e+00 0.0000000000000000e+00 0.0000000000000000e+00 0.0000000000000000e+00  4.5512631651989430e+00 -1.9032600016111854e+02 0.0000000000000000e+00 -1.9032600016111815e+02 7.3166074888753583e+03 0.0000000000000000e+00 0.0000000000000000e+00 0.0000000000000000e+00 0.0000000000000000e+00  -5.0194781891184810e+01 -2.3016861448341396e+02 0.0000000000000000e+00 -2.3016861448341351e+02 5.5849639782355243e+03 0.0000000000000000e+00 0.0000000000000000e+00 0.0000000000000000e+00 0.0000000000000000e+00  5.6808877532673158e+01 -5.1316941464927233e+00 0.0000000000000000e+00 -5.1316941464928609e+00 5.1808565484639685e+03 0.0000000000000000e+00 0.0000000000000000e+00 0.0000000000000000e+00 0.0000000000000000e+00  -4.0410630126999457e+01 -1.0068747437899315e+01 0.0000000000000000e+00 -1.0068747437899368e+01 5.0387211047686787e+03 0.0000000000000000e+00 0.0000000000000000e+00 0.0000000000000000e+00 0.0000000000000000e