<?xml version="1.0"?>
<VTKFile type="UnstructuredGrid"  version="0.1"  >
<UnstructuredGrid>
<Piece  NumberOfPoints="3879" NumberOfCells="6881">
<Points>
<DataArray  type="Float64"  NumberOfComponents="3"  format="ascii">0.207524190028372 0.2122422770132111 0  0 0 0  1 0 0  0 1 0  1 1 0  0.6249674373315121 0.2590146544375328 0  0.204663578893616 0.322657230836866 0  0.09605577522599912 0.4018360776629776 0  0.671351124618251 0.08738059142081528 0  0.7842102907526436 0.1666439122351055 0  0.8512483166984784 0.1985391006160637 0  0.6418797837909295 0.4423157172830166 0  0.9292488447973215 0.3869277868069776 0  0.3197896119137055 0.5509935221980964 0  0.3979283685568406 0.5079871620336583 0  0.1572503457993085 0.7345153245035532 0  0.3032914287999163 0.7872981443735918 0  0.3549464687598876 0.8870324161721976 0  0.9691791685505482 0.5159450047798622 0  0.9447564590470373 0.6146164845729313 0  0.7687603548175107 0.7176858127488035 0  0.8926159261971183 0.7422924070424508 0  0.2061587782631535 0.2217389244366831 0  0.2021731605082994 0.2304662099646423 0  0.1958902278109265 0.2377171008267789 0  0.1878189860121365 0.2429041729681512 0  0.1786133191209442 0.2456072006525708 0  0.1690190155206647 0.2456072006525708 0  0.1598133486294724 0.2429041729681512 0  0.1517421068306824 0.2377171008267789 0  0.1454591741333096 0.2304662099646422 0  0.1414735563784554 0.221738924436683 0  0.1401081446132369 0.212242277013211 0  0.1414735563784555 0.202745629589739 0  0.1454591741333096 0.1940183440617798 0  0.1517421068306825 0.1867674531996431 0  0.1598133486294725 0.1815803810582709 0  0.1690190155206649 0.1788773533738513 0  0.1786133191209443 0.1788773533738514 0  0.1878189860121367 0.181580381058271 0  0.1958902278109266 0.1867674531996433 0  0.2021731605082994 0.19401834406178 0  0.2061587782631535 0.2027456295897391 0  0.03333333333333333 0 0  0.06666666666666667 0 0  0.1 0 0  0.1333333333333333 0 0  0.1666666666666667 0 0  0.2 0 0  0.2333333333333333 0 0  0.2666666666666667 0 0  0.3 0 0  0.3333333333333333 0 0  0.3666666666666666 0 0  0.4 0 0  0.4333333333333333 0 0  0.4666666666666667 0 0  0.5 0 0  0.5333333333333333 0 0  0.5666666666666667 0 0  0.6 0 0  0.6333333333333333 0 0  0.6666666666666666 0 0  0.7 0 0  0.7333333333333333 0 0  0.7666666666666667 0 0  0.8 0 0  0.8333333333333334 0 0  0.8666666666666667 0 0  0.9 0 0  0.9333333333333333 0 0  0.9666666666666667 0 0  0 0.9666666666666667 0  0 0.9333333333333333 0  0 0.9 0  0 0.8666666666666667 0  0 0.8333333333333334 0  0 0.8 0  0 0.7666666666666666 0  0 0.7333333333333334 0  0 0.7 0  0 0.6666666666666667 0  0 0.6333333333333333 0  0 0.6 0  0 0.5666666666666667 0  0 0.5333333333333333 0  0 0.5 0  0 0.4666666666666667 0  0 0.4333333333333333 0  0 0.4 0  0 0.3666666666666667 0  0 0.3333333333333334 0  0 0.3 0  0 0.2666666666666667 0  0 0.2333333333333333 0  0 0.2 0  0 0.1666666666666666 0  0 0.1333333333333333 0  0 0.09999999999999998 0  0 0.06666666666666665 0  0 0.03333333333333333 0  1 0.03333333333333333 0  1 0.06666666666666667 0  1 0.1 0  1 0.1333333333333333 0  1 0.1666666666666667 0  1 0.2 0  1 0.2333333333333333 0  1 0.2666666666666667 0  1 0.3 0  1 0.3333333333333333 0  1 0.3666666666666666 0  1 0.4 0  1 0.4333333333333333 0  1 0.4666666666666667 0  1 0.5 0  1 0.5333333333333333 0  1 0.5666666666666667 0  1 0.6 0  1 0.6333333333333333 0  1 0.6666666666666666 0  1 0.7 0  1 0.7333333333333333 0  1 0.7666666666666667 0  1 0.8 0  1 0.8333333333333334 0  1 0.8666666666666667 0  1 0.9 0  1 0.9333333333333333 0  1 0.9666666666666667 0  0.9666666666666667 1 0  0.9333333333333333 1 0  0.9 1 0  0.8666666666666667 1 0  0.8333333333333334 1 0  0.8 1 0  0.7666666666666666 1 0  0.7333333333333334 1 0  0.7 1 0  0.6666666666666667 1 0  0.6333333333333333 1 0  0.6 1 0  0.5666666666666667 1 0  0.5333333333333333 1 0  0.5 1 0  0.4666666666666667 1 0  0.4333333333333333 1 0  0.4 1 0  0.3666666666666667 1 0  0.3333333333333334 1 0  0.3 1 0  0.2666666666666667 1 0  0.2333333333333333 1 0  0.2 1 0  0.1666666666666666 1 0  0.1333333333333333 1 0  0.09999999999999998 1 0  0.06666666666666665 1 0  0.03333333333333333 1 0  0.6247072676344306 0.2689501343248463 0  0.6239274716502419 0.2788583817523955 0  0.6226301867455355 0.2887122389026952 0  0.6208189686880621 0.2984846970382296 0  0.6184987819006211 0.3081489705305245 0  0.6156759858539226 0.317678570277693 0  0.6123583176357204 0.3270473763092224 0  0.6085548707439923 0.3362297093789981 0  0.6042760701622942 0.3452004013503318 0  0.5995336437856049 0.3539348641800754 0  0.5943405902749808 0.3624091573127375 0  0.5887111434291297 0.3706000532998825 0  0.582660733170558 0.3784851014649517 0  0.5762059432532257 0.3860426894390078 0  0.5693644658076293 0.3932521023987353 0  0.5621550528479018 0.4000935798443317 0  0.5545974648738458 0.4065483697616639 0  0.5467124167087765 0.4125987800202355 0  0.5385215207216315 0.4182282268660866 0  0.5300472275889694 0.4234212803767108 0  0.5213127647592257 0.4281637067534002 0  0.512342072787892 0.4324425073350981 0  0.5031597397181163 0.4362459542268262 0  0.493790933686587 0.4395636224450283 0  0.4842613339394185 0.4423864184917269 0  0.4745970604471235 0.4447066052791678 0  0.4648246023115891 0.4465178233366412 0  0.4549707451612894 0.4478151082413475 0  0.4450624977337403 0.4485949042255363 0  0.4351270178464268 0.4488550739226177 0  0.4251915379591132 0.4485949042255363 0  0.4152832905315641 0.4478151082413475 0  0.4054294333812644 0.4465178233366411 0  0.39565697524573 0.4447066052791677 0  0.385992701753435 0.4423864184917267 0  0.3764631020062665 0.4395636224450281 0  0.3670942959747371 0.4362459542268259 0  0.3579119629049616 0.4324425073350978 0  0.3489412709336278 0.4281637067533998 0  0.3402068081038843 0.4234212803767103 0  0.3317325149712221 0.4182282268660862 0  0.3235416189840771 0.412598780020235 0  0.3156565708190078 0.4065483697616634 0  0.3080989828449519 0.4000935798443311 0  0.3008895698852244 0.3932521023987346 0  0.2940480924396279 0.3860426894390071 0  0.2875933025222958 0.3784851014649511 0  0.2815428922637242 0.3706000532998818 0  0.2759134454178731 0.3624091573127368 0  0.2707203919072489 0.3539348641800746 0  0.2659779655305596 0.3452004013503309 0  0.2616991649488616 0.3362297093789972 0  0.2578957180571336 0.3270473763092215 0  0.2545780498389315 0.3176785702776921 0  0.251755253792233 0.3081489705305236 0  0.249435067004792 0.2984846970382286 0  0.2476238489473186 0.2887122389026941 0  0.2463265640426123 0.2788583817523945 0  0.2455467680584236 0.2689501343248454 0  0.2452865983613423 0.2590146544375318 0  0.2455467680584237 0.2490791745502182 0  0.2463265640426126 0.2391709271226692 0  0.247623848947319 0.2293170699723696 0  0.2494350670047924 0.2195446118368351 0  0.2517552537922335 0.2098803383445402 0  0.2545780498389321 0.2003507385973717 0  0.2578957180571343 0.1909819325658423 0  0.2616991649488624 0.1817995994960667 0  0.2659779655305604 0.172828907524733 0  0.2707203919072498 0.1640944446949895 0  0.2759134454178741 0.1556201515623273 0  0.2815428922637251 0.1474292555751825 0  0.2875933025222969 0.1395442074101132 0  0.2940480924396291 0.1319866194360571 0  0.3008895698852256 0.1247772064763297 0  0.3080989828449531 0.1179357290307334 0  0.3156565708190092 0.1114809391134012 0  0.3235416189840785 0.1054305288548295 0  0.3317325149712236 0.09980108200897844 0  0.3402068081038856 0.0946080284983544 0  0.3489412709336291 0.08986560212166514 0  0.357911962904963 0.08558680153996717 0  0.3670942959747386 0.08178335464823916 0  0.3764631020062678 0.07846568643003712 0  0.3859927017534364 0.0756428903833386 0  0.3956569752457313 0.0733227035958976 0  0.4054294333812659 0.07151148553842429 0  0.4152832905315654 0.07021420063371797 0  0.4251915379591144 0.0694344046495293 0  0.435127017846428 0.0691742349524479 0  0.4450624977337415 0.06943440464952938 0  0.4549707451612905 0.07021420063371814 0  0.4648246023115901 0.07151148553842454 0  0.4745970604471245 0.07332270359589793 0  0.4842613339394195 0.07564289038333902 0  0.4937909336865879 0.07846568643003757 0  0.5031597397181173 0.0817833546482398 0  0.5123420727878929 0.08558680153996781 0  0.5213127647592265 0.08986560212166581 0  0.53004722758897 0.0946080284983552 0  0.5385215207216321 0.09980108200897933 0  0.5467124167087771 0.1054305288548305 0  0.5545974648738462 0.1114809391134021 0  0.5621550528479023 0.1179357290307343 0  0.5693644658076298 0.1247772064763308 0  0.576205943253226 0.1319866194360582 0  0.5826607331705582 0.1395442074101142 0  0.5887111434291299 0.1474292555751835 0  0.594340590274981 0.1556201515623285 0  0.5995336437856051 0.1640944446949906 0  0.6042760701622945 0.172828907524734 0  0.6085548707439925 0.1817995994960678 0  0.6123583176357205 0.1909819325658435 0  0.6156759858539227 0.2003507385973728 0  0.6184987819006211 0.2098803383445412 0  0.6208189686880622 0.2195446118368362 0  0.6226301867455355 0.2293170699723706 0  0.6239274716502419 0.2391709271226702 0  0.6247072676344306 0.2490791745502192 0  0.203885768735257 0.3325402459548524 0  0.2015714905276826 0.3421799084407872 0  0.1977777294810124 0.3513388578120612 0  0.1925979005829864 0.3597915703383434 0  0.1861595484119405 0.3673299121842922 0  0.1786212065659918 0.373768264355338 0  0.1701684940397096 0.378948093253364 0  0.1610095446684356 0.3827418543000342 0  0.1513698821825007 0.3850561325076086 0  0.1414868670645144 0.3858339426659677 0  0.1316038519465281 0.3850561325076086 0  0.1219641894605933 0.3827418543000343 0  0.1128052400893193 0.378948093253364 0  0.1043525275630371 0.3737682643553381 0  0.09681418571708833 0.3673299121842922 0  0.09037583354604248 0.3597915703383434 0  0.08519600464801645 0.3513388578120612 0  0.08140224360134621 0.3421799084407872 0  0.07908796539377183 0.3325402459548523 0  0.07831015523541281 0.3226572308368659 0  0.07908796539377186 0.3127742157188796 0  0.08140224360134626 0.3031345532329447 0  0.08519600464801655 0.2939756038616707 0  0.0903758335460426 0.2855228913353884 0  0.0968141857
[...]
<PointData  Tensors="$\sigma$"> 
<DataArray  type="Float64"  Name="$\sigma$"  NumberOfComponents="9" format="ascii">5.8760512305980194e+02 -4.8822004216090647e+01 0.0000000000000000e+00 -4.8822004216090058e+01 1.3551243231386192e+04 0.0000000000000000e+00 0.0000000000000000e+00 0.0000000000000000e+00 0.0000000000000000e+00  1.5900430971470660e+03 1.0981774172822558e+02 0.0000000000000000e+00 1.0981774172822577e+02 6.6474802323081385e+03 0.0000000000000000e+00 0.0000000000000000e+00 0.0000000000000000e+00 0.0000000000000000e+00  -3.6689479192996210e+01 -3.0370391800669836e+01 0.0000000000000000e+00 -3.0370391800669911e+01 6.8613712475860957e+03 0.0000000000000000e+00 0.0000000000000000e+00 0.0000000000000000e+00 0.0000000000000000e+00  8.8474568716495714e+00 -5.9393252434815453e+00 0.0000000000000000e+00 -5.9393252434815746e+00 7.2095310916468561e+03 0.0000000000000000e+00 0.0000000000000000e+00 0.0000000000000000e+00 0.0000000000000000e+00  9.1235701976793973e+00 1.4583694782106418e+01 0.0000000000000000e+00 1.4583694782106448e+01 6.1119274168700040e+03 0.0000000000000000e+00 0.0000000000000000e+00 0.0000000000000000e+00 0.0000000000000000e+00  5.1762130380041867e+02 -2.5966386012058337e+02 0.0000000000000000e+00 -2.5966386012058246e+02 1.2207558856831896e+04 0.0000000000000000e+00 0.0000000000000000e+00 0.0000000000000000e+00 0.0000000000000000e+00  -6.8002416563587857e+01 3.9523478294326264e+02 0.0000000000000000e+00 3.9523478294326378e+02 -2.0420356734323203e+01 0.0000000000000000e+00 0.0000000000000000e+00 0.0000000000000000e+00 0.0000000000000000e+00  1.0183093958535470e+03 2.3706245591022386e+02 0.0000000000000000e+00 2.3706245591022426e+02 1.4355539682039338e+04 0.0000000000000000e+00 0.0000000000000000e+00 0.0000000000000000e+00 0.0000000000000000e+00  2.7451771549346580e+02 -2.3104218255432951e+01 0.0000000000000000e+00 -2.3104218255434365e+01 1.3097534187006961e+04 0.0000000000000000e+00 0.0000000000000000e+00 0.0000000000000000e+00 0.0000000000000000e+00  -5.0450795113762285e+02 2.2195045366570497e+02 0.0000000000000000e+00 2.2195045366570537e+02 -6.5176073820294539e+02 0.0000000000000000e+00 0.0000000000000000e+00 0.0000000000000000e+00 0.0000000000000000e+00  -2.7794675797744766e+01 -1.0947379041206145e+02 0.0000000000000000e+00 -1.0947379041206173e+02 -1.0839314053047401e+03 0.0000000000000000e+00 0.0000000000000000e+00 0.0000000000000000e+00 0.0000000000000000e+00  9.6180031330303564e+01 5.5985317903164537e+02 0.0000000000000000e+00 5.5985317903164264e+02 8.2925341945276195e+03 0.0000000000000000e+00 0.0000000000000000e+00 0.0000000000000000e+00 0.0000000000000000e+00  -3.5519607300356944e+02 -3.9082156729943023e+01 0.0000000000000000e+00 -3.9082156729943208e+01 1.1164351817599738e+04 0.0000000000000000e+00 0.0000000000000000e+00 0.0000000000000000e+00 0.0000000000000000e+00  3.8845889302740943e+02 7.8323911434759907e+01 0.0000000000000000e+00 7.8323911434760078e+01 1.2087576758235908e+04 0.0000000000000000e+00 0.0000000000000000e+00 0.0000000000000000e+00 0.0000000000000000e+00  -1.4915324282073769e+02 -2.6920104785093116e+02 0.0000000000000000e+00 -2.6920104785092985e+02 -1.7307888261586284e+03 0.0000000000000000e+00 0.0000000000000000e+00 0.0000000000000000e+00 0.0000000000000000e+00  -5.6363651014049765e+02 -3.0350733249443329e+02 0.0000000000000000e+00 -3.0350733249443323e+02 -3.0340507999499760e+03 0.0000000000000000e+00 0.0000000000000000e+00 0.0000000000000000e+00 0.0000000000000000e+00  6.9277820807722190e-01 -1.1472853469982584e+02 0.0000000000000000e+00 -1.1472853469982763e+02 8.2867262052634378e+03 0.0000000000000000e+00 0.0000000000000000e+00 0.0000000000000000e+00 0.0000000000000000e+00  1.3636206508749939e+02 1.2962493705500603e+02 0.0000000000000000e+00 1.2962493705500722e+02 1.1711056044296696e+04 0.0000000000000000e+00 0.0000000000000000e+00 0.0000000000000000e+00 0.0000000000000000e+00  6.7880062068694069e+03 1.0067731169069764e+03 0.0000000000000000e+00 1.0067731169069776e+03 1.9210192816728570e+04 0.0000000000000000e+00 0.0000000000000000e+00 0.0000000000000000e+00 0.0000000000000000e+00  7.2283010281040799e+02 3.1118910449988789e+02 0.0000000000000000e+00 3.1118910449988783e+02 1.2246916576065627e+04 0.0000000000000000e+00 0.0000000000000000e+00 0.0000000000000000e+00 0.0000000000000000e+00  2.0469525727163983e+01 1.7809740291201311e+02 0.0000000000000000e+00 1.7809740291201206e+02 1.1222312627538491e+04 0.0000000000000000e+00 0.0000000000000000e+00 0.0000000000000000e+00 0.0000000000000000e+00  9.1243984285165979e+01 8.3207146055603573e+01 0.0000000000000000e+00 8.3207146055602749e+01 4.7337932284084127e+03 0.0000000000000000e+00 0.0000000000000000e+00 0.0000000000000000e+00 0.0000000000000000e+00  6.6337885693164355e+02 -2.1354773118255202e+03 0.0000000000000000e+00 -2.1354773118255198e+03 9.0246491360254768e+03 0.0000000000000000e+00 0.0000000000000000e+00 0.0000000000000000e+00 0.0000000000000000e+00  -2.1677927426609287e+02 -7.4219454081038157e+02 0.0000000000000000e+00 -7.4219454081038236e+02 2.4301837170113772e+03 0.0000000000000000e+00 0.0000000000000000e+00 0.0000000000000000e+00 0.0000000000000000e+00  -2.5146598235404344e+03 1.5980894932291758e+03 0.0000000000000000e+00 1.5980894932291808e+03 -1.1030046250362645e+03 0.0000000000000000e+00 0.0000000000000000e+00 0.0000000000000000e+00 0.0000000000000000e+00  -5.9669602104956130e+03 2.1343785526212432e+03 0.0000000000000000e+00 2.1343785526212487e+03 -1.1233294449667740e+03 0.0000000000000000e+00 0.0000000000000000e+00 0.0000000000000000e+00 0.0000000000000000e+00  -4.9217393893577701e+03 1.0845074752835123e+03 0.0000000000000000e+00 1.0845074752835071e+03 -7.2932235940625833e+02 0.0000000000000000e+00 0.0000000000000000e+00 0.0000000000000000e+00 0.0000000000000000e+00  1.4422910879253786e+03 2.8988147956927778e+03 0.0000000000000000e+00 2.8988147956927787e+03 1.7591622840477658e+03 0.0000000000000000e+00 0.0000000000000000e+00 0.0000000000000000e+00 0.0000000000000000e+00  9.3973311416142496e+03 5.6238099102410079e+03 0.0000000000000000e+00 5.6238099102410051e+03 3.3127581365489123e+03 0.0000000000000000e+00 0.0000000000000000e+00 0.0000000000000000e+00 0.0000000000000000e+00  8.9647243155845972e+03 6.3212911854224567e+03 0.0000000000000000e+00 6.3212911854224658e+03 7.0939914615950984e+03 0.0000000000000000e+00 0.0000000000000000e+00 0.0000000000000000e+00 0.0000000000000000e+00  3.9802393960662625e+03 5.7460443648889150e+03 0.0000000000000000e+00 5.7460443648889168e+03 8.0381737627742186e+03 0.0000000000000000e+00 0.0000000000000000e+00 0.0000000000000000e+00 0.0000000000000000e+00  1.4142322197153542e+03 2.4863010638035130e+03 0.0000000000000000e+00 2.4863010638035107e+03 6.5482127908864886e+03 0.0000000000000000e+00 0.0000000000000000e+00 0.0000000000000000e+00 0.0000000000000000e+00  2.0016907436631268e+01 4.0655929089706916e+02 0.0000000000000000e+00 4.0655929089707030e+02 5.2842587365084901e+03 0.0000000000000000e+00 0.0000000000000000e+00 0.0000000000000000e+00 0.0000000000000000e+00  1.7311931160064276e+02 -3.0689868731069635e+02 0.0000000000000000e+00 -3.0689868731069652e+02 2.1189670421662095e+03 0.0000000000000000e+00 0.0000000000000000e+00 0.0000000000000000e+00 0.0000000000000000e+00  -4.5064225041038884e+02 4.4985546356912596e+02 0.0000000000000000e+00 4.4985546356912658e+02 -2.4898611663333372e+02 0.0000000000000000e+00 0.0000000000000000e+00 0.0000000000000000e+00 0.0000000000000000e+00  -2.0134051230756611e+03 1.5525167675109001e+03 0.0000000000000000e+00 1.5525167675109021e+03 -1.2509885579506793e+03 0.0000000000000000e+00 0.0000000000000000e+00 0.0000000000000000e+00 0.0000000000000000e+00  -3.7131668741605267e+03 1.5447457709760452e+03 0.0000000000000000e+00 1.5447457709760422e+03 -9.6898878018636231e+02 0.0000000000000000e+00 0.0000000000000000e+00 0.0000000000000000e+00 0.0000000000000000e+00  -3.7342584184417906e+03 7.6670756632407756e+02 0.0000000000000000e+00 7.6670756632407688e+02 -4.5656734410461530e+02 0.0000000000000000e+00 0.0000000000000000e+00 0.0000000000000000e+00 0.0000000000000000e+00  -1.7007664223849010e+03 -9.8733472825407418e+00 0.0000000000000000e+00 -9.8733472825422890e+00 1.1234442373896353e+02 0.0000000000000000e+00 0.0000000000000000e+00 0.0000000000000000e+00 0.0000000000000000e+00  1.8716454454401787e+03 1.2482450962469254e+03 0.0000000000000000e+00 1.2482450962469277e+03 6.6549128040502262e+02 0.0000000000000000e+00 0.0000000000000000e+00 0.0000000000000000e+00 0.0000000000000000e+00  3.8015020605262830e+03 3.3075171070186707e+03 0.0000000000000000e+00 3.3075171070186720e+03 3.6850579246750867e+03 0.0000000000000000e+00 0.0000000000000000e+00 0.0000000000000000e+00 0.0000000000000000e+00  3.1409579173524462e+03 5.1104196559046368e+03 0.0000000000000000e+00 5.1104196559046513e+03 8.4112229464978445e+03 0.0000000000000000e+00 0.0000000000000000e+00 0.0000000000000000e+00 0.0000000000000000e+00  1.9963491396216866e+03 3.2510187129319502e+03 0.0000000000000000e+00 3.2510187129319506e+03 1.2777460037846689e+04 0.0000000000000000e+00 0.0000000000000000e+00 0.0000000000000000e+00 0.0000000000000000e+00  5.1404174512892791e+02 -3.9980106836111628e+02 0.0000000000000000e+00 -3.9980106836111673e+02 5.5691233075506752e+03 0.0000000000000000e+00 0.0000000000000000e+00 0.0000000000000000e+00 0.0000000000000000e+00  -1.0267043590628593e+02 7.2529977574506532e+01 0.0000000000000000e+00 7.2529977574506404e+01 4.8630620088611986e+03 0.0000000000000000e+00 0.0000000000000000e+00 0.0000000000000000e+00 0.0000000000000000e+00  3.3526922431317274e+02 -2.0524851744627924e+01 0.0000000000000000e+00 -2.0524851744627920e+01 3.6964638293674157e+03 0.0000000000000000e+00 0.0000000000000000e+00 0.0000000000000000e+00 0.0000000000000000e+00  -6.7587488566926496e+01 6.1479295745796151e+01 0.0000000000000000e+00 6.1479295745796072e+01 3.0966377987036517e+03 0.0000000000000000e+00 0.0000000000000000e+00 0.0000000000000000e+00 0.0000000000000000e+00  6.8580893406566460e+01 4.3907234007147295e+01 0.0000000000000000e+00 4.3907234007147203e+01 2.4550261757223011e+03 0.0000000000000000e+00 0.0000000000000000e+00 0.0000000000000000e+00 0.0000000000000000e+00  -1.6434550540221892e+02 3.4793270585313046e+01 0.0000000000000000e+00 3.4793270585313067e+01 1.8791735027049135e+03 0.0000000000000000e+00 0.0000000000000000e+00 0.0000000000000000e+00 0.0000000000000000e+00  -2.2065496346436686e+02 1.1930636532658367e+01 0.0000000000000000e+00 1.1930636532658376e+01 1.3751188054228749e+03 0.0000000000000000e+00 0.0000000000000000e+00 0.0000000000000000e+00 0.0000000000000000e+00  -3.4810676815609787e+02 8.8832220315675290e+00 0.0000000000000000e+00 8.8832220315675183e+00 8.5913086612943721e+02 0.0000000000000000e+00 0.0000000000000000e+00 0.0000000000000000e+00 0.0000000000000000e+00  -3.5835355477548683e+02 1.1594014278790898e+01 0.0000000000000000e+00 1.1594014278790903e+01 3.4389824939702851e+02 0.0000000000000000e+00 0.0000000000000000e+00 0.0000000000000000e+00 0.0000000000000000e+00  -4.1549643868440512e+02 1.8453584877764147e+01 0.0000000000000000e+00 1.8453584877764058e+01 -6.2325093198451832e+01 0.0000000000000000e+00 0.0000000000000000e+00 0.0000000000000000e+00 0.0000000000000000e+00  -5.3149456962522811e+02 1.5674822469166790e+01 0.0000000000000000e+00 1.5674822469166724e+01 -2.3358474839342520e+02 0.0000000000000000e+00 0.0000000000000000e+00 0.0000000000000000e+00 0.0000000000000000e+00  -6.2699884608146465e+02 -2.0089884647143438e-01 0.0000000000000000e+00 -2.0089884647141210e-01 -2.3997976997721520e+02 0.0000000000000000e+00 0.0000000000000000e+00 0.0000000000000000e+00 0.0000000000000000e+00  -7.0225938362007719e+02 5.1358916413673494e+00 0.0000000000000000e+00 5.1358916413672890e+00 -1.3174388555906080e+02 0.0000000000000000e+00 0.0000000000000000e+00 0.0000000000000000e+00 0.0000000000000000e+00  -7.5686672523492416e+02 -1.0308649225762037e+01 0.0000000000000000e+00 -1.0308649225761966e+01 9.5840715710299520e+01 0.0000000000000000e+00 0.0000000000000000e+00 0.0000000000000000e+00 0.0000000000000000e+00  -9.0803082632661199e+02 7.8352962636988339e+00 0.0000000000000000e+00 7.8352962636985088e+00 5.9867591610627471e+02 0.0000000000000000e+00 0.0000000000000000e+00 0.0000000000000000e+00 0.0000000000000000e+00  -1.3139026247423894e+03 2.8028811567393301e+01 0.0000000000000000e+00 2.8028811567393209e+01 1.3051025258085310e+03 0.0000000000000000e+00 0.0000000000000000e+00 0.0000000000000000e+00 0.0000000000000000e+00  -1.9482375372394984e+03 8.5389419393630163e+01 0.0000000000000000e+00 8.5389419393630803e+01 1.9125114706737036e+03 0.0000000000000000e+00 0.0000000000000000e+00 0.0000000000000000e+00 0.0000000000000000e+00  -2.2327761228896757e+03 -8.2528843264250085e+01 0.0000000000000000e+00 -8.2528843264249900e+01 1.2352304394070431e+03 0.0000000000000000e+00 0.0000000000000000e+00 0.0000000000000000e+00 0.0000000000000000e+00  -1.7488768174696545e+03 1.7511523790093840e+01 0.0000000000000000e+00 1.7511523790093868e+01 -2.6882668773238873e+02 0.0000000000000000e+00 0.0000000000000000e+00 0.0000000000000000e+00 0.0000000000000000e+00  -1.9567525527329192e+03 6.7598623314047884e+01 0.0000000000000000e+00 6.7598623314048012e+01 5.9273427742533590e+02 0.0000000000000000e+00 0.0000000000000000e+00 0.0000000000000000e+00 0.0000000000000000e+00  -1.6412660075125762e+03 -6.3527270835454054e+01 0.0000000000000000e+00 -6.3527270835453962e+01 1.4765422832561474e+03 0.0000000000000000e+00 0.0000000000000000e+00 0.0000000000000000e+00 0.0000000000000000e+00  -8.7694112263514148e+02 -6.3699024791346829e+01 0.0000000000000000e+00 -6.3699024791347199e+01 8.7093198755845401e+02 0.0000000000000000e+00 0.0000000000000000e+00 0.0000000000000000e+00 0.0000000000000000e+00  -3.5881606584030209e+01 -3.6431438016368759e+01 0.0000000000000000e+00 -3.6431438016368524e+01 5.9385434207149103e+02 0.0000000000000000e+00 0.0000000000000000e+00 0.0000000000000000e+00 0.0000000000000000e+00  1.5080408780504595e+02 -1.9858757866425009e+01 0.0000000000000000e+00 -1.9858757866424991e+01 7.6996944499324115e+02 0.0000000000000000e+00 0.0000000000000000e+00 0.0000000000000000e+00 0.0000000000000000e+00  2.5113239635695004e+02 -1.9576604136747875e+01 0.0000000000000000e+00 -1.9576604136747786e+01 1.4804851932834731e+03 0.0000000000000000e+00 0.0000000000000000e+00 0.0000000000000000e+00 0.0000000000000000e+00  2.0424403695669375e+02 -3.3165629645769812e+01 0.0000000000000000e+00 -3.3165629645769819e+01 2.3825300401759459e+03 0.0000000000000000e+00 0.0000000000000000e+00 0.0000000000000000e+00 0.0000000000000000e+00  2.5779588845403168e+02 -3.3931730599832456e+01 0.0000000000000000e+00 -3.3931730599832441e+01 3.4796156367958592e+03 0.0000000000000000e+00 0.0000000000000000e+00 0.0000000000000000e+00 0.0000000000000000e+00  4.4615773385957894e+01 -2.2018156119206171e+01 0.0000000000000000e+00 -2.2018156119206260e+01 4.7029458484147963e+03 0.0000000000000000e+00 0.0000000000000000e+00 0.0000000000000000e+00 0.0000000000000000e+00  1.0545857685867020e+02 -3.4621218134802916e+01 0.0000000000000000e+00 -3.4621218134802959e+01 5.8115982879477260e+03 0.0000000000000000e+00 0.0000000000000000e+00 0.0000000000000000e+00 0.0000000000000000e+00  7.4633667061336659e+00 5.0537815374631165e+01 0.0000000000000000e+00 5.0537815374631165e+01 7.2574887091132059e+03 0.0000000000000000e+00 0.0000000000000000e+00 0.0000000000000000e+00 0.0000000000000000e+00  -6.5127019283488996e-01 2.0536548767620886e+01 0.0000000000000000e+00 2.0536548767620978e+01 7.5156279452089184e+03 0.0000000000000000e+00 0.0000000000000000e+00 0.0000000000000000e+00 0.0000000000000000e+00  -2.3610906926579687e+00 3.4278729687256806e+01 0.0000000000000000e+00 3.4278729687257098e+01 7.6548981226490123e+03 0.0000000000000000e+00 0.0000000000000000e+00 0.0000000000000000e+00 0.0000000000000000e+00  -1.8228944834687130e+01 1.6404791234156122e+01 0.0000000000000000e+00 1.6404791234156107e+01 7.8629814342367008e+03 0.0000000000000000e+00 0.0000000000000000e+00 0.0000000000000000e+00 0.0000000000000000e+00  3.1540393478228960e+01 6.1248229625069515e+00 0.0000000000000000e+00 6.1248229625068555e+00 8.1803663851519104e+03 0.0000000000000000e+00 0.0000000000000000e+00 0.0000000000000000e+00 0.0000000000000000e+00  -5.9193946338955739e+00 9.1512703135158191e+01 0.0000000000000000e+00 9.1512703135157906e+01 8.3143106426266131e+03 0.0000000000000000e+00 0.0000000000000000e+00 0.0000000000000000e+00 0.0000000000000000e+00  -5.7655923683570457e+01 9.7418913029584388e+01 0.0000000000000000e+00 9.7418913029583962e+01 9.0819964174061697e+03 0.0000000000000000e+00 0.0000000000000000e+00 0.0000000000000000e+00 0.0000000000000000e+00  -7.7478204268816429e+00 1.6370448248471158e+02 0.0000000000000000e+00 1.6370448248471152e+02 9.9965077487243143e+03 0.0000000000000000e+00 0.0000000000000000e+00 0.0000000000000000e+00 0.0000000000000000e+00  -8.2366154908763729e+00 1.0069774948182929e+02 0.0000000000000000e+00 1.0069774948182884e+02 1.1112173632785765e+04 0.0000000000000000e+00 0.0000000000000000e+00 0.0000000000000000e+00 0.0000000000000000e+00  -5.3937947631703778e+01 -2.3603184520480969e+01 0.0000000000000000e+00 -2.3603184520481101e+01 1.1600779011785015e+04 0.0000000000000000e+00 0.0000000000000000e+00 0.0000000000000000e+00 0.0000000000000000e+00  -1.6790375236963062e+01 -2.8810761193622676e+02 0.0000000000000000e+00 -2.8810761193622631e+02 1.1088173707580796e+04 0.0000000000000000e+00 0.0000000000000000e+00 0.0000000000000000e+00 0.0000000000000000e+00  -2.9103817455079394e+02 -8.4354390900959390e+02 0.0000000000000000e+00 -8.4354390900959322e+02 8.5101701844038435e+03 0.0000000000000000e+00 0.0000000000000000e+00 0.0000000000000000e+00 0.0000000000000000e+00  8.6363648645626608e+02 1.7882199954146330e+02 0.0000000000000000e+00 1.7882199954146355e+02 2.6679612934510769e+03 0.0000000000000000e+00 0.0000000000000000e+00 0.0000000000000000e+00 0.0000000000000000e+00  1.0132623500854520e+03 1.2798816653881561e+03 0.0000000000000000e+00 1.2798816653881547e+03 2.8702220092940975e+03 0.0000000000000000e+00 0.0000000000000000e+00 0.0000000000000000e+00 0.0000000000000000e+00  2.0530240280858902e+02 2.7691518530748476e+02 0.0000000000000000e+00 2.7691518530748476e+02 1.1056336158058379e+04 0.0000000000000000e+00 0.0000000000000000e+00 0.0000000000000000e+00 0.0000000000000000e+00  1.0637853074216000e+03 -5.4145003763624999e+01 0.0000000000000000e+00 -5.4145003763625894e+01 1.3155711540097775e+04 0.0000000000000000e+00 0.0000000000000000e+00 0.0000000000000000e+00 0.0000000000000000e+00  1.6389441074260144e+03 -8.2342916775671881e+02 0.0000000000000000e+00 -8.2342916775671995e+02 1.3331991677850232e+04 0.0000000000000000e+00 0.0000000000000000e+00 0.0000000000000000e+00 0.0000000000000000e+00  -1.3932232665705483e+03 -4.2816999540695565e+02 0.0000000000000000e+00 -4.2816999540695542e+02 9.0586720669939077e+03 0.0000000000000000e+00 0.0000000000000000e+00 0.0000000000000000e+00 0.0000000000000000e+00  -1.0757141032976084e+02 4.8905454719402474e+02 0.0000000000000000e+00 4.8905454719402496e+02 1.1702352148926457e+04 0.0000000000000000e+00 0.0000000000000000e+00 0.0000000000000000e+00 0.0000000000000000e+00  1.4648743624816328e+02 -3.4917054735327702e+02 0.0000000000000000e+00 -3.4917054735327793e+02 1.0995267952598966e+04 0.0000000000000000e+00 0.0000000000000000e+00 0.0000000000000000e+00 0.0000000000000000e+00  -1.4271276296108840e+02 -3.7523718108076861e+02 0.0000000000000000e+00 -3.7523718108076793e+02 8.2379879532267441e+03 0.0000000000000000e+00 0.0000000000000000e+00 0.0000000000000000e+00 0.0000000000000000e+00  1.0194670903475750e+02 -4.7750362619528612e+00 0.0000000000000000e+00 -4.7750362619529811e+00 7.5017471264243750e+03 0.0000000000000000e+00 0.0000000000000000e+00 0.0000000000000000e+00 0.0000000000000000e+00  -7.5770672105112752e+01 -3.3270646405410268e+01 0.0000000000000000e+00 -3.3270646405410204e+01 7.2229716184415820e+03 0.0000000000000000e+00 0.0000000000000000e+00 0.0000000000000000e+00 0.000