<?xml version="1.0"?>
<VTKFile type="UnstructuredGrid"  version="0.1"  >
<UnstructuredGrid>
<Piece  NumberOfPoints="3879" NumberOfCells="6881">
<Points>
<DataArray  type="Float64"  NumberOfComponents="3"  format="ascii">0.207524190028372 0.2122422770132111 0  0 0 0  1 0 0  0 1 0  1 1 0  0.6249674373315121 0.2590146544375328 0  0.204663578893616 0.322657230836866 0  0.09605577522599912 0.4018360776629776 0  0.671351124618251 0.08738059142081528 0  0.7842102907526436 0.1666439122351055 0  0.8512483166984784 0.1985391006160637 0  0.6418797837909295 0.4423157172830166 0  0.9292488447973215 0.3869277868069776 0  0.3197896119137055 0.5509935221980964 0  0.3979283685568406 0.5079871620336583 0  0.1572503457993085 0.7345153245035532 0  0.3032914287999163 0.7872981443735918 0  0.3549464687598876 0.8870324161721976 0  0.9691791685505482 0.5159450047798622 0  0.9447564590470373 0.6146164845729313 0  0.7687603548175107 0.7176858127488035 0  0.8926159261971183 0.7422924070424508 0  0.2061587782631535 0.2217389244366831 0  0.2021731605082994 0.2304662099646423 0  0.1958902278109265 0.2377171008267789 0  0.1878189860121365 0.2429041729681512 0  0.1786133191209442 0.2456072006525708 0  0.1690190155206647 0.2456072006525708 0  0.1598133486294724 0.2429041729681512 0  0.1517421068306824 0.2377171008267789 0  0.1454591741333096 0.2304662099646422 0  0.1414735563784554 0.221738924436683 0  0.1401081446132369 0.212242277013211 0  0.1414735563784555 0.202745629589739 0  0.1454591741333096 0.1940183440617798 0  0.1517421068306825 0.1867674531996431 0  0.1598133486294725 0.1815803810582709 0  0.1690190155206649 0.1788773533738513 0  0.1786133191209443 0.1788773533738514 0  0.1878189860121367 0.181580381058271 0  0.1958902278109266 0.1867674531996433 0  0.2021731605082994 0.19401834406178 0  0.2061587782631535 0.2027456295897391 0  0.03333333333333333 0 0  0.06666666666666667 0 0  0.1 0 0  0.1333333333333333 0 0  0.1666666666666667 0 0  0.2 0 0  0.2333333333333333 0 0  0.2666666666666667 0 0  0.3 0 0  0.3333333333333333 0 0  0.3666666666666666 0 0  0.4 0 0  0.4333333333333333 0 0  0.4666666666666667 0 0  0.5 0 0  0.5333333333333333 0 0  0.5666666666666667 0 0  0.6 0 0  0.6333333333333333 0 0  0.6666666666666666 0 0  0.7 0 0  0.7333333333333333 0 0  0.7666666666666667 0 0  0.8 0 0  0.8333333333333334 0 0  0.8666666666666667 0 0  0.9 0 0  0.9333333333333333 0 0  0.9666666666666667 0 0  0 0.9666666666666667 0  0 0.9333333333333333 0  0 0.9 0  0 0.8666666666666667 0  0 0.8333333333333334 0  0 0.8 0  0 0.7666666666666666 0  0 0.7333333333333334 0  0 0.7 0  0 0.6666666666666667 0  0 0.6333333333333333 0  0 0.6 0  0 0.5666666666666667 0  0 0.5333333333333333 0  0 0.5 0  0 0.4666666666666667 0  0 0.4333333333333333 0  0 0.4 0  0 0.3666666666666667 0  0 0.3333333333333334 0  0 0.3 0  0 0.2666666666666667 0  0 0.2333333333333333 0  0 0.2 0  0 0.1666666666666666 0  0 0.1333333333333333 0  0 0.09999999999999998 0  0 0.06666666666666665 0  0 0.03333333333333333 0  1 0.03333333333333333 0  1 0.06666666666666667 0  1 0.1 0  1 0.1333333333333333 0  1 0.1666666666666667 0  1 0.2 0  1 0.2333333333333333 0  1 0.2666666666666667 0  1 0.3 0  1 0.3333333333333333 0  1 0.3666666666666666 0  1 0.4 0  1 0.4333333333333333 0  1 0.4666666666666667 0  1 0.5 0  1 0.5333333333333333 0  1 0.5666666666666667 0  1 0.6 0  1 0.6333333333333333 0  1 0.6666666666666666 0  1 0.7 0  1 0.7333333333333333 0  1 0.7666666666666667 0  1 0.8 0  1 0.8333333333333334 0  1 0.8666666666666667 0  1 0.9 0  1 0.9333333333333333 0  1 0.9666666666666667 0  0.9666666666666667 1 0  0.9333333333333333 1 0  0.9 1 0  0.8666666666666667 1 0  0.8333333333333334 1 0  0.8 1 0  0.7666666666666666 1 0  0.7333333333333334 1 0  0.7 1 0  0.6666666666666667 1 0  0.6333333333333333 1 0  0.6 1 0  0.5666666666666667 1 0  0.5333333333333333 1 0  0.5 1 0  0.4666666666666667 1 0  0.4333333333333333 1 0  0.4 1 0  0.3666666666666667 1 0  0.3333333333333334 1 0  0.3 1 0  0.2666666666666667 1 0  0.2333333333333333 1 0  0.2 1 0  0.1666666666666666 1 0  0.1333333333333333 1 0  0.09999999999999998 1 0  0.06666666666666665 1 0  0.03333333333333333 1 0  0.6247072676344306 0.2689501343248463 0  0.6239274716502419 0.2788583817523955 0  0.6226301867455355 0.2887122389026952 0  0.6208189686880621 0.2984846970382296 0  0.6184987819006211 0.3081489705305245 0  0.6156759858539226 0.317678570277693 0  0.6123583176357204 0.3270473763092224 0  0.6085548707439923 0.3362297093789981 0  0.6042760701622942 0.3452004013503318 0  0.5995336437856049 0.3539348641800754 0  0.5943405902749808 0.3624091573127375 0  0.5887111434291297 0.3706000532998825 0  0.582660733170558 0.3784851014649517 0  0.5762059432532257 0.3860426894390078 0  0.5693644658076293 0.3932521023987353 0  0.5621550528479018 0.4000935798443317 0  0.5545974648738458 0.4065483697616639 0  0.5467124167087765 0.4125987800202355 0  0.5385215207216315 0.4182282268660866 0  0.5300472275889694 0.4234212803767108 0  0.5213127647592257 0.4281637067534002 0  0.512342072787892 0.4324425073350981 0  0.5031597397181163 0.4362459542268262 0  0.493790933686587 0.4395636224450283 0  0.4842613339394185 0.4423864184917269 0  0.4745970604471235 0.4447066052791678 0  0.4648246023115891 0.4465178233366412 0  0.4549707451612894 0.4478151082413475 0  0.4450624977337403 0.4485949042255363 0  0.4351270178464268 0.4488550739226177 0  0.4251915379591132 0.4485949042255363 0  0.4152832905315641 0.4478151082413475 0  0.4054294333812644 0.4465178233366411 0  0.39565697524573 0.4447066052791677 0  0.385992701753435 0.4423864184917267 0  0.3764631020062665 0.4395636224450281 0  0.3670942959747371 0.4362459542268259 0  0.3579119629049616 0.4324425073350978 0  0.3489412709336278 0.4281637067533998 0  0.3402068081038843 0.4234212803767103 0  0.3317325149712221 0.4182282268660862 0  0.3235416189840771 0.412598780020235 0  0.3156565708190078 0.4065483697616634 0  0.3080989828449519 0.4000935798443311 0  0.3008895698852244 0.3932521023987346 0  0.2940480924396279 0.3860426894390071 0  0.2875933025222958 0.3784851014649511 0  0.2815428922637242 0.3706000532998818 0  0.2759134454178731 0.3624091573127368 0  0.2707203919072489 0.3539348641800746 0  0.2659779655305596 0.3452004013503309 0  0.2616991649488616 0.3362297093789972 0  0.2578957180571336 0.3270473763092215 0  0.2545780498389315 0.3176785702776921 0  0.251755253792233 0.3081489705305236 0  0.249435067004792 0.2984846970382286 0  0.2476238489473186 0.2887122389026941 0  0.2463265640426123 0.2788583817523945 0  0.2455467680584236 0.2689501343248454 0  0.2452865983613423 0.2590146544375318 0  0.2455467680584237 0.2490791745502182 0  0.2463265640426126 0.2391709271226692 0  0.247623848947319 0.2293170699723696 0  0.2494350670047924 0.2195446118368351 0  0.2517552537922335 0.2098803383445402 0  0.2545780498389321 0.2003507385973717 0  0.2578957180571343 0.1909819325658423 0  0.2616991649488624 0.1817995994960667 0  0.2659779655305604 0.172828907524733 0  0.2707203919072498 0.1640944446949895 0  0.2759134454178741 0.1556201515623273 0  0.2815428922637251 0.1474292555751825 0  0.2875933025222969 0.1395442074101132 0  0.2940480924396291 0.1319866194360571 0  0.3008895698852256 0.1247772064763297 0  0.3080989828449531 0.1179357290307334 0  0.3156565708190092 0.1114809391134012 0  0.3235416189840785 0.1054305288548295 0  0.3317325149712236 0.09980108200897844 0  0.3402068081038856 0.0946080284983544 0  0.3489412709336291 0.08986560212166514 0  0.357911962904963 0.08558680153996717 0  0.3670942959747386 0.08178335464823916 0  0.3764631020062678 0.07846568643003712 0  0.3859927017534364 0.0756428903833386 0  0.3956569752457313 0.0733227035958976 0  0.4054294333812659 0.07151148553842429 0  0.4152832905315654 0.07021420063371797 0  0.4251915379591144 0.0694344046495293 0  0.435127017846428 0.0691742349524479 0  0.4450624977337415 0.06943440464952938 0  0.4549707451612905 0.07021420063371814 0  0.4648246023115901 0.07151148553842454 0  0.4745970604471245 0.07332270359589793 0  0.4842613339394195 0.07564289038333902 0  0.4937909336865879 0.07846568643003757 0  0.5031597397181173 0.0817833546482398 0  0.5123420727878929 0.08558680153996781 0  0.5213127647592265 0.08986560212166581 0  0.53004722758897 0.0946080284983552 0  0.5385215207216321 0.09980108200897933 0  0.5467124167087771 0.1054305288548305 0  0.5545974648738462 0.1114809391134021 0  0.5621550528479023 0.1179357290307343 0  0.5693644658076298 0.1247772064763308 0  0.576205943253226 0.1319866194360582 0  0.5826607331705582 0.1395442074101142 0  0.5887111434291299 0.1474292555751835 0  0.594340590274981 0.1556201515623285 0  0.5995336437856051 0.1640944446949906 0  0.6042760701622945 0.172828907524734 0  0.6085548707439925 0.1817995994960678 0  0.6123583176357205 0.1909819325658435 0  0.6156759858539227 0.2003507385973728 0  0.6184987819006211 0.2098803383445412 0  0.6208189686880622 0.2195446118368362 0  0.6226301867455355 0.2293170699723706 0  0.6239274716502419 0.2391709271226702 0  0.6247072676344306 0.2490791745502192 0  0.203885768735257 0.3325402459548524 0  0.2015714905276826 0.3421799084407872 0  0.1977777294810124 0.3513388578120612 0  0.1925979005829864 0.3597915703383434 0  0.1861595484119405 0.3673299121842922 0  0.1786212065659918 0.373768264355338 0  0.1701684940397096 0.378948093253364 0  0.1610095446684356 0.3827418543000342 0  0.1513698821825007 0.3850561325076086 0  0.1414868670645144 0.3858339426659677 0  0.1316038519465281 0.3850561325076086 0  0.1219641894605933 0.3827418543000343 0  0.1128052400893193 0.378948093253364 0  0.1043525275630371 0.3737682643553381 0  0.09681418571708833 0.3673299121842922 0  0.09037583354604248 0.3597915703383434 0  0.08519600464801645 0.3513388578120612 0  0.08140224360134621 0.3421799084407872 0  0.07908796539377183 0.3325402459548523 0  0.07831015523541281 0.3226572308368659 0  0.07908796539377186 0.3127742157188796 0  0.08140224360134626 0.3031345532329447 0  0.08519600464801655 0.2939756038616707 0  0.0903758335460426 0.2855228913353884 0  0.0968141857
[...]
<PointData  Tensors="$\sigma$"> 
<DataArray  type="Float64"  Name="$\sigma$"  NumberOfComponents="9" format="ascii">7.2957955710167255e+01 3.7422368691501916e+01 0.0000000000000000e+00 3.7422368691501916e+01 2.9493383851721260e+03 0.0000000000000000e+00 0.0000000000000000e+00 0.0000000000000000e+00 0.0000000000000000e+00  3.6835291616883160e+02 4.7782218265240566e+01 0.0000000000000000e+00 4.7782218265240566e+01 1.4872562873443778e+03 0.0000000000000000e+00 0.0000000000000000e+00 0.0000000000000000e+00 0.0000000000000000e+00  -2.5365334950153082e+00 -5.4731805669961924e+00 0.0000000000000000e+00 -5.4731805669961942e+00 1.5878631275326218e+03 0.0000000000000000e+00 0.0000000000000000e+00 0.0000000000000000e+00 0.0000000000000000e+00  6.3444167492778698e+00 -2.7208043297046847e+00 0.0000000000000000e+00 -2.7208043297046847e+00 1.5253979369534500e+03 0.0000000000000000e+00 0.0000000000000000e+00 0.0000000000000000e+00 0.0000000000000000e+00  5.3850303394903918e+00 3.4070962960963174e+00 0.0000000000000000e+00 3.4070962960963174e+00 1.4538703423837987e+03 0.0000000000000000e+00 0.0000000000000000e+00 0.0000000000000000e+00 0.0000000000000000e+00  4.2470126467834923e+01 3.9010428444475160e+01 0.0000000000000000e+00 3.9010428444475160e+01 2.9408483868392887e+03 0.0000000000000000e+00 0.0000000000000000e+00 0.0000000000000000e+00 0.0000000000000000e+00  -2.5855378140404579e+01 8.9164853384447980e+01 0.0000000000000000e+00 8.9164853384448023e+01 1.3152547142994527e+02 0.0000000000000000e+00 0.0000000000000000e+00 0.0000000000000000e+00 0.0000000000000000e+00  2.7448089600532961e+02 1.7864674215680731e+02 0.0000000000000000e+00 1.7864674215680731e+02 3.2104163442913691e+03 0.0000000000000000e+00 0.0000000000000000e+00 0.0000000000000000e+00 0.0000000000000000e+00  1.5327777113177072e+02 -1.7559723804146856e+02 0.0000000000000000e+00 -1.7559723804146856e+02 2.9334710250024782e+03 0.0000000000000000e+00 0.0000000000000000e+00 0.0000000000000000e+00 0.0000000000000000e+00  -2.1943739748352577e+01 -8.9486822201147280e+00 0.0000000000000000e+00 -8.9486822201147493e+00 -3.7903094482641784e+01 0.0000000000000000e+00 0.0000000000000000e+00 0.0000000000000000e+00 0.0000000000000000e+00  -3.7218324949671278e-01 -1.0220369042323757e+01 0.0000000000000000e+00 -1.0220369042323755e+01 -1.4568697085893059e+00 0.0000000000000000e+00 0.0000000000000000e+00 0.0000000000000000e+00 0.0000000000000000e+00  7.3556572096845088e+01 1.7028060516204923e+02 0.0000000000000000e+00 1.7028060516204928e+02 1.6722121321890263e+03 0.0000000000000000e+00 0.0000000000000000e+00 0.0000000000000000e+00 0.0000000000000000e+00  -9.3704142956663254e+00 3.8309561250341048e+01 0.0000000000000000e+00 3.8309561250341048e+01 3.8158069361851758e+03 0.0000000000000000e+00 0.0000000000000000e+00 0.0000000000000000e+00 0.0000000000000000e+00  3.6629649730578656e+01 3.0289042289149922e+01 0.0000000000000000e+00 3.0289042289149922e+01 3.0448048703513900e+03 0.0000000000000000e+00 0.0000000000000000e+00 0.0000000000000000e+00 0.0000000000000000e+00  -2.3614458412975587e+01 -8.6520877618144709e+01 0.0000000000000000e+00 -8.6520877618144709e+01 -3.5303987735628596e+02 0.0000000000000000e+00 0.0000000000000000e+00 0.0000000000000000e+00 0.0000000000000000e+00  -2.7166035869215928e+01 -6.6977882860893615e+01 0.0000000000000000e+00 -6.6977882860893587e+01 -6.3626401639598171e+01 0.0000000000000000e+00 0.0000000000000000e+00 0.0000000000000000e+00 0.0000000000000000e+00  2.4763380432973605e+01 -8.5071796249689456e+01 0.0000000000000000e+00 -8.5071796249689456e+01 1.9264574353821936e+03 0.0000000000000000e+00 0.0000000000000000e+00 0.0000000000000000e+00 0.0000000000000000e+00  8.2319677793314511e+01 5.9639509082168466e+01 0.0000000000000000e+00 5.9639509082168466e+01 2.2977356744094463e+03 0.0000000000000000e+00 0.0000000000000000e+00 0.0000000000000000e+00 0.0000000000000000e+00  6.7927782274493154e+02 6.0005184887627820e+02 0.0000000000000000e+00 6.0005184887627820e+02 6.9568387812739129e+03 0.0000000000000000e+00 0.0000000000000000e+00 0.0000000000000000e+00 0.0000000000000000e+00  1.1391583590994502e+02 -9.8610978291103152e+01 0.0000000000000000e+00 -9.8610978291103152e+01 3.6130145510776679e+03 0.0000000000000000e+00 0.0000000000000000e+00 0.0000000000000000e+00 0.0000000000000000e+00  2.6157374655352957e+01 6.0138011030681717e+01 0.0000000000000000e+00 6.0138011030681668e+01 2.2525238772622297e+03 0.0000000000000000e+00 0.0000000000000000e+00 0.0000000000000000e+00 0.0000000000000000e+00  6.3172663802879143e+01 -1.4190215974461262e+00 0.0000000000000000e+00 -1.4190215974461262e+00 1.2359686387522891e+03 0.0000000000000000e+00 0.0000000000000000e+00 0.0000000000000000e+00 0.0000000000000000e+00  1.2059876145661269e+02 -3.1481606990316641e+02 0.0000000000000000e+00 -3.1481606990316641e+02 1.8910019213363548e+03 0.0000000000000000e+00 0.0000000000000000e+00 0.0000000000000000e+00 0.0000000000000000e+00  -1.1911727110322141e+02 -8.7503214286359594e+01 0.0000000000000000e+00 -8.7503214286359594e+01 5.8088316506807007e+02 0.0000000000000000e+00 0.0000000000000000e+00 0.0000000000000000e+00 0.0000000000000000e+00  -6.2627828649984917e+02 3.6227867895460997e+02 0.0000000000000000e+00 3.6227867895460997e+02 -1.9549290515091607e+02 0.0000000000000000e+00 0.0000000000000000e+00 0.0000000000000000e+00 0.0000000000000000e+00  -1.0674776550083679e+03 3.7498337559971895e+02 0.0000000000000000e+00 3.7498337559971895e+02 -2.5620892567345328e+02 0.0000000000000000e+00 0.0000000000000000e+00 0.0000000000000000e+00 0.0000000000000000e+00  -8.7720337126118818e+02 2.9030161442862845e+02 0.0000000000000000e+00 2.9030161442862845e+02 -1.3918217459924563e+02 0.0000000000000000e+00 0.0000000000000000e+00 0.0000000000000000e+00 0.0000000000000000e+00  4.3850669955419733e+02 6.4376975236748115e+02 0.0000000000000000e+00 6.4376975236748115e+02 3.9455092421728443e+02 0.0000000000000000e+00 0.0000000000000000e+00 0.0000000000000000e+00 0.0000000000000000e+00  1.8282150353077745e+03 1.2220466617953707e+03 0.0000000000000000e+00 1.2220466617953707e+03 7.8326921282726005e+02 0.0000000000000000e+00 0.0000000000000000e+00 0.0000000000000000e+00 0.0000000000000000e+00  1.8748299546782112e+03 1.4707943810448583e+03 0.0000000000000000e+00 1.4707943810448583e+03 1.3774683640133753e+03 0.0000000000000000e+00 0.0000000000000000e+00 0.0000000000000000e+00 0.0000000000000000e+00  9.4746334219365690e+02 1.1490116554043309e+03 0.0000000000000000e+00 1.1490116554043309e+03 1.5778798937833772e+03 0.0000000000000000e+00 0.0000000000000000e+00 0.0000000000000000e+00 0.0000000000000000e+00  3.6958908409775006e+02 5.3157218869556368e+02 0.0000000000000000e+00 5.3157218869556357e+02 1.3378390044189805e+03 0.0000000000000000e+00 0.0000000000000000e+00 0.0000000000000000e+00 0.0000000000000000e+00  6.2333287150792415e+01 1.0779171058869099e+02 0.0000000000000000e+00 1.0779171058869100e+02 1.1578775352662499e+03 0.0000000000000000e+00 0.0000000000000000e+00 0.0000000000000000e+00 0.0000000000000000e+00  4.8803738212404802e+01 -8.2788533312694426e+01 0.0000000000000000e+00 -8.2788533312694412e+01 5.9957091552054658e+02 0.0000000000000000e+00 0.0000000000000000e+00 0.0000000000000000e+00 0.0000000000000000e+00  -5.5062616809026849e+01 3.6049392230299354e+01 0.0000000000000000e+00 3.6049392230299347e+01 9.5550040107207352e+01 0.0000000000000000e+00 0.0000000000000000e+00 0.0000000000000000e+00 0.0000000000000000e+00  -3.8674045612888602e+02 2.4819260497775758e+02 0.0000000000000000e+00 2.4819260497775753e+02 -1.6301773828428756e+02 0.0000000000000000e+00 0.0000000000000000e+00 0.0000000000000000e+00 0.0000000000000000e+00  -7.0738515211876813e+02 2.6146848843253781e+02 0.0000000000000000e+00 2.6146848843253781e+02 -1.6630887805723685e+02 0.0000000000000000e+00 0.0000000000000000e+00 0.0000000000000000e+00 0.0000000000000000e+00  -7.2266042853744727e+02 1.6239678117948063e+02 0.0000000000000000e+00 1.6239678117948063e+02 -1.1548517905924503e+02 0.0000000000000000e+00 0.0000000000000000e+00 0.0000000000000000e+00 0.0000000000000000e+00  -3.2883574670167923e+02 4.7152477482505375e+01 0.0000000000000000e+00 4.7152477482505375e+01 2.3592344233560524e+01 0.0000000000000000e+00 0.0000000000000000e+00 0.0000000000000000e+00 0.0000000000000000e+00  3.4741520514123818e+02 2.9719734890641598e+02 0.0000000000000000e+00 2.9719734890641598e+02 2.0900459161298602e+02 0.0000000000000000e+00 0.0000000000000000e+00 0.0000000000000000e+00 0.0000000000000000e+00  7.3637592499713082e+02 6.8525598560121728e+02 0.0000000000000000e+00 6.8525598560121728e+02 8.7634250698534163e+02 0.0000000000000000e+00 0.0000000000000000e+00 0.0000000000000000e+00 0.0000000000000000e+00  6.6001322038412104e+02 1.0446770771148831e+03 0.0000000000000000e+00 1.0446770771148831e+03 1.8747799872723087e+03 0.0000000000000000e+00 0.0000000000000000e+00 0.0000000000000000e+00 0.0000000000000000e+00  4.6806882839234385e+02 6.3929675565573018e+02 0.0000000000000000e+00 6.3929675565573018e+02 2.6619527697847866e+03 0.0000000000000000e+00 0.0000000000000000e+00 0.0000000000000000e+00 0.0000000000000000e+00  1.4995759100596931e+02 -7.6723601162600545e+01 0.0000000000000000e+00 -7.6723601162600545e+01 1.2454151215233317e+03 0.0000000000000000e+00 0.0000000000000000e+00 0.0000000000000000e+00 0.0000000000000000e+00  -3.2885140257779582e+01 5.5631092887562801e+00 0.0000000000000000e+00 5.5631092887562792e+00 1.0811381515480025e+03 0.0000000000000000e+00 0.0000000000000000e+00 0.0000000000000000e+00 0.0000000000000000e+00  6.1520800426569188e+01 6.4596341983086063e+00 0.0000000000000000e+00 6.4596341983086081e+00 8.4392704603790651e+02 0.0000000000000000e+00 0.0000000000000000e+00 0.0000000000000000e+00 0.0000000000000000e+00  1.0147162922513466e+01 9.0553830039135335e+00 0.0000000000000000e+00 9.0553830039135317e+00 7.1653921625413079e+02 0.0000000000000000e+00 0.0000000000000000e+00 0.0000000000000000e+00 0.0000000000000000e+00  2.1890513199942589e+01 1.3616704687354918e+01 0.0000000000000000e+00 1.3616704687354918e+01 5.6408149425052920e+02 0.0000000000000000e+00 0.0000000000000000e+00 0.0000000000000000e+00 0.0000000000000000e+00  -8.5544123907613283e+00 9.1399346768318956e+00 0.0000000000000000e+00 9.1399346768318956e+00 4.2675190485691218e+02 0.0000000000000000e+00 0.0000000000000000e+00 0.0000000000000000e+00 0.0000000000000000e+00  -2.2295503274739847e+01 4.7514896192988436e+00 0.0000000000000000e+00 4.7514896192988436e+00 3.0796742910254596e+02 0.0000000000000000e+00 0.0000000000000000e+00 0.0000000000000000e+00 0.0000000000000000e+00  -4.2813225763198702e+01 3.7758663978454812e+00 0.0000000000000000e+00 3.7758663978454812e+00 1.9834982886309714e+02 0.0000000000000000e+00 0.0000000000000000e+00 0.0000000000000000e+00 0.0000000000000000e+00  -4.2274621125769386e+01 4.2500280582453831e+00 0.0000000000000000e+00 4.2500280582453831e+00 8.3986109042225138e+01 0.0000000000000000e+00 0.0000000000000000e+00 0.0000000000000000e+00 0.0000000000000000e+00  -5.0370687540914467e+01 5.8356536314215450e+00 0.0000000000000000e+00 5.8356536314215450e+00 -9.2096722125896147e+00 0.0000000000000000e+00 0.0000000000000000e+00 0.0000000000000000e+00 0.0000000000000000e+00  -7.3235588615465247e+01 4.4461052272985286e+00 0.0000000000000000e+00 4.4461052272985269e+00 -4.3668472996232580e+01 0.0000000000000000e+00 0.0000000000000000e+00 0.0000000000000000e+00 0.0000000000000000e+00  -9.1545496365332895e+01 2.6981807562205801e-01 0.0000000000000000e+00 2.6981807562205873e-01 -4.3902480361831216e+01 0.0000000000000000e+00 0.0000000000000000e+00 0.0000000000000000e+00 0.0000000000000000e+00  -1.0710738653255214e+02 6.5939238731308014e-01 0.0000000000000000e+00 6.5939238731307970e-01 -2.1373764345333310e+01 0.0000000000000000e+00 0.0000000000000000e+00 0.0000000000000000e+00 0.0000000000000000e+00  -1.1506161921229148e+02 -1.8537549521385568e+00 0.0000000000000000e+00 -1.8537549521385561e+00 2.0156362118820955e+01 0.0000000000000000e+00 0.0000000000000000e+00 0.0000000000000000e+00 0.0000000000000000e+00  -1.4861101978585265e+02 3.1739154330075872e+00 0.0000000000000000e+00 3.1739154330075872e+00 1.1943171448620041e+02 0.0000000000000000e+00 0.0000000000000000e+00 0.0000000000000000e+00 0.0000000000000000e+00  -2.1623928218389301e+02 1.1084040699233011e+01 0.0000000000000000e+00 1.1084040699233011e+01 2.5350511681548141e+02 0.0000000000000000e+00 0.0000000000000000e+00 0.0000000000000000e+00 0.0000000000000000e+00  -3.4497625655459024e+02 1.8438998346458405e+01 0.0000000000000000e+00 1.8438998346458405e+01 3.6439533093210503e+02 0.0000000000000000e+00 0.0000000000000000e+00 0.0000000000000000e+00 0.0000000000000000e+00  -3.9066663483673216e+02 -1.6770813434286477e+01 0.0000000000000000e+00 -1.6770813434286477e+01 2.4507322255741849e+02 0.0000000000000000e+00 0.0000000000000000e+00 0.0000000000000000e+00 0.0000000000000000e+00  -2.9584132814348345e+02 -5.1198265260153220e-01 0.0000000000000000e+00 -5.1198265260153220e-01 -2.1438225835029062e+01 0.0000000000000000e+00 0.0000000000000000e+00 0.0000000000000000e+00 0.0000000000000000e+00  -3.4453085321622018e+02 1.4191510142896895e+01 0.0000000000000000e+00 1.4191510142896895e+01 1.6271402179202039e+02 0.0000000000000000e+00 0.0000000000000000e+00 0.0000000000000000e+00 0.0000000000000000e+00  -2.8410605651789461e+02 -1.2188226277721718e+01 0.0000000000000000e+00 -1.2188226277721713e+01 3.2429256773942359e+02 0.0000000000000000e+00 0.0000000000000000e+00 0.0000000000000000e+00 0.0000000000000000e+00  -1.2403464682726677e+02 -1.8923629336557745e+01 0.0000000000000000e+00 -1.8923629336557745e+01 1.9608506090588261e+02 0.0000000000000000e+00 0.0000000000000000e+00 0.0000000000000000e+00 0.0000000000000000e+00  3.7850264924265154e+01 -9.6766076305839643e+00 0.0000000000000000e+00 -9.6766076305839626e+00 1.4696436000400612e+02 0.0000000000000000e+00 0.0000000000000000e+00 0.0000000000000000e+00 0.0000000000000000e+00  7.1182889704001127e+01 -8.5125990276535095e+00 0.0000000000000000e+00 -8.5125990276535095e+00 2.1032091180048207e+02 0.0000000000000000e+00 0.0000000000000000e+00 0.0000000000000000e+00 0.0000000000000000e+00  7.9431647248941118e+01 -6.4792075915458280e+00 0.0000000000000000e+00 -6.4792075915458263e+00 3.7865613032801150e+02 0.0000000000000000e+00 0.0000000000000000e+00 0.0000000000000000e+00 0.0000000000000000e+00  6.4166036620523258e+01 -1.2923413390964610e+01 0.0000000000000000e+00 -1.2923413390964610e+01 5.9383472522690533e+02 0.0000000000000000e+00 0.0000000000000000e+00 0.0000000000000000e+00 0.0000000000000000e+00  6.1584053464665622e+01 -9.5049656228802260e+00 0.0000000000000000e+00 -9.5049656228802224e+00 8.4253682596397016e+02 0.0000000000000000e+00 0.0000000000000000e+00 0.0000000000000000e+00 0.0000000000000000e+00  1.7320113903094967e+01 -6.5007052597543904e+00 0.0000000000000000e+00 -6.5007052597543913e+00 1.1272163492884204e+03 0.0000000000000000e+00 0.0000000000000000e+00 0.0000000000000000e+00 0.0000000000000000e+00  2.3731740550112704e+01 -8.4507358022921544e+00 0.0000000000000000e+00 -8.4507358022921544e+00 1.3521050325604988e+03 0.0000000000000000e+00 0.0000000000000000e+00 0.0000000000000000e+00 0.0000000000000000e+00  -1.8202693620155179e+00 1.4759468708474571e+01 0.0000000000000000e+00 1.4759468708474571e+01 1.5499907700440738e+03 0.0000000000000000e+00 0.0000000000000000e+00 0.0000000000000000e+00 0.0000000000000000e+00  9.5918751003879310e-01 2.4042916170000486e+00 0.0000000000000000e+00 2.4042916170000486e+00 1.5954675790884046e+03 0.0000000000000000e+00 0.0000000000000000e+00 0.0000000000000000e+00 0.0000000000000000e+00  -2.1639392924723158e+00 1.4064218129025496e+01 0.0000000000000000e+00 1.4064218129025496e+01 1.6292267760963382e+03 0.0000000000000000e+00 0.0000000000000000e+00 0.0000000000000000e+00 0.0000000000000000e+00  -9.7741352678853100e-01 3.8320931367322557e+00 0.0000000000000000e+00 3.8320931367322557e+00 1.6768514836817822e+03 0.0000000000000000e+00 0.0000000000000000e+00 0.0000000000000000e+00 0.0000000000000000e+00  1.9873242697884894e+00 5.9513164777365164e+00 0.0000000000000000e+00 5.9513164777365146e+00 1.7338295013853376e+03 0.0000000000000000e+00 0.0000000000000000e+00 0.0000000000000000e+00 0.0000000000000000e+00  4.5834201084319953e-01 1.5921597902378485e+01 0.0000000000000000e+00 1.5921597902378478e+01 1.7553680320625965e+03 0.0000000000000000e+00 0.0000000000000000e+00 0.0000000000000000e+00 0.0000000000000000e+00  -9.0105666568525962e+00 2.5118246799453775e+01 0.0000000000000000e+00 2.5118246799453779e+01 1.8914472511368235e+03 0.0000000000000000e+00 0.0000000000000000e+00 0.0000000000000000e+00 0.0000000000000000e+00  2.2673005249830763e-01 4.2117953542642127e+01 0.0000000000000000e+00 4.2117953542642127e+01 2.0525464324295749e+03 0.0000000000000000e+00 0.0000000000000000e+00 0.0000000000000000e+00 0.0000000000000000e+00  -1.4432503341512476e+01 1.7940447594807555e+01 0.0000000000000000e+00 1.7940447594807555e+01 2.2723963176536745e+03 0.0000000000000000e+00 0.0000000000000000e+00 0.0000000000000000e+00 0.0000000000000000e+00  -3.4799342463711177e+01 -3.5497910368343746e+01 0.0000000000000000e+00 -3.5497910368343739e+01 2.2299077528319694e+03 0.0000000000000000e+00 0.0000000000000000e+00 0.0000000000000000e+00 0.0000000000000000e+00  -4.1775738457171236e+01 -1.4944343506870095e+02 0.0000000000000000e+00 -1.4944343506870095e+02 1.9068703663933429e+03 0.0000000000000000e+00 0.0000000000000000e+00 0.0000000000000000e+00 0.0000000000000000e+00  -9.0502413231014565e+00 -1.7709656181771652e+02 0.0000000000000000e+00 -1.7709656181771652e+02 1.4059791520106087e+03 0.0000000000000000e+00 0.0000000000000000e+00 0.0000000000000000e+00 0.0000000000000000e+00  8.4165125261564711e+01 2.3928435077962224e+01 0.0000000000000000e+00 2.3928435077962224e+01 7.5618689987244989e+02 0.0000000000000000e+00 0.0000000000000000e+00 0.0000000000000000e+00 0.0000000000000000e+00  5.6654387674946712e+01 1.1392286206043559e+02 0.0000000000000000e+00 1.1392286206043559e+02 8.4559530121072521e+02 0.0000000000000000e+00 0.0000000000000000e+00 0.0000000000000000e+00 0.0000000000000000e+00  2.1627424558313599e+01 1.6997257966378180e+02 0.0000000000000000e+00 1.6997257966378180e+02 1.7664479407089771e+03 0.0000000000000000e+00 0.0000000000000000e+00 0.0000000000000000e+00 0.0000000000000000e+00  -1.0879794677053630e+01 1.3192861014481056e+02 0.0000000000000000e+00 1.3192861014481056e+02 2.6209222873408612e+03 0.0000000000000000e+00 0.0000000000000000e+00 0.0000000000000000e+00 0.0000000000000000e+00  -2.7979876518066320e+01 -1.4246137374064105e+02 0.0000000000000000e+00 -1.4246137374064105e+02 2.8054089088295364e+03 0.0000000000000000e+00 0.0000000000000000e+00 0.0000000000000000e+00 0.0000000000000000e+00  6.6815916533802891e+01 -4.4074974805518892e+01 0.0000000000000000e+00 -4.4074974805518892e+01 1.9861265688370631e+03 0.0000000000000000e+00 0.0000000000000000e+00 0.0000000000000000e+00 0.0000000000000000e+00  -7.0813865111551152e+01 8.9369311329713682e+01 0.0000000000000000e+00 8.9369311329713682e+01 2.3846890245223931e+03 0.0000000000000000e+00 0.0000000000000000e+00 0.0000000000000000e+00 0.0000000000000000e+00  -3.7948247400841510e+00 -6.9566628892285863e+01 0.0000000000000000e+00 -6.9566628892285863e+01 2.3055363924750554e+03 0.0000000000000000e+00 0.0000000000000000e+00 0.0000000000000000e+00 0.0000000000000000e+00  -3.3416461246383244e+00 -8.3419089799926752e+01 0.0000000000000000e+00 -8.3419089799926752e+01 1.7917444930095849e+03 0.0000000000000000e+00 0.0000000000000000e+00 0.0000000000000000e+00 0.0000000000000000e+00  1.8484576747010941e+01 -7.1247963652221209e+00 0.0000000000000000e+00 -7.1247963652221209e+00 1.6570595163405903e+03 0.0000000000000000e+00 0.0000000000000000e+00 0.0000000000000000e+00 0.0000000000000000e+00  -7.2240495947355603e+00 -2.4607091213428375e-01 0.0000000000000000e+00 -2.4607091213428878e-01 1.6188836524870521e+03 0.0000000000000000e+00 0.0000000000000000e+00 0.0000000000000000e+00 0.0000000000000