<?xml version="1.0"?>
<VTKFile type="UnstructuredGrid"  version="0.1"  >
<UnstructuredGrid>
<Piece  NumberOfPoints="3879" NumberOfCells="6881">
<Points>
<DataArray  type="Float64"  NumberOfComponents="3"  format="ascii">0.207524190028372 0.2122422770132111 0  0 0 0  1 0 0  0 1 0  1 1 0  0.6249674373315121 0.2590146544375328 0  0.204663578893616 0.322657230836866 0  0.09605577522599912 0.4018360776629776 0  0.671351124618251 0.08738059142081528 0  0.7842102907526436 0.1666439122351055 0  0.8512483166984784 0.1985391006160637 0  0.6418797837909295 0.4423157172830166 0  0.9292488447973215 0.3869277868069776 0  0.3197896119137055 0.5509935221980964 0  0.3979283685568406 0.5079871620336583 0  0.1572503457993085 0.7345153245035532 0  0.3032914287999163 0.7872981443735918 0  0.3549464687598876 0.8870324161721976 0  0.9691791685505482 0.5159450047798622 0  0.9447564590470373 0.6146164845729313 0  0.7687603548175107 0.7176858127488035 0  0.8926159261971183 0.7422924070424508 0  0.2061587782631535 0.2217389244366831 0  0.2021731605082994 0.2304662099646423 0  0.1958902278109265 0.2377171008267789 0  0.1878189860121365 0.2429041729681512 0  0.1786133191209442 0.2456072006525708 0  0.1690190155206647 0.2456072006525708 0  0.1598133486294724 0.2429041729681512 0  0.1517421068306824 0.2377171008267789 0  0.1454591741333096 0.2304662099646422 0  0.1414735563784554 0.221738924436683 0  0.1401081446132369 0.212242277013211 0  0.1414735563784555 0.202745629589739 0  0.1454591741333096 0.1940183440617798 0  0.1517421068306825 0.1867674531996431 0  0.1598133486294725 0.1815803810582709 0  0.1690190155206649 0.1788773533738513 0  0.1786133191209443 0.1788773533738514 0  0.1878189860121367 0.181580381058271 0  0.1958902278109266 0.1867674531996433 0  0.2021731605082994 0.19401834406178 0  0.2061587782631535 0.2027456295897391 0  0.03333333333333333 0 0  0.06666666666666667 0 0  0.1 0 0  0.1333333333333333 0 0  0.1666666666666667 0 0  0.2 0 0  0.2333333333333333 0 0  0.2666666666666667 0 0  0.3 0 0  0.3333333333333333 0 0  0.3666666666666666 0 0  0.4 0 0  0.4333333333333333 0 0  0.4666666666666667 0 0  0.5 0 0  0.5333333333333333 0 0  0.5666666666666667 0 0  0.6 0 0  0.6333333333333333 0 0  0.6666666666666666 0 0  0.7 0 0  0.7333333333333333 0 0  0.7666666666666667 0 0  0.8 0 0  0.8333333333333334 0 0  0.8666666666666667 0 0  0.9 0 0  0.9333333333333333 0 0  0.9666666666666667 0 0  0 0.9666666666666667 0  0 0.9333333333333333 0  0 0.9 0  0 0.8666666666666667 0  0 0.8333333333333334 0  0 0.8 0  0 0.7666666666666666 0  0 0.7333333333333334 0  0 0.7 0  0 0.6666666666666667 0  0 0.6333333333333333 0  0 0.6 0  0 0.5666666666666667 0  0 0.5333333333333333 0  0 0.5 0  0 0.4666666666666667 0  0 0.4333333333333333 0  0 0.4 0  0 0.3666666666666667 0  0 0.3333333333333334 0  0 0.3 0  0 0.2666666666666667 0  0 0.2333333333333333 0  0 0.2 0  0 0.1666666666666666 0  0 0.1333333333333333 0  0 0.09999999999999998 0  0 0.06666666666666665 0  0 0.03333333333333333 0  1 0.03333333333333333 0  1 0.06666666666666667 0  1 0.1 0  1 0.1333333333333333 0  1 0.1666666666666667 0  1 0.2 0  1 0.2333333333333333 0  1 0.2666666666666667 0  1 0.3 0  1 0.3333333333333333 0  1 0.3666666666666666 0  1 0.4 0  1 0.4333333333333333 0  1 0.4666666666666667 0  1 0.5 0  1 0.5333333333333333 0  1 0.5666666666666667 0  1 0.6 0  1 0.6333333333333333 0  1 0.6666666666666666 0  1 0.7 0  1 0.7333333333333333 0  1 0.7666666666666667 0  1 0.8 0  1 0.8333333333333334 0  1 0.8666666666666667 0  1 0.9 0  1 0.9333333333333333 0  1 0.9666666666666667 0  0.9666666666666667 1 0  0.9333333333333333 1 0  0.9 1 0  0.8666666666666667 1 0  0.8333333333333334 1 0  0.8 1 0  0.7666666666666666 1 0  0.7333333333333334 1 0  0.7 1 0  0.6666666666666667 1 0  0.6333333333333333 1 0  0.6 1 0  0.5666666666666667 1 0  0.5333333333333333 1 0  0.5 1 0  0.4666666666666667 1 0  0.4333333333333333 1 0  0.4 1 0  0.3666666666666667 1 0  0.3333333333333334 1 0  0.3 1 0  0.2666666666666667 1 0  0.2333333333333333 1 0  0.2 1 0  0.1666666666666666 1 0  0.1333333333333333 1 0  0.09999999999999998 1 0  0.06666666666666665 1 0  0.03333333333333333 1 0  0.6247072676344306 0.2689501343248463 0  0.6239274716502419 0.2788583817523955 0  0.6226301867455355 0.2887122389026952 0  0.6208189686880621 0.2984846970382296 0  0.6184987819006211 0.3081489705305245 0  0.6156759858539226 0.317678570277693 0  0.6123583176357204 0.3270473763092224 0  0.6085548707439923 0.3362297093789981 0  0.6042760701622942 0.3452004013503318 0  0.5995336437856049 0.3539348641800754 0  0.5943405902749808 0.3624091573127375 0  0.5887111434291297 0.3706000532998825 0  0.582660733170558 0.3784851014649517 0  0.5762059432532257 0.3860426894390078 0  0.5693644658076293 0.3932521023987353 0  0.5621550528479018 0.4000935798443317 0  0.5545974648738458 0.4065483697616639 0  0.5467124167087765 0.4125987800202355 0  0.5385215207216315 0.4182282268660866 0  0.5300472275889694 0.4234212803767108 0  0.5213127647592257 0.4281637067534002 0  0.512342072787892 0.4324425073350981 0  0.5031597397181163 0.4362459542268262 0  0.493790933686587 0.4395636224450283 0  0.4842613339394185 0.4423864184917269 0  0.4745970604471235 0.4447066052791678 0  0.4648246023115891 0.4465178233366412 0  0.4549707451612894 0.4478151082413475 0  0.4450624977337403 0.4485949042255363 0  0.4351270178464268 0.4488550739226177 0  0.4251915379591132 0.4485949042255363 0  0.4152832905315641 0.4478151082413475 0  0.4054294333812644 0.4465178233366411 0  0.39565697524573 0.4447066052791677 0  0.385992701753435 0.4423864184917267 0  0.3764631020062665 0.4395636224450281 0  0.3670942959747371 0.4362459542268259 0  0.3579119629049616 0.4324425073350978 0  0.3489412709336278 0.4281637067533998 0  0.3402068081038843 0.4234212803767103 0  0.3317325149712221 0.4182282268660862 0  0.3235416189840771 0.412598780020235 0  0.3156565708190078 0.4065483697616634 0  0.3080989828449519 0.4000935798443311 0  0.3008895698852244 0.3932521023987346 0  0.2940480924396279 0.3860426894390071 0  0.2875933025222958 0.3784851014649511 0  0.2815428922637242 0.3706000532998818 0  0.2759134454178731 0.3624091573127368 0  0.2707203919072489 0.3539348641800746 0  0.2659779655305596 0.3452004013503309 0  0.2616991649488616 0.3362297093789972 0  0.2578957180571336 0.3270473763092215 0  0.2545780498389315 0.3176785702776921 0  0.251755253792233 0.3081489705305236 0  0.249435067004792 0.2984846970382286 0  0.2476238489473186 0.2887122389026941 0  0.2463265640426123 0.2788583817523945 0  0.2455467680584236 0.2689501343248454 0  0.2452865983613423 0.2590146544375318 0  0.2455467680584237 0.2490791745502182 0  0.2463265640426126 0.2391709271226692 0  0.247623848947319 0.2293170699723696 0  0.2494350670047924 0.2195446118368351 0  0.2517552537922335 0.2098803383445402 0  0.2545780498389321 0.2003507385973717 0  0.2578957180571343 0.1909819325658423 0  0.2616991649488624 0.1817995994960667 0  0.2659779655305604 0.172828907524733 0  0.2707203919072498 0.1640944446949895 0  0.2759134454178741 0.1556201515623273 0  0.2815428922637251 0.1474292555751825 0  0.2875933025222969 0.1395442074101132 0  0.2940480924396291 0.1319866194360571 0  0.3008895698852256 0.1247772064763297 0  0.3080989828449531 0.1179357290307334 0  0.3156565708190092 0.1114809391134012 0  0.3235416189840785 0.1054305288548295 0  0.3317325149712236 0.09980108200897844 0  0.3402068081038856 0.0946080284983544 0  0.3489412709336291 0.08986560212166514 0  0.357911962904963 0.08558680153996717 0  0.3670942959747386 0.08178335464823916 0  0.3764631020062678 0.07846568643003712 0  0.3859927017534364 0.0756428903833386 0  0.3956569752457313 0.0733227035958976 0  0.4054294333812659 0.07151148553842429 0  0.4152832905315654 0.07021420063371797 0  0.4251915379591144 0.0694344046495293 0  0.435127017846428 0.0691742349524479 0  0.4450624977337415 0.06943440464952938 0  0.4549707451612905 0.07021420063371814 0  0.4648246023115901 0.07151148553842454 0  0.4745970604471245 0.07332270359589793 0  0.4842613339394195 0.07564289038333902 0  0.4937909336865879 0.07846568643003757 0  0.5031597397181173 0.0817833546482398 0  0.5123420727878929 0.08558680153996781 0  0.5213127647592265 0.08986560212166581 0  0.53004722758897 0.0946080284983552 0  0.5385215207216321 0.09980108200897933 0  0.5467124167087771 0.1054305288548305 0  0.5545974648738462 0.1114809391134021 0  0.5621550528479023 0.1179357290307343 0  0.5693644658076298 0.1247772064763308 0  0.576205943253226 0.1319866194360582 0  0.5826607331705582 0.1395442074101142 0  0.5887111434291299 0.1474292555751835 0  0.594340590274981 0.1556201515623285 0  0.5995336437856051 0.1640944446949906 0  0.6042760701622945 0.172828907524734 0  0.6085548707439925 0.1817995994960678 0  0.6123583176357205 0.1909819325658435 0  0.6156759858539227 0.2003507385973728 0  0.6184987819006211 0.2098803383445412 0  0.6208189686880622 0.2195446118368362 0  0.6226301867455355 0.2293170699723706 0  0.6239274716502419 0.2391709271226702 0  0.6247072676344306 0.2490791745502192 0  0.203885768735257 0.3325402459548524 0  0.2015714905276826 0.3421799084407872 0  0.1977777294810124 0.3513388578120612 0  0.1925979005829864 0.3597915703383434 0  0.1861595484119405 0.3673299121842922 0  0.1786212065659918 0.373768264355338 0  0.1701684940397096 0.378948093253364 0  0.1610095446684356 0.3827418543000342 0  0.1513698821825007 0.3850561325076086 0  0.1414868670645144 0.3858339426659677 0  0.1316038519465281 0.3850561325076086 0  0.1219641894605933 0.3827418543000343 0  0.1128052400893193 0.378948093253364 0  0.1043525275630371 0.3737682643553381 0  0.09681418571708833 0.3673299121842922 0  0.09037583354604248 0.3597915703383434 0  0.08519600464801645 0.3513388578120612 0  0.08140224360134621 0.3421799084407872 0  0.07908796539377183 0.3325402459548523 0  0.07831015523541281 0.3226572308368659 0  0.07908796539377186 0.3127742157188796 0  0.08140224360134626 0.3031345532329447 0  0.08519600464801655 0.2939756038616707 0  0.0903758335460426 0.2855228913353884 0  0.0968141857
[...]
<PointData  Tensors="$\sigma$"> 
<DataArray  type="Float64"  Name="$\sigma$"  NumberOfComponents="9" format="ascii">9.3109839359156965e+01 3.4856571089273828e+01 0.0000000000000000e+00 3.4856571089273828e+01 4.6441894461761458e+03 0.0000000000000000e+00 0.0000000000000000e+00 0.0000000000000000e+00 0.0000000000000000e+00  5.7096580937362660e+02 6.4541353302489000e+01 0.0000000000000000e+00 6.4541353302489000e+01 2.3334767664590636e+03 0.0000000000000000e+00 0.0000000000000000e+00 0.0000000000000000e+00 0.0000000000000000e+00  -7.3808560240255954e+00 -8.8567778045368506e+00 0.0000000000000000e+00 -8.8567778045368595e+00 2.4929463241409949e+03 0.0000000000000000e+00 0.0000000000000000e+00 0.0000000000000000e+00 0.0000000000000000e+00  6.6111181783207460e+00 -3.2311981909624166e+00 0.0000000000000000e+00 -3.2311981909624201e+00 2.3996450630395957e+03 0.0000000000000000e+00 0.0000000000000000e+00 0.0000000000000000e+00 0.0000000000000000e+00  6.5081283974668018e+00 4.9131470674878992e+00 0.0000000000000000e+00 4.9131470674879019e+00 2.2829204734190571e+03 0.0000000000000000e+00 0.0000000000000000e+00 0.0000000000000000e+00 0.0000000000000000e+00  5.3936060737396737e+01 5.2607797899568808e+01 0.0000000000000000e+00 5.2607797899568887e+01 4.6216879715891364e+03 0.0000000000000000e+00 0.0000000000000000e+00 0.0000000000000000e+00 0.0000000000000000e+00  -4.0878836305996636e+01 1.2606548982792847e+02 0.0000000000000000e+00 1.2606548982792872e+02 1.7974443951939597e+02 0.0000000000000000e+00 0.0000000000000000e+00 0.0000000000000000e+00 0.0000000000000000e+00  3.7772723673821156e+02 2.5258436217893544e+02 0.0000000000000000e+00 2.5258436217893544e+02 5.0626177117279831e+03 0.0000000000000000e+00 0.0000000000000000e+00 0.0000000000000000e+00 0.0000000000000000e+00  1.8727445898239810e+02 -2.2443244906854670e+02 0.0000000000000000e+00 -2.2443244906854670e+02 4.6320710937596659e+03 0.0000000000000000e+00 0.0000000000000000e+00 0.0000000000000000e+00 0.0000000000000000e+00  -7.0312105769864772e+01 6.1234189605642397e+00 0.0000000000000000e+00 6.1234189605645089e+00 -7.3334685271815800e+01 0.0000000000000000e+00 0.0000000000000000e+00 0.0000000000000000e+00 0.0000000000000000e+00  -3.5271880640484188e-01 -1.3799887381219364e+01 0.0000000000000000e+00 -1.3799887381219346e+01 -1.5431366488894197e+01 0.0000000000000000e+00 0.0000000000000000e+00 0.0000000000000000e+00 0.0000000000000000e+00  8.9967784238594447e+01 2.3449575552094424e+02 0.0000000000000000e+00 2.3449575552094410e+02 2.6099206163678355e+03 0.0000000000000000e+00 0.0000000000000000e+00 0.0000000000000000e+00 0.0000000000000000e+00  -2.7100681239060240e+01 5.1350752106991578e+01 0.0000000000000000e+00 5.1350752106991578e+01 5.9878337827707055e+03 0.0000000000000000e+00 0.0000000000000000e+00 0.0000000000000000e+00 0.0000000000000000e+00  4.2117333090037299e+01 4.9846682902359724e+01 0.0000000000000000e+00 4.9846682902359724e+01 4.7796412507122950e+03 0.0000000000000000e+00 0.0000000000000000e+00 0.0000000000000000e+00 0.0000000000000000e+00  -3.9919442564827179e+01 -1.1686788944635865e+02 0.0000000000000000e+00 -1.1686788944635903e+02 -5.6756392141030562e+02 0.0000000000000000e+00 0.0000000000000000e+00 0.0000000000000000e+00 0.0000000000000000e+00  -6.7448203681171719e+01 -9.4914352583146567e+01 0.0000000000000000e+00 -9.4914352583146155e+01 -1.6649541044015965e+02 0.0000000000000000e+00 0.0000000000000000e+00 0.0000000000000000e+00 0.0000000000000000e+00  3.1586558278439373e+01 -1.0380865339460583e+02 0.0000000000000000e+00 -1.0380865339460604e+02 3.0159979592960285e+03 0.0000000000000000e+00 0.0000000000000000e+00 0.0000000000000000e+00 0.0000000000000000e+00  9.8839738597424514e+01 7.2459295540130526e+01 0.0000000000000000e+00 7.2459295540130370e+01 3.6004635943449985e+03 0.0000000000000000e+00 0.0000000000000000e+00 0.0000000000000000e+00 0.0000000000000000e+00  9.5123331024329491e+02 9.0110812000678322e+02 0.0000000000000000e+00 9.0110812000678322e+02 1.1194938737435405e+04 0.0000000000000000e+00 0.0000000000000000e+00 0.0000000000000000e+00 0.0000000000000000e+00  1.5724265501383078e+02 -1.5384480985683200e+02 0.0000000000000000e+00 -1.5384480985683200e+02 5.6662979537754600e+03 0.0000000000000000e+00 0.0000000000000000e+00 0.0000000000000000e+00 0.0000000000000000e+00  3.3663241599001445e+01 8.5667511350867557e+01 0.0000000000000000e+00 8.5667511350867542e+01 3.5349300504161824e+03 0.0000000000000000e+00 0.0000000000000000e+00 0.0000000000000000e+00 0.0000000000000000e+00  8.4943041747457031e+01 1.1212244970377607e+00 0.0000000000000000e+00 1.1212244970377789e+00 1.9310003992345528e+03 0.0000000000000000e+00 0.0000000000000000e+00 0.0000000000000000e+00 0.0000000000000000e+00  2.0465547286969388e+02 -5.5123065822745593e+02 0.0000000000000000e+00 -5.5123065822745593e+02 2.9490335443654958e+03 0.0000000000000000e+00 0.0000000000000000e+00 0.0000000000000000e+00 0.0000000000000000e+00  -1.5458431333380886e+02 -1.6424829508933448e+02 0.0000000000000000e+00 -1.6424829508933448e+02 8.5371375144079184e+02 0.0000000000000000e+00 0.0000000000000000e+00 0.0000000000000000e+00 0.0000000000000000e+00  -9.3084122127733838e+02 5.6873983715404654e+02 0.0000000000000000e+00 5.6873983715404654e+02 -3.4574154086452660e+02 0.0000000000000000e+00 0.0000000000000000e+00 0.0000000000000000e+00 0.0000000000000000e+00  -1.7343443596161242e+03 6.1278555116182611e+02 0.0000000000000000e+00 6.1278555116182611e+02 -3.9433484256437691e+02 0.0000000000000000e+00 0.0000000000000000e+00 0.0000000000000000e+00 0.0000000000000000e+00  -1.3962724809017918e+03 4.1873029784309443e+02 0.0000000000000000e+00 4.1873029784309409e+02 -2.2549110191802825e+02 0.0000000000000000e+00 0.0000000000000000e+00 0.0000000000000000e+00 0.0000000000000000e+00  6.4609953671865526e+02 9.8321819563175723e+02 0.0000000000000000e+00 9.8321819563175723e+02 6.1339264757234571e+02 0.0000000000000000e+00 0.0000000000000000e+00 0.0000000000000000e+00 0.0000000000000000e+00  2.9418608355269348e+03 1.9414394987521364e+03 0.0000000000000000e+00 1.9414394987521364e+03 1.1853047735013013e+03 0.0000000000000000e+00 0.0000000000000000e+00 0.0000000000000000e+00 0.0000000000000000e+00  2.9729870024304073e+03 2.3310135181599308e+03 0.0000000000000000e+00 2.3310135181599308e+03 2.1699989255154314e+03 0.0000000000000000e+00 0.0000000000000000e+00 0.0000000000000000e+00 0.0000000000000000e+00  1.4336334200353108e+03 1.8133674641811579e+03 0.0000000000000000e+00 1.8133674641811579e+03 2.5054774158442851e+03 0.0000000000000000e+00 0.0000000000000000e+00 0.0000000000000000e+00 0.0000000000000000e+00  5.3389455582794926e+02 8.1801338117538376e+02 0.0000000000000000e+00 8.1801338117538364e+02 2.1055927693054086e+03 0.0000000000000000e+00 0.0000000000000000e+00 0.0000000000000000e+00 0.0000000000000000e+00  7.3070418834228718e+01 1.5082469415853734e+02 0.0000000000000000e+00 1.5082469415853737e+02 1.8165079852103438e+03 0.0000000000000000e+00 0.0000000000000000e+00 0.0000000000000000e+00 0.0000000000000000e+00  7.9315970714103543e+01 -1.4413131235630868e+02 0.0000000000000000e+00 -1.4413131235630868e+02 9.1558776139580880e+02 0.0000000000000000e+00 0.0000000000000000e+00 0.0000000000000000e+00 0.0000000000000000e+00  -7.6438082292333632e+01 5.4185211427361189e+01 0.0000000000000000e+00 5.4185211427361097e+01 1.2385201606565977e+02 0.0000000000000000e+00 0.0000000000000000e+00 0.0000000000000000e+00 0.0000000000000000e+00  -5.9239035131473486e+02 3.9964154302910453e+02 0.0000000000000000e+00 3.9964154302910435e+02 -2.7619740487866591e+02 0.0000000000000000e+00 0.0000000000000000e+00 0.0000000000000000e+00 0.0000000000000000e+00  -1.1140982884448883e+03 4.2528875972710125e+02 0.0000000000000000e+00 4.2528875972710102e+02 -2.7142106599854884e+02 0.0000000000000000e+00 0.0000000000000000e+00 0.0000000000000000e+00 0.0000000000000000e+00  -1.1524055652973373e+03 2.4777050696580520e+02 0.0000000000000000e+00 2.4777050696580500e+02 -1.6975138158906873e+02 0.0000000000000000e+00 0.0000000000000000e+00 0.0000000000000000e+00 0.0000000000000000e+00  -5.2210407019563161e+02 4.4909893077934122e+01 0.0000000000000000e+00 4.4909893077934186e+01 3.4204876656229146e+01 0.0000000000000000e+00 0.0000000000000000e+00 0.0000000000000000e+00 0.0000000000000000e+00  5.6749394103098837e+02 4.4476445028030412e+02 0.0000000000000000e+00 4.4476445028030412e+02 2.8800834788707408e+02 0.0000000000000000e+00 0.0000000000000000e+00 0.0000000000000000e+00 0.0000000000000000e+00  1.1915254311790559e+03 1.0834292443786962e+03 0.0000000000000000e+00 1.0834292443786965e+03 1.3258400675029532e+03 0.0000000000000000e+00 0.0000000000000000e+00 0.0000000000000000e+00 0.0000000000000000e+00  1.0438156235487511e+03 1.6609009129203735e+03 0.0000000000000000e+00 1.6609009129203732e+03 2.8975850944518943e+03 0.0000000000000000e+00 0.0000000000000000e+00 0.0000000000000000e+00 0.0000000000000000e+00  7.0228377906606079e+02 1.0321211853838486e+03 0.0000000000000000e+00 1.0321211853838486e+03 4.2157846647137967e+03 0.0000000000000000e+00 0.0000000000000000e+00 0.0000000000000000e+00 0.0000000000000000e+00  2.1898947246010891e+02 -1.2923520908894062e+02 0.0000000000000000e+00 -1.2923520908894056e+02 1.9566032498729094e+03 0.0000000000000000e+00 0.0000000000000000e+00 0.0000000000000000e+00 0.0000000000000000e+00  -4.6203130476527519e+01 1.3403038685224670e+01 0.0000000000000000e+00 1.3403038685224660e+01 1.7058185678837772e+03 0.0000000000000000e+00 0.0000000000000000e+00 0.0000000000000000e+00 0.0000000000000000e+00  1.0617928172090294e+02 6.3236660380192493e+00 0.0000000000000000e+00 6.3236660380192635e+00 1.3231970258336105e+03 0.0000000000000000e+00 0.0000000000000000e+00 0.0000000000000000e+00 0.0000000000000000e+00  9.8253686726643199e+00 1.4412081536974634e+01 0.0000000000000000e+00 1.4412081536974624e+01 1.1193785132856274e+03 0.0000000000000000e+00 0.0000000000000000e+00 0.0000000000000000e+00 0.0000000000000000e+00  3.8011220192152699e+01 1.9576982883689656e+01 0.0000000000000000e+00 1.9576982883689652e+01 8.8279497471256377e+02 0.0000000000000000e+00 0.0000000000000000e+00 0.0000000000000000e+00 0.0000000000000000e+00  -1.4500620081748915e+01 1.2697476927607664e+01 0.0000000000000000e+00 1.2697476927607683e+01 6.6906398340073952e+02 0.0000000000000000e+00 0.0000000000000000e+00 0.0000000000000000e+00 0.0000000000000000e+00  -3.4495454011047521e+01 6.3225100489416866e+00 0.0000000000000000e+00 6.3225100489416839e+00 4.8355184770379742e+02 0.0000000000000000e+00 0.0000000000000000e+00 0.0000000000000000e+00 0.0000000000000000e+00  -6.7895099408933220e+01 4.9998703502731177e+00 0.0000000000000000e+00 4.9998703502731168e+00 3.0854080858710137e+02 0.0000000000000000e+00 0.0000000000000000e+00 0.0000000000000000e+00 0.0000000000000000e+00  -6.5862056913784215e+01 5.4083249153743527e+00 0.0000000000000000e+00 5.4083249153743518e+00 1.2978962825972840e+02 0.0000000000000000e+00 0.0000000000000000e+00 0.0000000000000000e+00 0.0000000000000000e+00  -7.9144625166574357e+01 7.8611290855343219e+00 0.0000000000000000e+00 7.8611290855343183e+00 -1.4079395440804028e+01 0.0000000000000000e+00 0.0000000000000000e+00 0.0000000000000000e+00 0.0000000000000000e+00  -1.1458465087596144e+02 6.1597126275982887e+00 0.0000000000000000e+00 6.1597126275982887e+00 -6.8722365352682843e+01 0.0000000000000000e+00 0.0000000000000000e+00 0.0000000000000000e+00 0.0000000000000000e+00  -1.4348335877118760e+02 2.3338947443123736e-01 0.0000000000000000e+00 2.3338947443124294e-01 -6.9016364401593776e+01 0.0000000000000000e+00 0.0000000000000000e+00 0.0000000000000000e+00 0.0000000000000000e+00  -1.6721458784591374e+02 1.3147898833358918e+00 0.0000000000000000e+00 1.3147898833358937e+00 -3.3884805277438161e+01 0.0000000000000000e+00 0.0000000000000000e+00 0.0000000000000000e+00 0.0000000000000000e+00  -1.8154606672994603e+02 -3.0949858847633265e+00 0.0000000000000000e+00 -3.0949858847633207e+00 3.1907822382511171e+01 0.0000000000000000e+00 0.0000000000000000e+00 0.0000000000000000e+00 0.0000000000000000e+00  -2.3207147376934108e+02 3.8871348273303536e+00 0.0000000000000000e+00 3.8871348273303106e+00 1.8580028497189127e+02 0.0000000000000000e+00 0.0000000000000000e+00 0.0000000000000000e+00 0.0000000000000000e+00  -3.4302565950914834e+02 1.4469491046275609e+01 0.0000000000000000e+00 1.4469491046275516e+01 3.9771714565830143e+02 0.0000000000000000e+00 0.0000000000000000e+00 0.0000000000000000e+00 0.0000000000000000e+00  -5.4185411890504167e+02 2.7462866252056251e+01 0.0000000000000000e+00 2.7462866252056259e+01 5.7476793799616189e+02 0.0000000000000000e+00 0.0000000000000000e+00 0.0000000000000000e+00 0.0000000000000000e+00  -6.1731130341470282e+02 -2.7279217038920407e+01 0.0000000000000000e+00 -2.7279217038920393e+01 3.8389775304568946e+02 0.0000000000000000e+00 0.0000000000000000e+00 0.0000000000000000e+00 0.0000000000000000e+00  -4.6750916062888928e+02 1.2943263139854841e+00 0.0000000000000000e+00 1.2943263139854808e+00 -4.0396217056872139e+01 0.0000000000000000e+00 0.0000000000000000e+00 0.0000000000000000e+00 0.0000000000000000e+00  -5.4388668415432585e+02 2.3357248367654481e+01 0.0000000000000000e+00 2.3357248367654492e+01 2.5127130822527911e+02 0.0000000000000000e+00 0.0000000000000000e+00 0.0000000000000000e+00 0.0000000000000000e+00  -4.4919300215339985e+02 -1.7137544694658235e+01 0.0000000000000000e+00 -1.7137544694658253e+01 5.0898849302694242e+02 0.0000000000000000e+00 0.0000000000000000e+00 0.0000000000000000e+00 0.0000000000000000e+00  -1.9697217496632121e+02 -2.6313694829630364e+01 0.0000000000000000e+00 -2.6313694829630300e+01 3.0760107606916773e+02 0.0000000000000000e+00 0.0000000000000000e+00 0.0000000000000000e+00 0.0000000000000000e+00  5.9850823493584073e+01 -1.3746003463794352e+01 0.0000000000000000e+00 -1.3746003463794359e+01 2.3260672002605625e+02 0.0000000000000000e+00 0.0000000000000000e+00 0.0000000000000000e+00 0.0000000000000000e+00  1.1094421588169342e+02 -1.0965012474646684e+01 0.0000000000000000e+00 -1.0965012474646683e+01 3.2868687897740779e+02 0.0000000000000000e+00 0.0000000000000000e+00 0.0000000000000000e+00 0.0000000000000000e+00  1.2479843898193512e+02 -8.1039830103780499e+00 0.0000000000000000e+00 -8.1039830103780570e+00 5.9324864901108936e+02 0.0000000000000000e+00 0.0000000000000000e+00 0.0000000000000000e+00 0.0000000000000000e+00  9.9161704751409715e+01 -1.7104096799197791e+01 0.0000000000000000e+00 -1.7104096799197784e+01 9.2944040005632701e+02 0.0000000000000000e+00 0.0000000000000000e+00 0.0000000000000000e+00 0.0000000000000000e+00  9.8321862254637765e+01 -1.3289940312275688e+01 0.0000000000000000e+00 -1.3289940312275679e+01 1.3197620484036863e+03 0.0000000000000000e+00 0.0000000000000000e+00 0.0000000000000000e+00 0.0000000000000000e+00  2.5275907246938594e+01 -9.0891243815594702e+00 0.0000000000000000e+00 -9.0891243815594773e+00 1.7615245426592344e+03 0.0000000000000000e+00 0.0000000000000000e+00 0.0000000000000000e+00 0.0000000000000000e+00  3.7489778180463361e+01 -1.2735533369753556e+01 0.0000000000000000e+00 -1.2735533369753561e+01 2.1266371226013980e+03 0.0000000000000000e+00 0.0000000000000000e+00 0.0000000000000000e+00 0.0000000000000000e+00  -9.9944320686852361e-01 2.0103442162273854e+01 0.0000000000000000e+00 2.0103442162273854e+01 2.4311284090651402e+03 0.0000000000000000e+00 0.0000000000000000e+00 0.0000000000000000e+00 0.0000000000000000e+00  1.8336286974367160e+00 4.6622125308104225e+00 0.0000000000000000e+00 4.6622125308104225e+00 2.5081816581179210e+03 0.0000000000000000e+00 0.0000000000000000e+00 0.0000000000000000e+00 0.0000000000000000e+00  -3.2113965194968337e+00 1.8897474210226797e+01 0.0000000000000000e+00 1.8897474210226797e+01 2.5582921276721308e+03 0.0000000000000000e+00 0.0000000000000000e+00 0.0000000000000000e+00 0.0000000000000000e+00  -2.0712026327303712e+00 5.6545945666067539e+00 0.0000000000000000e+00 5.6545945666067583e+00 2.6349797525548574e+03 0.0000000000000000e+00 0.0000000000000000e+00 0.0000000000000000e+00 0.0000000000000000e+00  4.9661063850491622e+00 7.3487601190181921e+00 0.0000000000000000e+00 7.3487601190181877e+00 2.7256427894687604e+03 0.0000000000000000e+00 0.0000000000000000e+00 0.0000000000000000e+00 0.0000000000000000e+00  -8.4160050102729289e-01 2.3375126784884163e+01 0.0000000000000000e+00 2.3375126784884113e+01 2.7581497154893136e+03 0.0000000000000000e+00 0.0000000000000000e+00 0.0000000000000000e+00 0.0000000000000000e+00  -1.3991436218580112e+01 3.4044893037921291e+01 0.0000000000000000e+00 3.4044893037921263e+01 2.9718409769431341e+03 0.0000000000000000e+00 0.0000000000000000e+00 0.0000000000000000e+00 0.0000000000000000e+00  4.3525738556500582e-01 6.2041901538758850e+01 0.0000000000000000e+00 6.2041901538758822e+01 3.2250016013338591e+03 0.0000000000000000e+00 0.0000000000000000e+00 0.0000000000000000e+00 0.0000000000000000e+00  -1.8944700276854721e+01 2.2536555281517590e+01 0.0000000000000000e+00 2.2536555281517593e+01 3.5828748603581816e+03 0.0000000000000000e+00 0.0000000000000000e+00 0.0000000000000000e+00 0.0000000000000000e+00  -4.2614412385150480e+01 -5.4134689766010482e+01 0.0000000000000000e+00 -5.4134689766010467e+01 3.5161485178773128e+03 0.0000000000000000e+00 0.0000000000000000e+00 0.0000000000000000e+00 0.0000000000000000e+00  -6.1721238453964958e+01 -2.1938503329609006e+02 0.0000000000000000e+00 -2.1938503329609006e+02 2.9987060376440877e+03 0.0000000000000000e+00 0.0000000000000000e+00 0.0000000000000000e+00 0.0000000000000000e+00  -2.5328832529897063e+01 -2.8338475654279034e+02 0.0000000000000000e+00 -2.8338475654279057e+02 2.1845031376856268e+03 0.0000000000000000e+00 0.0000000000000000e+00 0.0000000000000000e+00 0.0000000000000000e+00  1.0643383678624858e+02 4.9079941498477950e+01 0.0000000000000000e+00 4.9079941498477943e+01 1.1911335510974779e+03 0.0000000000000000e+00 0.0000000000000000e+00 0.0000000000000000e+00 0.0000000000000000e+00  7.7301476926304261e+01 1.7281262140223544e+02 0.0000000000000000e+00 1.7281262140223544e+02 1.2769910017503350e+03 0.0000000000000000e+00 0.0000000000000000e+00 0.0000000000000000e+00 0.0000000000000000e+00  2.8442355585568436e+01 2.4333952114539076e+02 0.0000000000000000e+00 2.4333952114539076e+02 2.7861636291777691e+03 0.0000000000000000e+00 0.0000000000000000e+00 0.0000000000000000e+00 0.0000000000000000e+00  -6.6960380798759846e+00 1.8621494592152703e+02 0.0000000000000000e+00 1.8621494592152703e+02 4.1538037739052834e+03 0.0000000000000000e+00 0.0000000000000000e+00 0.0000000000000000e+00 0.0000000000000000e+00  -1.8877515994171645e+01 -2.0815774668344324e+02 0.0000000000000000e+00 -2.0815774668344324e+02 4.4479349789567459e+03 0.0000000000000000e+00 0.0000000000000000e+00 0.0000000000000000e+00 0.0000000000000000e+00  7.4525685376992698e+01 -6.8532101011458408e+01 0.0000000000000000e+00 -6.8532101011458366e+01 3.0451018050892189e+03 0.0000000000000000e+00 0.0000000000000000e+00 0.0000000000000000e+00 0.0000000000000000e+00  -1.0199491002265157e+02 1.3454784575387731e+02 0.0000000000000000e+00 1.3454784575387731e+02 3.7533595972341036e+03 0.0000000000000000e+00 0.0000000000000000e+00 0.0000000000000000e+00 0.0000000000000000e+00  -5.6485413392044901e+00 -1.0155528082171035e+02 0.0000000000000000e+00 -1.0155528082171038e+02 3.6446505152098025e+03 0.0000000000000000e+00 0.0000000000000000e+00 0.0000000000000000e+00 0.0000000000000000e+00  -1.2745112758252226e+01 -1.2255246171693683e+02 0.0000000000000000e+00 -1.2255246171693663e+02 2.8073749031758675e+03 0.0000000000000000e+00 0.0000000000000000e+00 0.0000000000000000e+00 0.0000000000000000e+00  2.7674515114209633e+01 -6.6791204618643443e+00 0.0000000000000000e+00 -6.6791204618644251e+00 2.6061225449093772e+03 0.0000000000000000e+00 0.0000000000000000e+00 0.0000000000000000e+00 0.0000000000000000e+00  -1.4595877974192195e+01 -1.5697593961046743e+00 0.0000000000000000e+00 -1.5697593961046992e+00 2.5452319643614460e+03 0.0000000000000000e+00 0.0000000000000000e+00 0.0000000000000000e+00 0.0000000000000000e+