<?xml version="1.0"?>
<VTKFile type="UnstructuredGrid"  version="0.1"  >
<UnstructuredGrid>
<Piece  NumberOfPoints="3879" NumberOfCells="6881">
<Points>
<DataArray  type="Float64"  NumberOfComponents="3"  format="ascii">0.207524190028372 0.2122422770132111 0  0 0 0  1 0 0  0 1 0  1 1 0  0.6249674373315121 0.2590146544375328 0  0.204663578893616 0.322657230836866 0  0.09605577522599912 0.4018360776629776 0  0.671351124618251 0.08738059142081528 0  0.7842102907526436 0.1666439122351055 0  0.8512483166984784 0.1985391006160637 0  0.6418797837909295 0.4423157172830166 0  0.9292488447973215 0.3869277868069776 0  0.3197896119137055 0.5509935221980964 0  0.3979283685568406 0.5079871620336583 0  0.1572503457993085 0.7345153245035532 0  0.3032914287999163 0.7872981443735918 0  0.3549464687598876 0.8870324161721976 0  0.9691791685505482 0.5159450047798622 0  0.9447564590470373 0.6146164845729313 0  0.7687603548175107 0.7176858127488035 0  0.8926159261971183 0.7422924070424508 0  0.2061587782631535 0.2217389244366831 0  0.2021731605082994 0.2304662099646423 0  0.1958902278109265 0.2377171008267789 0  0.1878189860121365 0.2429041729681512 0  0.1786133191209442 0.2456072006525708 0  0.1690190155206647 0.2456072006525708 0  0.1598133486294724 0.2429041729681512 0  0.1517421068306824 0.2377171008267789 0  0.1454591741333096 0.2304662099646422 0  0.1414735563784554 0.221738924436683 0  0.1401081446132369 0.212242277013211 0  0.1414735563784555 0.202745629589739 0  0.1454591741333096 0.1940183440617798 0  0.1517421068306825 0.1867674531996431 0  0.1598133486294725 0.1815803810582709 0  0.1690190155206649 0.1788773533738513 0  0.1786133191209443 0.1788773533738514 0  0.1878189860121367 0.181580381058271 0  0.1958902278109266 0.1867674531996433 0  0.2021731605082994 0.19401834406178 0  0.2061587782631535 0.2027456295897391 0  0.03333333333333333 0 0  0.06666666666666667 0 0  0.1 0 0  0.1333333333333333 0 0  0.1666666666666667 0 0  0.2 0 0  0.2333333333333333 0 0  0.2666666666666667 0 0  0.3 0 0  0.3333333333333333 0 0  0.3666666666666666 0 0  0.4 0 0  0.4333333333333333 0 0  0.4666666666666667 0 0  0.5 0 0  0.5333333333333333 0 0  0.5666666666666667 0 0  0.6 0 0  0.6333333333333333 0 0  0.6666666666666666 0 0  0.7 0 0  0.7333333333333333 0 0  0.7666666666666667 0 0  0.8 0 0  0.8333333333333334 0 0  0.8666666666666667 0 0  0.9 0 0  0.9333333333333333 0 0  0.9666666666666667 0 0  0 0.9666666666666667 0  0 0.9333333333333333 0  0 0.9 0  0 0.8666666666666667 0  0 0.8333333333333334 0  0 0.8 0  0 0.7666666666666666 0  0 0.7333333333333334 0  0 0.7 0  0 0.6666666666666667 0  0 0.6333333333333333 0  0 0.6 0  0 0.5666666666666667 0  0 0.5333333333333333 0  0 0.5 0  0 0.4666666666666667 0  0 0.4333333333333333 0  0 0.4 0  0 0.3666666666666667 0  0 0.3333333333333334 0  0 0.3 0  0 0.2666666666666667 0  0 0.2333333333333333 0  0 0.2 0  0 0.1666666666666666 0  0 0.1333333333333333 0  0 0.09999999999999998 0  0 0.06666666666666665 0  0 0.03333333333333333 0  1 0.03333333333333333 0  1 0.06666666666666667 0  1 0.1 0  1 0.1333333333333333 0  1 0.1666666666666667 0  1 0.2 0  1 0.2333333333333333 0  1 0.2666666666666667 0  1 0.3 0  1 0.3333333333333333 0  1 0.3666666666666666 0  1 0.4 0  1 0.4333333333333333 0  1 0.4666666666666667 0  1 0.5 0  1 0.5333333333333333 0  1 0.5666666666666667 0  1 0.6 0  1 0.6333333333333333 0  1 0.6666666666666666 0  1 0.7 0  1 0.7333333333333333 0  1 0.7666666666666667 0  1 0.8 0  1 0.8333333333333334 0  1 0.8666666666666667 0  1 0.9 0  1 0.9333333333333333 0  1 0.9666666666666667 0  0.9666666666666667 1 0  0.9333333333333333 1 0  0.9 1 0  0.8666666666666667 1 0  0.8333333333333334 1 0  0.8 1 0  0.7666666666666666 1 0  0.7333333333333334 1 0  0.7 1 0  0.6666666666666667 1 0  0.6333333333333333 1 0  0.6 1 0  0.5666666666666667 1 0  0.5333333333333333 1 0  0.5 1 0  0.4666666666666667 1 0  0.4333333333333333 1 0  0.4 1 0  0.3666666666666667 1 0  0.3333333333333334 1 0  0.3 1 0  0.2666666666666667 1 0  0.2333333333333333 1 0  0.2 1 0  0.1666666666666666 1 0  0.1333333333333333 1 0  0.09999999999999998 1 0  0.06666666666666665 1 0  0.03333333333333333 1 0  0.6247072676344306 0.2689501343248463 0  0.6239274716502419 0.2788583817523955 0  0.6226301867455355 0.2887122389026952 0  0.6208189686880621 0.2984846970382296 0  0.6184987819006211 0.3081489705305245 0  0.6156759858539226 0.317678570277693 0  0.6123583176357204 0.3270473763092224 0  0.6085548707439923 0.3362297093789981 0  0.6042760701622942 0.3452004013503318 0  0.5995336437856049 0.3539348641800754 0  0.5943405902749808 0.3624091573127375 0  0.5887111434291297 0.3706000532998825 0  0.582660733170558 0.3784851014649517 0  0.5762059432532257 0.3860426894390078 0  0.5693644658076293 0.3932521023987353 0  0.5621550528479018 0.4000935798443317 0  0.5545974648738458 0.4065483697616639 0  0.5467124167087765 0.4125987800202355 0  0.5385215207216315 0.4182282268660866 0  0.5300472275889694 0.4234212803767108 0  0.5213127647592257 0.4281637067534002 0  0.512342072787892 0.4324425073350981 0  0.5031597397181163 0.4362459542268262 0  0.493790933686587 0.4395636224450283 0  0.4842613339394185 0.4423864184917269 0  0.4745970604471235 0.4447066052791678 0  0.4648246023115891 0.4465178233366412 0  0.4549707451612894 0.4478151082413475 0  0.4450624977337403 0.4485949042255363 0  0.4351270178464268 0.4488550739226177 0  0.4251915379591132 0.4485949042255363 0  0.4152832905315641 0.4478151082413475 0  0.4054294333812644 0.4465178233366411 0  0.39565697524573 0.4447066052791677 0  0.385992701753435 0.4423864184917267 0  0.3764631020062665 0.4395636224450281 0  0.3670942959747371 0.4362459542268259 0  0.3579119629049616 0.4324425073350978 0  0.3489412709336278 0.4281637067533998 0  0.3402068081038843 0.4234212803767103 0  0.3317325149712221 0.4182282268660862 0  0.3235416189840771 0.412598780020235 0  0.3156565708190078 0.4065483697616634 0  0.3080989828449519 0.4000935798443311 0  0.3008895698852244 0.3932521023987346 0  0.2940480924396279 0.3860426894390071 0  0.2875933025222958 0.3784851014649511 0  0.2815428922637242 0.3706000532998818 0  0.2759134454178731 0.3624091573127368 0  0.2707203919072489 0.3539348641800746 0  0.2659779655305596 0.3452004013503309 0  0.2616991649488616 0.3362297093789972 0  0.2578957180571336 0.3270473763092215 0  0.2545780498389315 0.3176785702776921 0  0.251755253792233 0.3081489705305236 0  0.249435067004792 0.2984846970382286 0  0.2476238489473186 0.2887122389026941 0  0.2463265640426123 0.2788583817523945 0  0.2455467680584236 0.2689501343248454 0  0.2452865983613423 0.2590146544375318 0  0.2455467680584237 0.2490791745502182 0  0.2463265640426126 0.2391709271226692 0  0.247623848947319 0.2293170699723696 0  0.2494350670047924 0.2195446118368351 0  0.2517552537922335 0.2098803383445402 0  0.2545780498389321 0.2003507385973717 0  0.2578957180571343 0.1909819325658423 0  0.2616991649488624 0.1817995994960667 0  0.2659779655305604 0.172828907524733 0  0.2707203919072498 0.1640944446949895 0  0.2759134454178741 0.1556201515623273 0  0.2815428922637251 0.1474292555751825 0  0.2875933025222969 0.1395442074101132 0  0.2940480924396291 0.1319866194360571 0  0.3008895698852256 0.1247772064763297 0  0.3080989828449531 0.1179357290307334 0  0.3156565708190092 0.1114809391134012 0  0.3235416189840785 0.1054305288548295 0  0.3317325149712236 0.09980108200897844 0  0.3402068081038856 0.0946080284983544 0  0.3489412709336291 0.08986560212166514 0  0.357911962904963 0.08558680153996717 0  0.3670942959747386 0.08178335464823916 0  0.3764631020062678 0.07846568643003712 0  0.3859927017534364 0.0756428903833386 0  0.3956569752457313 0.0733227035958976 0  0.4054294333812659 0.07151148553842429 0  0.4152832905315654 0.07021420063371797 0  0.4251915379591144 0.0694344046495293 0  0.435127017846428 0.0691742349524479 0  0.4450624977337415 0.06943440464952938 0  0.4549707451612905 0.07021420063371814 0  0.4648246023115901 0.07151148553842454 0  0.4745970604471245 0.07332270359589793 0  0.4842613339394195 0.07564289038333902 0  0.4937909336865879 0.07846568643003757 0  0.5031597397181173 0.0817833546482398 0  0.5123420727878929 0.08558680153996781 0  0.5213127647592265 0.08986560212166581 0  0.53004722758897 0.0946080284983552 0  0.5385215207216321 0.09980108200897933 0  0.5467124167087771 0.1054305288548305 0  0.5545974648738462 0.1114809391134021 0  0.5621550528479023 0.1179357290307343 0  0.5693644658076298 0.1247772064763308 0  0.576205943253226 0.1319866194360582 0  0.5826607331705582 0.1395442074101142 0  0.5887111434291299 0.1474292555751835 0  0.594340590274981 0.1556201515623285 0  0.5995336437856051 0.1640944446949906 0  0.6042760701622945 0.172828907524734 0  0.6085548707439925 0.1817995994960678 0  0.6123583176357205 0.1909819325658435 0  0.6156759858539227 0.2003507385973728 0  0.6184987819006211 0.2098803383445412 0  0.6208189686880622 0.2195446118368362 0  0.6226301867455355 0.2293170699723706 0  0.6239274716502419 0.2391709271226702 0  0.6247072676344306 0.2490791745502192 0  0.203885768735257 0.3325402459548524 0  0.2015714905276826 0.3421799084407872 0  0.1977777294810124 0.3513388578120612 0  0.1925979005829864 0.3597915703383434 0  0.1861595484119405 0.3673299121842922 0  0.1786212065659918 0.373768264355338 0  0.1701684940397096 0.378948093253364 0  0.1610095446684356 0.3827418543000342 0  0.1513698821825007 0.3850561325076086 0  0.1414868670645144 0.3858339426659677 0  0.1316038519465281 0.3850561325076086 0  0.1219641894605933 0.3827418543000343 0  0.1128052400893193 0.378948093253364 0  0.1043525275630371 0.3737682643553381 0  0.09681418571708833 0.3673299121842922 0  0.09037583354604248 0.3597915703383434 0  0.08519600464801645 0.3513388578120612 0  0.08140224360134621 0.3421799084407872 0  0.07908796539377183 0.3325402459548523 0  0.07831015523541281 0.3226572308368659 0  0.07908796539377186 0.3127742157188796 0  0.08140224360134626 0.3031345532329447 0  0.08519600464801655 0.2939756038616707 0  0.0903758335460426 0.2855228913353884 0  0.0968141857
[...]
<PointData  Tensors="$\sigma$"> 
<DataArray  type="Float64"  Name="$\sigma$"  NumberOfComponents="9" format="ascii">1.4759584475423466e+02 3.6163022485386207e+01 0.0000000000000000e+00 3.6163022485385980e+01 1.0930296371058934e+04 0.0000000000000000e+00 0.0000000000000000e+00 0.0000000000000000e+00 0.0000000000000000e+00  1.3020307282103115e+03 1.0729649722407885e+02 0.0000000000000000e+00 1.0729649722407902e+02 5.4025199644893082e+03 0.0000000000000000e+00 0.0000000000000000e+00 0.0000000000000000e+00 0.0000000000000000e+00  -2.6689045399729327e+01 -2.2622005431390551e+01 0.0000000000000000e+00 -2.2622005431390502e+01 5.6436955142306606e+03 0.0000000000000000e+00 0.0000000000000000e+00 0.0000000000000000e+00 0.0000000000000000e+00  7.7776722106023266e+00 -4.8632155043166385e+00 0.0000000000000000e+00 -4.8632155043166758e+00 5.6122421801583232e+03 0.0000000000000000e+00 0.0000000000000000e+00 0.0000000000000000e+00 0.0000000000000000e+00  8.1015726456550503e+00 1.1285978859856927e+01 0.0000000000000000e+00 1.1285978859856947e+01 5.1161794512370579e+03 0.0000000000000000e+00 0.0000000000000000e+00 0.0000000000000000e+00 0.0000000000000000e+00  7.9750418686654371e+01 7.9170196831799174e+01 0.0000000000000000e+00 7.9170196831800510e+01 1.0944213257120242e+04 0.0000000000000000e+00 0.0000000000000000e+00 0.0000000000000000e+00 0.0000000000000000e+00  -9.5270650697823342e+01 2.7291345608040251e+02 0.0000000000000000e+00 2.7291345608040319e+02 1.7665833689271022e+02 0.0000000000000000e+00 0.0000000000000000e+00 0.0000000000000000e+00 0.0000000000000000e+00  6.4304153722804040e+02 3.8848579404819304e+02 0.0000000000000000e+00 3.8848579404819304e+02 1.1494888149850240e+04 0.0000000000000000e+00 0.0000000000000000e+00 0.0000000000000000e+00 0.0000000000000000e+00  1.8061191433196478e+02 -3.3169296864257666e+02 0.0000000000000000e+00 -3.3169296864257649e+02 1.0954833505358079e+04 0.0000000000000000e+00 0.0000000000000000e+00 0.0000000000000000e+00 0.0000000000000000e+00  -3.1300495431464554e+02 1.1505125118662475e+02 0.0000000000000000e+00 1.1505125118662551e+02 -2.2113249749592242e+02 0.0000000000000000e+00 0.0000000000000000e+00 0.0000000000000000e+00 0.0000000000000000e+00  -5.7438448066296459e+00 -5.3389844690084423e+01 0.0000000000000000e+00 -5.3389844690084374e+01 -2.8703831295235892e+02 0.0000000000000000e+00 0.0000000000000000e+00 0.0000000000000000e+00 0.0000000000000000e+00  1.2610520865301855e+02 4.4293268178049641e+02 0.0000000000000000e+00 4.4293268178049811e+02 6.0440965929091471e+03 0.0000000000000000e+00 0.0000000000000000e+00 0.0000000000000000e+00 0.0000000000000000e+00  4.4034673885073011e+02 -3.9285148046856704e+00 0.0000000000000000e+00 -3.9285148046862002e+00 1.2476283708769330e+04 0.0000000000000000e+00 0.0000000000000000e+00 0.0000000000000000e+00 0.0000000000000000e+00  5.9281233978927986e+01 1.1409086409060473e+02 0.0000000000000000e+00 1.1409086409060514e+02 1.1115400905122135e+04 0.0000000000000000e+00 0.0000000000000000e+00 0.0000000000000000e+00 0.0000000000000000e+00  -1.0198859045040058e+02 -2.1402437113545420e+02 0.0000000000000000e+00 -2.1402437113545298e+02 -1.3260500110146775e+03 0.0000000000000000e+00 0.0000000000000000e+00 0.0000000000000000e+00 0.0000000000000000e+00  -2.6250279979019024e+02 -2.0616445681720006e+02 0.0000000000000000e+00 -2.0616445681720054e+02 -1.0550911431782042e+03 0.0000000000000000e+00 0.0000000000000000e+00 0.0000000000000000e+00 0.0000000000000000e+00  4.9069358784936782e+01 -1.2693510283791366e+02 0.0000000000000000e+00 -1.2693510283791349e+02 6.9962692308056976e+03 0.0000000000000000e+00 0.0000000000000000e+00 0.0000000000000000e+00 0.0000000000000000e+00  1.2644610457157464e+02 1.0311531967463053e+02 0.0000000000000000e+00 1.0311531967462997e+02 8.5065089791659921e+03 0.0000000000000000e+00 0.0000000000000000e+00 0.0000000000000000e+00 0.0000000000000000e+00  5.4417537108349015e+03 3.1100131134057347e+02 0.0000000000000000e+00 3.1100131134057369e+02 1.7811361593982587e+04 0.0000000000000000e+00 0.0000000000000000e+00 0.0000000000000000e+00 0.0000000000000000e+00  5.0154654208061822e+02 -2.4131355733372664e+02 0.0000000000000000e+00 -2.4131355733372655e+02 1.2870332370523542e+04 0.0000000000000000e+00 0.0000000000000000e+00 0.0000000000000000e+00 0.0000000000000000e+00  4.4550473256690729e+01 1.6978805828440696e+02 0.0000000000000000e+00 1.6978805828440616e+02 8.4329094389178244e+03 0.0000000000000000e+00 0.0000000000000000e+00 0.0000000000000000e+00 0.0000000000000000e+00  1.2311507007572726e+02 2.6300367789752929e+01 0.0000000000000000e+00 2.6300367789753015e+01 4.2602520142446847e+03 0.0000000000000000e+00 0.0000000000000000e+00 0.0000000000000000e+00 0.0000000000000000e+00  5.4857726184016667e+02 -1.5015869592275139e+03 0.0000000000000000e+00 -1.5015869592275139e+03 6.8615354569959918e+03 0.0000000000000000e+00 0.0000000000000000e+00 0.0000000000000000e+00 0.0000000000000000e+00  -2.6002833203335280e+02 -4.8263482463997030e+02 0.0000000000000000e+00 -4.8263482463997053e+02 1.8373723512741624e+03 0.0000000000000000e+00 0.0000000000000000e+00 0.0000000000000000e+00 0.0000000000000000e+00  -1.9897839434328698e+03 1.2851828528775300e+03 0.0000000000000000e+00 1.2851828528775318e+03 -8.8243828405544116e+02 0.0000000000000000e+00 0.0000000000000000e+00 0.0000000000000000e+00 0.0000000000000000e+00  -4.2904133482602283e+03 1.5480434681814297e+03 0.0000000000000000e+00 1.5480434681814329e+03 -8.5079783333740352e+02 0.0000000000000000e+00 0.0000000000000000e+00 0.0000000000000000e+00 0.0000000000000000e+00  -3.2558219075413313e+03 8.6628604725158527e+02 0.0000000000000000e+00 8.6628604725158266e+02 -5.5060572154144893e+02 0.0000000000000000e+00 0.0000000000000000e+00 0.0000000000000000e+00 0.0000000000000000e+00  1.4129807397847574e+03 2.2625851992732128e+03 0.0000000000000000e+00 2.2625851992732123e+03 1.4344362571274328e+03 0.0000000000000000e+00 0.0000000000000000e+00 0.0000000000000000e+00 0.0000000000000000e+00  7.2543265639459914e+03 4.6715965468210352e+03 0.0000000000000000e+00 4.6715965468210343e+03 2.6134628187737894e+03 0.0000000000000000e+00 0.0000000000000000e+00 0.0000000000000000e+00 0.0000000000000000e+00  7.1975265035548819e+03 5.6676688322052414e+03 0.0000000000000000e+00 5.6676688322052460e+03 5.2616437038253171e+03 0.0000000000000000e+00 0.0000000000000000e+00 0.0000000000000000e+00 0.0000000000000000e+00  3.2017729486855246e+03 4.3272592465281432e+03 0.0000000000000000e+00 4.3272592465281459e+03 6.0573685899755446e+03 0.0000000000000000e+00 0.0000000000000000e+00 0.0000000000000000e+00 0.0000000000000000e+00  1.1436461266059537e+03 1.9041975572699466e+03 0.0000000000000000e+00 1.9041975572699482e+03 5.0430233134278824e+03 0.0000000000000000e+00 0.0000000000000000e+00 0.0000000000000000e+00 0.0000000000000000e+00  6.6623875671379537e+01 3.0415420629375393e+02 0.0000000000000000e+00 3.0415420629375427e+02 4.2728474873517180e+03 0.0000000000000000e+00 0.0000000000000000e+00 0.0000000000000000e+00 0.0000000000000000e+00  1.8582101530331576e+02 -3.4018167445976110e+02 0.0000000000000000e+00 -3.4018167445976098e+02 2.0133174195323384e+03 0.0000000000000000e+00 0.0000000000000000e+00 0.0000000000000000e+00 0.0000000000000000e+00  -2.0317023433615543e+02 1.6106728933032909e+02 0.0000000000000000e+00 1.6106728933032883e+02 1.5123190931150717e+02 0.0000000000000000e+00 0.0000000000000000e+00 0.0000000000000000e+00 0.0000000000000000e+00  -1.3766322706131425e+03 1.0101819671781356e+03 0.0000000000000000e+00 1.0101819671781383e+03 -7.5933475685273766e+02 0.0000000000000000e+00 0.0000000000000000e+00 0.0000000000000000e+00 0.0000000000000000e+00  -2.6754481200422442e+03 1.0757357410686161e+03 0.0000000000000000e+00 1.0757357410686143e+03 -6.7911743073145169e+02 0.0000000000000000e+00 0.0000000000000000e+00 0.0000000000000000e+00 0.0000000000000000e+00  -2.7664264536536994e+03 5.6968934082691305e+02 0.0000000000000000e+00 5.6968934082691260e+02 -3.5694272495047522e+02 0.0000000000000000e+00 0.0000000000000000e+00 0.0000000000000000e+00 0.0000000000000000e+00  -1.2570583028028993e+03 2.1264258076716231e+01 0.0000000000000000e+00 2.1264258076716043e+01 8.3835326616914202e+01 0.0000000000000000e+00 0.0000000000000000e+00 0.0000000000000000e+00 0.0000000000000000e+00  1.4271951235321133e+03 9.9241902785237687e+02 0.0000000000000000e+00 9.9241902785237528e+02 5.5982167761964786e+02 0.0000000000000000e+00 0.0000000000000000e+00 0.0000000000000000e+00 0.0000000000000000e+00  2.9185932136875167e+03 2.5724677562706052e+03 0.0000000000000000e+00 2.5724677562706079e+03 2.9405716931305856e+03 0.0000000000000000e+00 0.0000000000000000e+00 0.0000000000000000e+00 0.0000000000000000e+00  2.4667459770627083e+03 3.9574411869459909e+03 0.0000000000000000e+00 3.9574411869459964e+03 6.6472619678982901e+03 0.0000000000000000e+00 0.0000000000000000e+00 0.0000000000000000e+00 0.0000000000000000e+00  1.5042349271145331e+03 2.5283763152024408e+03 0.0000000000000000e+00 2.5283763152024417e+03 1.0012645407350194e+04 0.0000000000000000e+00 0.0000000000000000e+00 0.0000000000000000e+00 0.0000000000000000e+00  4.4562018019116027e+02 -3.1945120094504534e+02 0.0000000000000000e+00 -3.1945120094504557e+02 4.5373703090821291e+03 0.0000000000000000e+00 0.0000000000000000e+00 0.0000000000000000e+00 0.0000000000000000e+00  -8.9227654259194395e+01 5.0159053282278968e+01 0.0000000000000000e+00 5.0159053282278897e+01 3.9738630301595340e+03 0.0000000000000000e+00 0.0000000000000000e+00 0.0000000000000000e+00 0.0000000000000000e+00  2.6976780197948534e+02 -6.5597969565747070e+00 0.0000000000000000e+00 -6.5597969565746892e+00 3.0479879030716893e+03 0.0000000000000000e+00 0.0000000000000000e+00 0.0000000000000000e+00 0.0000000000000000e+00  -1.8295749536337940e+01 4.2675671308452372e+01 0.0000000000000000e+00 4.2675671308452358e+01 2.5652057367820162e+03 0.0000000000000000e+00 0.0000000000000000e+00 0.0000000000000000e+00 0.0000000000000000e+00  8.7385946227451015e+01 3.8399948844974418e+01 0.0000000000000000e+00 3.8399948844974418e+01 2.0280798491050202e+03 0.0000000000000000e+00 0.0000000000000000e+00 0.0000000000000000e+00 0.0000000000000000e+00  -6.7013355571701226e+01 2.6754247435095099e+01 0.0000000000000000e+00 2.6754247435095103e+01 1.5417426829477288e+03 0.0000000000000000e+00 0.0000000000000000e+00 0.0000000000000000e+00 0.0000000000000000e+00  -1.0401242610095099e+02 1.1013682293350623e+01 0.0000000000000000e+00 1.1013682293350683e+01 1.1176861478197625e+03 0.0000000000000000e+00 0.0000000000000000e+00 0.0000000000000000e+00 0.0000000000000000e+00  -1.9096282139925609e+02 8.4839106738298895e+00 0.0000000000000000e+00 8.4839106738298966e+00 6.9986890109551325e+02 0.0000000000000000e+00 0.0000000000000000e+00 0.0000000000000000e+00 0.0000000000000000e+00  -1.8825173930320861e+02 9.5907283915482857e+00 0.0000000000000000e+00 9.5907283915482733e+00 2.8569928488545577e+02 0.0000000000000000e+00 0.0000000000000000e+00 0.0000000000000000e+00 0.0000000000000000e+00  -2.2518813592134546e+02 1.5138825129725504e+01 0.0000000000000000e+00 1.5138825129725452e+01 -3.9351714094343137e+01 0.0000000000000000e+00 0.0000000000000000e+00 0.0000000000000000e+00 0.0000000000000000e+00  -3.1013154412011914e+02 1.2293234682392612e+01 0.0000000000000000e+00 1.2293234682392592e+01 -1.6925508778725958e+02 0.0000000000000000e+00 0.0000000000000000e+00 0.0000000000000000e+00 0.0000000000000000e+00  -3.8050361263140576e+02 1.6371871561957332e-01 0.0000000000000000e+00 1.6371871561961651e-01 -1.6993964307384792e+02 0.0000000000000000e+00 0.0000000000000000e+00 0.0000000000000000e+00 0.0000000000000000e+00  -4.3635573522031427e+02 3.7091896921619818e+00 0.0000000000000000e+00 3.7091896921619734e+00 -8.8028696787737289e+01 0.0000000000000000e+00 0.0000000000000000e+00 0.0000000000000000e+00 0.0000000000000000e+00  -4.7552756291099973e+02 -7.5588468899656860e+00 0.0000000000000000e+00 -7.5588468899656416e+00 7.3923674106720341e+01 0.0000000000000000e+00 0.0000000000000000e+00 0.0000000000000000e+00 0.0000000000000000e+00  -5.8657641452170355e+02 5.9712382199143637e+00 0.0000000000000000e+00 5.9712382199141949e+00 4.3642941370924291e+02 0.0000000000000000e+00 0.0000000000000000e+00 0.0000000000000000e+00 0.0000000000000000e+00  -8.7346444358364806e+02 2.2905937180715242e+01 0.0000000000000000e+00 2.2905937180715298e+01 9.4749663075099454e+02 0.0000000000000000e+00 0.0000000000000000e+00 0.0000000000000000e+00 0.0000000000000000e+00  -1.3305197008225223e+03 6.1404618686341202e+01 0.0000000000000000e+00 6.1404618686341266e+01 1.3850107774242379e+03 0.0000000000000000e+00 0.0000000000000000e+00 0.0000000000000000e+00 0.0000000000000000e+00  -1.5245254401870145e+03 -6.4140569161819826e+01 0.0000000000000000e+00 -6.4140569161819826e+01 9.1357726472551997e+02 0.0000000000000000e+00 0.0000000000000000e+00 0.0000000000000000e+00 0.0000000000000000e+00  -1.1713869203895774e+03 1.0773100511676100e+01 0.0000000000000000e+00 1.0773100511676098e+01 -1.2820202069761098e+02 0.0000000000000000e+00 0.0000000000000000e+00 0.0000000000000000e+00 0.0000000000000000e+00  -1.3451872591509052e+03 5.3684210190919295e+01 0.0000000000000000e+00 5.3684210190919394e+01 5.6685002271805877e+02 0.0000000000000000e+00 0.0000000000000000e+00 0.0000000000000000e+00 0.0000000000000000e+00  -1.1132426698067159e+03 -4.3244459039392517e+01 0.0000000000000000e+00 -4.3244459039392460e+01 1.2066893071619672e+03 0.0000000000000000e+00 0.0000000000000000e+00 0.0000000000000000e+00 0.0000000000000000e+00  -5.2091191878516440e+02 -5.1343868696953514e+01 0.0000000000000000e+00 -5.1343868696954168e+01 7.2370706544940685e+02 0.0000000000000000e+00 0.0000000000000000e+00 0.0000000000000000e+00 0.0000000000000000e+00  9.9195212531496693e+01 -2.7610664427437687e+01 0.0000000000000000e+00 -2.7610664427437214e+01 5.3025378453188262e+02 0.0000000000000000e+00 0.0000000000000000e+00 0.0000000000000000e+00 0.0000000000000000e+00  2.1989515023886455e+02 -1.6531385103303780e+01 0.0000000000000000e+00 -1.6531385103303965e+01 7.1414446603615283e+02 0.0000000000000000e+00 0.0000000000000000e+00 0.0000000000000000e+00 0.0000000000000000e+00  2.6593206714301346e+02 -1.3535605767915969e+01 0.0000000000000000e+00 -1.3535605767915929e+01 1.3102032297376452e+03 0.0000000000000000e+00 0.0000000000000000e+00 0.0000000000000000e+00 0.0000000000000000e+00  2.0805158832044731e+02 -2.8335182359500820e+01 0.0000000000000000e+00 -2.8335182359500859e+01 2.0621424934173356e+03 0.0000000000000000e+00 0.0000000000000000e+00 0.0000000000000000e+00 0.0000000000000000e+00  2.2490690010632702e+02 -2.5616558568477881e+01 0.0000000000000000e+00 -2.5616558568477821e+01 2.9518652110801163e+03 0.0000000000000000e+00 0.0000000000000000e+00 0.0000000000000000e+00 0.0000000000000000e+00  4.8423373069236405e+01 -1.7398435418411832e+01 0.0000000000000000e+00 -1.7398435418411939e+01 3.9418824047829912e+03 0.0000000000000000e+00 0.0000000000000000e+00 0.0000000000000000e+00 0.0000000000000000e+00  8.5214120823596133e+01 -2.7561127867112472e+01 0.0000000000000000e+00 -2.7561127867112518e+01 4.8151018453837332e+03 0.0000000000000000e+00 0.0000000000000000e+00 0.0000000000000000e+00 0.0000000000000000e+00  4.4010530899954006e+00 3.9426869743001269e+01 0.0000000000000000e+00 3.9426869743001284e+01 5.6587261147440340e+03 0.0000000000000000e+00 0.0000000000000000e+00 0.0000000000000000e+00 0.0000000000000000e+00  1.3813790808928126e+00 1.5711112765954770e+01 0.0000000000000000e+00 1.5711112765954864e+01 5.8574314847874202e+03 0.0000000000000000e+00 0.0000000000000000e+00 0.0000000000000000e+00 0.0000000000000000e+00  -3.4656331214729419e+00 3.1834990405828965e+01 0.0000000000000000e+00 3.1834990405829252e+01 5.9734638310286737e+03 0.0000000000000000e+00 0.0000000000000000e+00 0.0000000000000000e+00 0.0000000000000000e+00  -1.0881718242647274e+01 1.4215164766286483e+01 0.0000000000000000e+00 1.4215164766286467e+01 6.1508647079424481e+03 0.0000000000000000e+00 0.0000000000000000e+00 0.0000000000000000e+00 0.0000000000000000e+00  2.0382581598058092e+01 8.9040513320603960e+00 0.0000000000000000e+00 8.9040513320603640e+00 6.3884587151570395e+03 0.0000000000000000e+00 0.0000000000000000e+00 0.0000000000000000e+00 0.0000000000000000e+00  -5.2063026851285299e+00 5.9490995926709076e+01 0.0000000000000000e+00 5.9490995926708820e+01 6.4784697382521708e+03 0.0000000000000000e+00 0.0000000000000000e+00 0.0000000000000000e+00 0.0000000000000000e+00  -3.8124027878904222e+01 7.2926937108671751e+01 0.0000000000000000e+00 7.2926937108671567e+01 7.0175282654443017e+03 0.0000000000000000e+00 0.0000000000000000e+00 0.0000000000000000e+00 0.0000000000000000e+00  -2.3475797006647876e+00 1.3676260995384357e+02 0.0000000000000000e+00 1.3676260995384354e+02 7.6778415131171660e+03 0.0000000000000000e+00 0.0000000000000000e+00 0.0000000000000000e+00 0.0000000000000000e+00  -2.4835834268928600e+01 5.8517720402821588e+01 0.0000000000000000e+00 5.8517720402821254e+01 8.5868776047446026e+03 0.0000000000000000e+00 0.0000000000000000e+00 0.0000000000000000e+00 0.0000000000000000e+00  -4.2672191994651726e+01 -7.9511640361565298e+01 0.0000000000000000e+00 -7.9511640361565426e+01 8.6389419416626897e+03 0.0000000000000000e+00 0.0000000000000000e+00 0.0000000000000000e+00 0.0000000000000000e+00  -1.5086434515165826e+02 -3.8003102870225371e+02 0.0000000000000000e+00 -3.8003102870225331e+02 7.6244248624489946e+03 0.0000000000000000e+00 0.0000000000000000e+00 0.0000000000000000e+00 0.0000000000000000e+00  -1.2162266622502698e+02 -7.9606101770891667e+02 0.0000000000000000e+00 -7.9606101770891655e+02 5.5889370354796965e+03 0.0000000000000000e+00 0.0000000000000000e+00 0.0000000000000000e+00 0.0000000000000000e+00  2.1935266902067627e+02 5.0558274103376007e+01 0.0000000000000000e+00 5.0558274103375950e+01 2.2816226006557513e+03 0.0000000000000000e+00 0.0000000000000000e+00 0.0000000000000000e+00 0.0000000000000000e+00  2.1212919183394112e+02 6.3233201474904342e+02 0.0000000000000000e+00 6.3233201474904286e+02 2.6934720395206614e+03 0.0000000000000000e+00 0.0000000000000000e+00 0.0000000000000000e+00 0.0000000000000000e+00  5.5570212759165244e+01 5.1798009242840385e+02 0.0000000000000000e+00 5.1798009242840271e+02 7.1668028979690625e+03 0.0000000000000000e+00 0.0000000000000000e+00 0.0000000000000000e+00 0.0000000000000000e+00  1.1802657092085125e+01 3.0636268087370200e+02 0.0000000000000000e+00 3.0636268087370024e+02 1.0292305146065326e+04 0.0000000000000000e+00 0.0000000000000000e+00 0.0000000000000000e+00 0.0000000000000000e+00  5.6835236346766671e+01 -5.0293519415002544e+02 0.0000000000000000e+00 -5.0293519415002589e+02 1.0925890857607541e+04 0.0000000000000000e+00 0.0000000000000000e+00 0.0000000000000000e+00 0.0000000000000000e+00  -4.1178452458577016e+02 -2.2795258987877696e+02 0.0000000000000000e+00 -2.2795258987877767e+02 6.8157598215924818e+03 0.0000000000000000e+00 0.0000000000000000e+00 0.0000000000000000e+00 0.0000000000000000e+00  -2.9020183785644872e+02 3.3434029316415393e+02 0.0000000000000000e+00 3.3434029316415410e+02 8.9930721455497096e+03 0.0000000000000000e+00 0.0000000000000000e+00 0.0000000000000000e+00 0.0000000000000000e+00  3.5200778832206794e+01 -2.2507398171310280e+02 0.0000000000000000e+00 -2.2507398171310237e+02 8.5932227056159209e+03 0.0000000000000000e+00 0.0000000000000000e+00 0.0000000000000000e+00 0.0000000000000000e+00  -7.4506631585933206e+01 -2.7063716762509750e+02 0.0000000000000000e+00 -2.7063716762509750e+02 6.5441381112229355e+03 0.0000000000000000e+00 0.0000000000000000e+00 0.0000000000000000e+00 0.0000000000000000e+00  6.8752264607887568e+01 -5.5453192248676553e+00 0.0000000000000000e+00 -5.5453192248678702e+00 6.0538972200079197e+03 0.0000000000000000e+00 0.0000000000000000e+00 0.0000000000000000e+00 0.0000000000000000e+00  -5.0832779122958392e+01 -1.5120276788710850e+01 0.0000000000000000e+00 -1.5120276788710809e+01 5.8686999162273914e+03 0.0000000000000000e+00 0.0000000000000000e+00 0.0000000000000000e+00 0.0000000000000000