<?xml version="1.0"?>
<VTKFile type="UnstructuredGrid"  version="0.1"  >
<UnstructuredGrid>
<Piece  NumberOfPoints="3879" NumberOfCells="6881">
<Points>
<DataArray  type="Float64"  NumberOfComponents="3"  format="ascii">0.207524190028372 0.2122422770132111 0  0 0 0  1 0 0  0 1 0  1 1 0  0.6249674373315121 0.2590146544375328 0  0.204663578893616 0.322657230836866 0  0.09605577522599912 0.4018360776629776 0  0.671351124618251 0.08738059142081528 0  0.7842102907526436 0.1666439122351055 0  0.8512483166984784 0.1985391006160637 0  0.6418797837909295 0.4423157172830166 0  0.9292488447973215 0.3869277868069776 0  0.3197896119137055 0.5509935221980964 0  0.3979283685568406 0.5079871620336583 0  0.1572503457993085 0.7345153245035532 0  0.3032914287999163 0.7872981443735918 0  0.3549464687598876 0.8870324161721976 0  0.9691791685505482 0.5159450047798622 0  0.9447564590470373 0.6146164845729313 0  0.7687603548175107 0.7176858127488035 0  0.8926159261971183 0.7422924070424508 0  0.2061587782631535 0.2217389244366831 0  0.2021731605082994 0.2304662099646423 0  0.1958902278109265 0.2377171008267789 0  0.1878189860121365 0.2429041729681512 0  0.1786133191209442 0.2456072006525708 0  0.1690190155206647 0.2456072006525708 0  0.1598133486294724 0.2429041729681512 0  0.1517421068306824 0.2377171008267789 0  0.1454591741333096 0.2304662099646422 0  0.1414735563784554 0.221738924436683 0  0.1401081446132369 0.212242277013211 0  0.1414735563784555 0.202745629589739 0  0.1454591741333096 0.1940183440617798 0  0.1517421068306825 0.1867674531996431 0  0.1598133486294725 0.1815803810582709 0  0.1690190155206649 0.1788773533738513 0  0.1786133191209443 0.1788773533738514 0  0.1878189860121367 0.181580381058271 0  0.1958902278109266 0.1867674531996433 0  0.2021731605082994 0.19401834406178 0  0.2061587782631535 0.2027456295897391 0  0.03333333333333333 0 0  0.06666666666666667 0 0  0.1 0 0  0.1333333333333333 0 0  0.1666666666666667 0 0  0.2 0 0  0.2333333333333333 0 0  0.2666666666666667 0 0  0.3 0 0  0.3333333333333333 0 0  0.3666666666666666 0 0  0.4 0 0  0.4333333333333333 0 0  0.4666666666666667 0 0  0.5 0 0  0.5333333333333333 0 0  0.5666666666666667 0 0  0.6 0 0  0.6333333333333333 0 0  0.6666666666666666 0 0  0.7 0 0  0.7333333333333333 0 0  0.7666666666666667 0 0  0.8 0 0  0.8333333333333334 0 0  0.8666666666666667 0 0  0.9 0 0  0.9333333333333333 0 0  0.9666666666666667 0 0  0 0.9666666666666667 0  0 0.9333333333333333 0  0 0.9 0  0 0.8666666666666667 0  0 0.8333333333333334 0  0 0.8 0  0 0.7666666666666666 0  0 0.7333333333333334 0  0 0.7 0  0 0.6666666666666667 0  0 0.6333333333333333 0  0 0.6 0  0 0.5666666666666667 0  0 0.5333333333333333 0  0 0.5 0  0 0.4666666666666667 0  0 0.4333333333333333 0  0 0.4 0  0 0.3666666666666667 0  0 0.3333333333333334 0  0 0.3 0  0 0.2666666666666667 0  0 0.2333333333333333 0  0 0.2 0  0 0.1666666666666666 0  0 0.1333333333333333 0  0 0.09999999999999998 0  0 0.06666666666666665 0  0 0.03333333333333333 0  1 0.03333333333333333 0  1 0.06666666666666667 0  1 0.1 0  1 0.1333333333333333 0  1 0.1666666666666667 0  1 0.2 0  1 0.2333333333333333 0  1 0.2666666666666667 0  1 0.3 0  1 0.3333333333333333 0  1 0.3666666666666666 0  1 0.4 0  1 0.4333333333333333 0  1 0.4666666666666667 0  1 0.5 0  1 0.5333333333333333 0  1 0.5666666666666667 0  1 0.6 0  1 0.6333333333333333 0  1 0.6666666666666666 0  1 0.7 0  1 0.7333333333333333 0  1 0.7666666666666667 0  1 0.8 0  1 0.8333333333333334 0  1 0.8666666666666667 0  1 0.9 0  1 0.9333333333333333 0  1 0.9666666666666667 0  0.9666666666666667 1 0  0.9333333333333333 1 0  0.9 1 0  0.8666666666666667 1 0  0.8333333333333334 1 0  0.8 1 0  0.7666666666666666 1 0  0.7333333333333334 1 0  0.7 1 0  0.6666666666666667 1 0  0.6333333333333333 1 0  0.6 1 0  0.5666666666666667 1 0  0.5333333333333333 1 0  0.5 1 0  0.4666666666666667 1 0  0.4333333333333333 1 0  0.4 1 0  0.3666666666666667 1 0  0.3333333333333334 1 0  0.3 1 0  0.2666666666666667 1 0  0.2333333333333333 1 0  0.2 1 0  0.1666666666666666 1 0  0.1333333333333333 1 0  0.09999999999999998 1 0  0.06666666666666665 1 0  0.03333333333333333 1 0  0.6247072676344306 0.2689501343248463 0  0.6239274716502419 0.2788583817523955 0  0.6226301867455355 0.2887122389026952 0  0.6208189686880621 0.2984846970382296 0  0.6184987819006211 0.3081489705305245 0  0.6156759858539226 0.317678570277693 0  0.6123583176357204 0.3270473763092224 0  0.6085548707439923 0.3362297093789981 0  0.6042760701622942 0.3452004013503318 0  0.5995336437856049 0.3539348641800754 0  0.5943405902749808 0.3624091573127375 0  0.5887111434291297 0.3706000532998825 0  0.582660733170558 0.3784851014649517 0  0.5762059432532257 0.3860426894390078 0  0.5693644658076293 0.3932521023987353 0  0.5621550528479018 0.4000935798443317 0  0.5545974648738458 0.4065483697616639 0  0.5467124167087765 0.4125987800202355 0  0.5385215207216315 0.4182282268660866 0  0.5300472275889694 0.4234212803767108 0  0.5213127647592257 0.4281637067534002 0  0.512342072787892 0.4324425073350981 0  0.5031597397181163 0.4362459542268262 0  0.493790933686587 0.4395636224450283 0  0.4842613339394185 0.4423864184917269 0  0.4745970604471235 0.4447066052791678 0  0.4648246023115891 0.4465178233366412 0  0.4549707451612894 0.4478151082413475 0  0.4450624977337403 0.4485949042255363 0  0.4351270178464268 0.4488550739226177 0  0.4251915379591132 0.4485949042255363 0  0.4152832905315641 0.4478151082413475 0  0.4054294333812644 0.4465178233366411 0  0.39565697524573 0.4447066052791677 0  0.385992701753435 0.4423864184917267 0  0.3764631020062665 0.4395636224450281 0  0.3670942959747371 0.4362459542268259 0  0.3579119629049616 0.4324425073350978 0  0.3489412709336278 0.4281637067533998 0  0.3402068081038843 0.4234212803767103 0  0.3317325149712221 0.4182282268660862 0  0.3235416189840771 0.412598780020235 0  0.3156565708190078 0.4065483697616634 0  0.3080989828449519 0.4000935798443311 0  0.3008895698852244 0.3932521023987346 0  0.2940480924396279 0.3860426894390071 0  0.2875933025222958 0.3784851014649511 0  0.2815428922637242 0.3706000532998818 0  0.2759134454178731 0.3624091573127368 0  0.2707203919072489 0.3539348641800746 0  0.2659779655305596 0.3452004013503309 0  0.2616991649488616 0.3362297093789972 0  0.2578957180571336 0.3270473763092215 0  0.2545780498389315 0.3176785702776921 0  0.251755253792233 0.3081489705305236 0  0.249435067004792 0.2984846970382286 0  0.2476238489473186 0.2887122389026941 0  0.2463265640426123 0.2788583817523945 0  0.2455467680584236 0.2689501343248454 0  0.2452865983613423 0.2590146544375318 0  0.2455467680584237 0.2490791745502182 0  0.2463265640426126 0.2391709271226692 0  0.247623848947319 0.2293170699723696 0  0.2494350670047924 0.2195446118368351 0  0.2517552537922335 0.2098803383445402 0  0.2545780498389321 0.2003507385973717 0  0.2578957180571343 0.1909819325658423 0  0.2616991649488624 0.1817995994960667 0  0.2659779655305604 0.172828907524733 0  0.2707203919072498 0.1640944446949895 0  0.2759134454178741 0.1556201515623273 0  0.2815428922637251 0.1474292555751825 0  0.2875933025222969 0.1395442074101132 0  0.2940480924396291 0.1319866194360571 0  0.3008895698852256 0.1247772064763297 0  0.3080989828449531 0.1179357290307334 0  0.3156565708190092 0.1114809391134012 0  0.3235416189840785 0.1054305288548295 0  0.3317325149712236 0.09980108200897844 0  0.3402068081038856 0.0946080284983544 0  0.3489412709336291 0.08986560212166514 0  0.357911962904963 0.08558680153996717 0  0.3670942959747386 0.08178335464823916 0  0.3764631020062678 0.07846568643003712 0  0.3859927017534364 0.0756428903833386 0  0.3956569752457313 0.0733227035958976 0  0.4054294333812659 0.07151148553842429 0  0.4152832905315654 0.07021420063371797 0  0.4251915379591144 0.0694344046495293 0  0.435127017846428 0.0691742349524479 0  0.4450624977337415 0.06943440464952938 0  0.4549707451612905 0.07021420063371814 0  0.4648246023115901 0.07151148553842454 0  0.4745970604471245 0.07332270359589793 0  0.4842613339394195 0.07564289038333902 0  0.4937909336865879 0.07846568643003757 0  0.5031597397181173 0.0817833546482398 0  0.5123420727878929 0.08558680153996781 0  0.5213127647592265 0.08986560212166581 0  0.53004722758897 0.0946080284983552 0  0.5385215207216321 0.09980108200897933 0  0.5467124167087771 0.1054305288548305 0  0.5545974648738462 0.1114809391134021 0  0.5621550528479023 0.1179357290307343 0  0.5693644658076298 0.1247772064763308 0  0.576205943253226 0.1319866194360582 0  0.5826607331705582 0.1395442074101142 0  0.5887111434291299 0.1474292555751835 0  0.594340590274981 0.1556201515623285 0  0.5995336437856051 0.1640944446949906 0  0.6042760701622945 0.172828907524734 0  0.6085548707439925 0.1817995994960678 0  0.6123583176357205 0.1909819325658435 0  0.6156759858539227 0.2003507385973728 0  0.6184987819006211 0.2098803383445412 0  0.6208189686880622 0.2195446118368362 0  0.6226301867455355 0.2293170699723706 0  0.6239274716502419 0.2391709271226702 0  0.6247072676344306 0.2490791745502192 0  0.203885768735257 0.3325402459548524 0  0.2015714905276826 0.3421799084407872 0  0.1977777294810124 0.3513388578120612 0  0.1925979005829864 0.3597915703383434 0  0.1861595484119405 0.3673299121842922 0  0.1786212065659918 0.373768264355338 0  0.1701684940397096 0.378948093253364 0  0.1610095446684356 0.3827418543000342 0  0.1513698821825007 0.3850561325076086 0  0.1414868670645144 0.3858339426659677 0  0.1316038519465281 0.3850561325076086 0  0.1219641894605933 0.3827418543000343 0  0.1128052400893193 0.378948093253364 0  0.1043525275630371 0.3737682643553381 0  0.09681418571708833 0.3673299121842922 0  0.09037583354604248 0.3597915703383434 0  0.08519600464801645 0.3513388578120612 0  0.08140224360134621 0.3421799084407872 0  0.07908796539377183 0.3325402459548523 0  0.07831015523541281 0.3226572308368659 0  0.07908796539377186 0.3127742157188796 0  0.08140224360134626 0.3031345532329447 0  0.08519600464801655 0.2939756038616707 0  0.0903758335460426 0.2855228913353884 0  0.0968141857
[...]
<PointData  Tensors="$\sigma$"> 
<DataArray  type="Float64"  Name="$\sigma$"  NumberOfComponents="9" format="ascii">7.8435583254532503e+01 3.6795898558293068e+01 0.0000000000000000e+00 3.6795898558293068e+01 3.3736961126899901e+03 0.0000000000000000e+00 0.0000000000000000e+00 0.0000000000000000e+00 0.0000000000000000e+00  4.1913951937343046e+02 5.2338112390591867e+01 0.0000000000000000e+00 5.2338112390591853e+01 1.6989228969155004e+03 0.0000000000000000e+00 0.0000000000000000e+00 0.0000000000000000e+00 0.0000000000000000e+00  -3.7048130000977637e+00 -6.2943392504762166e+00 0.0000000000000000e+00 -6.2943392504762219e+00 1.8141695141497623e+03 0.0000000000000000e+00 0.0000000000000000e+00 0.0000000000000000e+00 0.0000000000000000e+00  6.4441728130796969e+00 -2.8607584369582297e+00 0.0000000000000000e+00 -2.8607584369582297e+00 1.7438417656439783e+03 0.0000000000000000e+00 0.0000000000000000e+00 0.0000000000000000e+00 0.0000000000000000e+00  5.6949753249110691e+00 3.7616291528026515e+00 0.0000000000000000e+00 3.7616291528026506e+00 1.6611430842257412e+03 0.0000000000000000e+00 0.0000000000000000e+00 0.0000000000000000e+00 0.0000000000000000e+00  4.5642348713755233e+01 4.2659224355336988e+01 0.0000000000000000e+00 4.2659224355337059e+01 3.3609103127667208e+03 0.0000000000000000e+00 0.0000000000000000e+00 0.0000000000000000e+00 0.0000000000000000e+00  -2.9863399557584813e+01 9.8611420885637116e+01 0.0000000000000000e+00 9.8611420885637273e+01 1.4376696080457384e+02 0.0000000000000000e+00 0.0000000000000000e+00 0.0000000000000000e+00 0.0000000000000000e+00  3.0167874840374350e+02 1.9847282585157072e+02 0.0000000000000000e+00 1.9847282585157072e+02 3.6743315202208987e+03 0.0000000000000000e+00 0.0000000000000000e+00 0.0000000000000000e+00 0.0000000000000000e+00  1.6376667858266973e+02 -1.8950781419158068e+02 0.0000000000000000e+00 -1.8950781419158068e+02 3.3586216837370785e+03 0.0000000000000000e+00 0.0000000000000000e+00 0.0000000000000000e+00 0.0000000000000000e+00  -3.2950810438100795e+01 -5.8915444622736457e+00 0.0000000000000000e+00 -5.8915444622736031e+00 -4.7680588675707831e+01 0.0000000000000000e+00 0.0000000000000000e+00 0.0000000000000000e+00 0.0000000000000000e+00  -4.2964026026331353e-01 -1.0988648379345019e+01 0.0000000000000000e+00 -1.0988648379345026e+01 -4.6368485325413396e+00 0.0000000000000000e+00 0.0000000000000000e+00 0.0000000000000000e+00 0.0000000000000000e+00  7.8241531133006646e+01 1.8718100853860062e+02 0.0000000000000000e+00 1.8718100853860071e+02 1.9076837025880491e+03 0.0000000000000000e+00 0.0000000000000000e+00 0.0000000000000000e+00 0.0000000000000000e+00  -1.3933824951690303e+01 4.2196933565050479e+01 0.0000000000000000e+00 4.2196933565050479e+01 4.3591026265263299e+03 0.0000000000000000e+00 0.0000000000000000e+00 0.0000000000000000e+00 0.0000000000000000e+00  3.8071196058740533e+01 3.4955913897123253e+01 0.0000000000000000e+00 3.4955913897123253e+01 3.4787318205693741e+03 0.0000000000000000e+00 0.0000000000000000e+00 0.0000000000000000e+00 0.0000000000000000e+00  -2.7708293501397989e+01 -9.4338346075273364e+01 0.0000000000000000e+00 -9.4338346075273478e+01 -4.0727663556456241e+02 0.0000000000000000e+00 0.0000000000000000e+00 0.0000000000000000e+00 0.0000000000000000e+00  -3.7275413828120101e+01 -7.4167772658344802e+01 0.0000000000000000e+00 -7.4167772658344759e+01 -8.7765718341730420e+01 0.0000000000000000e+00 0.0000000000000000e+00 0.0000000000000000e+00 0.0000000000000000e+00  2.6409534194954606e+01 -9.0576191888056528e+01 0.0000000000000000e+00 -9.0576191888056528e+01 2.1987098113128200e+03 0.0000000000000000e+00 0.0000000000000000e+00 0.0000000000000000e+00 0.0000000000000000e+00  8.7213846056515919e+01 6.3303035097754986e+01 0.0000000000000000e+00 6.3303035097754986e+01 2.6239629791731145e+03 0.0000000000000000e+00 0.0000000000000000e+00 0.0000000000000000e+00 0.0000000000000000e+00  7.4977603116491412e+02 6.7694544693387081e+02 0.0000000000000000e+00 6.7694544693387081e+02 8.0115792245218890e+03 0.0000000000000000e+00 0.0000000000000000e+00 0.0000000000000000e+00 0.0000000000000000e+00  1.2545504996376464e+02 -1.1206023927856140e+02 0.0000000000000000e+00 -1.1206023927856140e+02 4.1270529614314964e+03 0.0000000000000000e+00 0.0000000000000000e+00 0.0000000000000000e+00 0.0000000000000000e+00  2.8449694468049547e+01 6.6550841224769286e+01 0.0000000000000000e+00 6.6550841224769286e+01 2.5732182907949118e+03 0.0000000000000000e+00 0.0000000000000000e+00 0.0000000000000000e+00 0.0000000000000000e+00  6.8978537415378455e+01 -9.4843861866011714e-01 0.0000000000000000e+00 -9.4843861866011736e-01 1.4100201639543388e+03 0.0000000000000000e+00 0.0000000000000000e+00 0.0000000000000000e+00 0.0000000000000000e+00  1.4130855773436724e+02 -3.7273212678330162e+02 0.0000000000000000e+00 -3.7273212678330162e+02 2.1565650591556637e+03 0.0000000000000000e+00 0.0000000000000000e+00 0.0000000000000000e+00 0.0000000000000000e+00  -1.2852177559107588e+02 -1.0614855334704323e+02 0.0000000000000000e+00 -1.0614855334704323e+02 6.5030959185463496e+02 0.0000000000000000e+00 0.0000000000000000e+00 0.0000000000000000e+00 0.0000000000000000e+00  -7.0414351852153675e+02 4.1444570068364368e+02 0.0000000000000000e+00 4.1444570068364368e+02 -2.3284075916349582e+02 0.0000000000000000e+00 0.0000000000000000e+00 0.0000000000000000e+00 0.0000000000000000e+00  -1.2333069792072097e+03 4.3362601598573940e+02 0.0000000000000000e+00 4.3362601598573940e+02 -2.9178697956971746e+02 0.0000000000000000e+00 0.0000000000000000e+00 0.0000000000000000e+00 0.0000000000000000e+00  -1.0087206122290378e+03 3.2317794978345597e+02 0.0000000000000000e+00 3.2317794978345597e+02 -1.6081691332733220e+02 0.0000000000000000e+00 0.0000000000000000e+00 0.0000000000000000e+00 0.0000000000000000e+00  4.9152706187237152e+02 7.2920911012727709e+02 0.0000000000000000e+00 7.2920911012727709e+02 4.4946731461876635e+02 0.0000000000000000e+00 0.0000000000000000e+00 0.0000000000000000e+00 0.0000000000000000e+00  2.1058504041625984e+03 1.4021847651650751e+03 0.0000000000000000e+00 1.4021847651650751e+03 8.8618983444083347e+02 0.0000000000000000e+00 0.0000000000000000e+00 0.0000000000000000e+00 0.0000000000000000e+00  2.1490216958862334e+03 1.6853968723158875e+03 0.0000000000000000e+00 1.6853968723158875e+03 1.5751816920808471e+03 0.0000000000000000e+00 0.0000000000000000e+00 0.0000000000000000e+00 0.0000000000000000e+00  1.0711136919255505e+03 1.3154961465876202e+03 0.0000000000000000e+00 1.3154961465876202e+03 1.8093472900378235e+03 0.0000000000000000e+00 0.0000000000000000e+00 0.0000000000000000e+00 0.0000000000000000e+00  4.1158875022543322e+02 6.0378546863001168e+02 0.0000000000000000e+00 6.0378546863001168e+02 1.5295968038067745e+03 0.0000000000000000e+00 0.0000000000000000e+00 0.0000000000000000e+00 0.0000000000000000e+00  6.5858336779910886e+01 1.1900372724482727e+02 0.0000000000000000e+00 1.1900372724482732e+02 1.3223676410012836e+03 0.0000000000000000e+00 0.0000000000000000e+00 0.0000000000000000e+00 0.0000000000000000e+00  5.6411738230349918e+01 -9.8097087912300964e+01 0.0000000000000000e+00 -9.8097087912300978e+01 6.7907502296385974e+02 0.0000000000000000e+00 0.0000000000000000e+00 0.0000000000000000e+00 0.0000000000000000e+00  -6.0406437819320125e+01 4.0680058301818320e+01 0.0000000000000000e+00 4.0680058301818349e+01 1.0275957614930846e+02 0.0000000000000000e+00 0.0000000000000000e+00 0.0000000000000000e+00 0.0000000000000000e+00  -4.3873962687518980e+02 2.8601826077883720e+02 0.0000000000000000e+00 2.8601826077883709e+02 -1.9108769270750423e+02 0.0000000000000000e+00 0.0000000000000000e+00 0.0000000000000000e+00 0.0000000000000000e+00  -8.0925880982337139e+02 3.0212028503804328e+02 0.0000000000000000e+00 3.0212028503804328e+02 -1.9257600898801957e+02 0.0000000000000000e+00 0.0000000000000000e+00 0.0000000000000000e+00 0.0000000000000000e+00  -8.3027023350321269e+02 1.8385275800664942e+02 0.0000000000000000e+00 1.8385275800664942e+02 -1.2954498941209275e+02 0.0000000000000000e+00 0.0000000000000000e+00 0.0000000000000000e+00 0.0000000000000000e+00  -3.7712421910794279e+02 4.7093648900890877e+01 0.0000000000000000e+00 4.7093648900890877e+01 2.6091406537063619e+01 0.0000000000000000e+00 0.0000000000000000e+00 0.0000000000000000e+00 0.0000000000000000e+00  4.0183696223472873e+02 3.3428147098385773e+02 0.0000000000000000e+00 3.3428147098385773e+02 2.2931186916813036e+02 0.0000000000000000e+00 0.0000000000000000e+00 0.0000000000000000e+00 0.0000000000000000e+00  8.4956093050040829e+02 7.8461740523875017e+02 0.0000000000000000e+00 7.8461740523875017e+02 9.8992424849602435e+02 0.0000000000000000e+00 0.0000000000000000e+00 0.0000000000000000e+00 0.0000000000000000e+00  7.5593821138877058e+02 1.1986638974241084e+03 0.0000000000000000e+00 1.1986638974241084e+03 2.1316575307235362e+03 0.0000000000000000e+00 0.0000000000000000e+00 0.0000000000000000e+00 0.0000000000000000e+00  5.2800625407631264e+02 7.3677633684769751e+02 0.0000000000000000e+00 7.3677633684769751e+02 3.0501749558647321e+03 0.0000000000000000e+00 0.0000000000000000e+00 0.0000000000000000e+00 0.0000000000000000e+00  1.6764380704511169e+02 -8.9800523035393070e+01 0.0000000000000000e+00 -8.9800523035393027e+01 1.4231997725658775e+03 0.0000000000000000e+00 0.0000000000000000e+00 0.0000000000000000e+00 0.0000000000000000e+00  -3.6409735854713567e+01 7.3677068307587419e+00 0.0000000000000000e+00 7.3677068307587410e+00 1.2371205087633500e+03 0.0000000000000000e+00 0.0000000000000000e+00 0.0000000000000000e+00 0.0000000000000000e+00  7.2502910548256239e+01 6.6429092482181575e+00 0.0000000000000000e+00 6.6429092482181611e+00 9.6385497390922853e+02 0.0000000000000000e+00 0.0000000000000000e+00 0.0000000000000000e+00 0.0000000000000000e+00  1.0372364868073833e+01 1.0299132573505968e+01 0.0000000000000000e+00 1.0299132573505965e+01 8.1737775594056791e+02 0.0000000000000000e+00 0.0000000000000000e+00 0.0000000000000000e+00 0.0000000000000000e+00  2.5795810085188432e+01 1.5151059515012427e+01 0.0000000000000000e+00 1.5151059515012427e+01 6.4381938906958987e+02 0.0000000000000000e+00 0.0000000000000000e+00 0.0000000000000000e+00 0.0000000000000000e+00  -9.9307005862548792e+00 1.0049036888783748e+01 0.0000000000000000e+00 1.0049036888783748e+01 4.8733741966537252e+02 0.0000000000000000e+00 0.0000000000000000e+00 0.0000000000000000e+00 0.0000000000000000e+00  -2.5371558210674760e+01 5.1595469288332909e+00 0.0000000000000000e+00 5.1595469288332909e+00 3.5183445480001836e+02 0.0000000000000000e+00 0.0000000000000000e+00 0.0000000000000000e+00 0.0000000000000000e+00  -4.9064538036289164e+01 4.0996270952841583e+00 0.0000000000000000e+00 4.0996270952841583e+00 2.2596582159538590e+02 0.0000000000000000e+00 0.0000000000000000e+00 0.0000000000000000e+00 0.0000000000000000e+00  -4.8174861515827502e+01 4.5625017517967201e+00 0.0000000000000000e+00 4.5625017517967201e+00 9.5495566559526367e+01 0.0000000000000000e+00 0.0000000000000000e+00 0.0000000000000000e+00 0.0000000000000000e+00  -5.7553880606356103e+01 6.3665317133793726e+00 0.0000000000000000e+00 6.3665317133793762e+00 -1.0445938429758110e+01 0.0000000000000000e+00 0.0000000000000000e+00 0.0000000000000000e+00 0.0000000000000000e+00  -8.3574666409658946e+01 4.8923809408271612e+00 0.0000000000000000e+00 4.8923809408271559e+00 -4.9923163536667552e+01 0.0000000000000000e+00 0.0000000000000000e+00 0.0000000000000000e+00 0.0000000000000000e+00  -1.0453657916501331e+02 2.6059472415153995e-01 0.0000000000000000e+00 2.6059472415154272e-01 -5.0178032182636940e+01 0.0000000000000000e+00 0.0000000000000000e+00 0.0000000000000000e+00 0.0000000000000000e+00  -1.2214403351641403e+02 8.1844248191066649e-01 0.0000000000000000e+00 8.1844248191066515e-01 -2.4479098141813719e+01 0.0000000000000000e+00 0.0000000000000000e+00 0.0000000000000000e+00 0.0000000000000000e+00  -1.3164334909149190e+02 -2.1691670046190024e+00 0.0000000000000000e+00 -2.1691670046190032e+00 2.3082543025587821e+01 0.0000000000000000e+00 0.0000000000000000e+00 0.0000000000000000e+00 0.0000000000000000e+00  -1.6953960921765574e+02 3.3796074925580082e+00 0.0000000000000000e+00 3.3796074925579980e+00 1.3609423755038182e+02 0.0000000000000000e+00 0.0000000000000000e+00 0.0000000000000000e+00 0.0000000000000000e+00  -2.4776989797844078e+02 1.2022041289483711e+01 0.0000000000000000e+00 1.2022041289483713e+01 2.8962047115938663e+02 0.0000000000000000e+00 0.0000000000000000e+00 0.0000000000000000e+00 0.0000000000000000e+00  -3.9430467745130778e+02 2.0713172165641790e+01 0.0000000000000000e+00 2.0713172165641790e+01 4.1694090705500588e+02 0.0000000000000000e+00 0.0000000000000000e+00 0.0000000000000000e+00 0.0000000000000000e+00  -4.4731081107588705e+02 -1.9411433212945663e+01 0.0000000000000000e+00 -1.9411433212945660e+01 2.7979899530265476e+02 0.0000000000000000e+00 0.0000000000000000e+00 0.0000000000000000e+00 0.0000000000000000e+00  -3.3862072968300043e+02 -1.2598028964465613e-01 0.0000000000000000e+00 -1.2598028964465816e-01 -2.6141683256870103e+01 0.0000000000000000e+00 0.0000000000000000e+00 0.0000000000000000e+00 0.0000000000000000e+00  -3.9437299175192095e+02 1.6520150561159770e+01 0.0000000000000000e+00 1.6520150561159774e+01 1.8489449681943719e+02 0.0000000000000000e+00 0.0000000000000000e+00 0.0000000000000000e+00 0.0000000000000000e+00  -3.2540457936395831e+02 -1.3405796798684946e+01 0.0000000000000000e+00 -1.3405796798684950e+01 3.7041674060592453e+02 0.0000000000000000e+00 0.0000000000000000e+00 0.0000000000000000e+00 0.0000000000000000e+00  -1.4224304996034277e+02 -2.0839109369534160e+01 0.0000000000000000e+00 -2.0839109369534160e+01 2.2386970388397819e+02 0.0000000000000000e+00 0.0000000000000000e+00 0.0000000000000000e+00 0.0000000000000000e+00  4.3316765747478080e+01 -1.0710502072708893e+01 0.0000000000000000e+00 -1.0710502072708904e+01 1.6827337359690171e+02 0.0000000000000000e+00 0.0000000000000000e+00 0.0000000000000000e+00 0.0000000000000000e+00  8.1159821043504152e+01 -9.1927130780443012e+00 0.0000000000000000e+00 -9.1927130780442923e+00 2.3997586880232205e+02 0.0000000000000000e+00 0.0000000000000000e+00 0.0000000000000000e+00 0.0000000000000000e+00  9.0776381111189067e+01 -6.9190686318378214e+00 0.0000000000000000e+00 -6.9190686318378223e+00 4.3233028460487139e+02 0.0000000000000000e+00 0.0000000000000000e+00 0.0000000000000000e+00 0.0000000000000000e+00  7.2967902951401143e+01 -1.4039315495794634e+01 0.0000000000000000e+00 -1.4039315495794634e+01 6.7779854373084288e+02 0.0000000000000000e+00 0.0000000000000000e+00 0.0000000000000000e+00 0.0000000000000000e+00  7.0734066539549175e+01 -1.0488665024684604e+01 0.0000000000000000e+00 -1.0488665024684595e+01 9.6188754032998588e+02 0.0000000000000000e+00 0.0000000000000000e+00 0.0000000000000000e+00 0.0000000000000000e+00  1.9354565284200753e+01 -7.1699234893748311e+00 0.0000000000000000e+00 -7.1699234893748303e+00 1.2859528519011719e+03 0.0000000000000000e+00 0.0000000000000000e+00 0.0000000000000000e+00 0.0000000000000000e+00  2.7183389513805857e+01 -9.5301127718107566e+00 0.0000000000000000e+00 -9.5301127718107566e+00 1.5456870755118507e+03 0.0000000000000000e+00 0.0000000000000000e+00 0.0000000000000000e+00 0.0000000000000000e+00  -1.6637206728716141e+00 1.6138957000996751e+01 0.0000000000000000e+00 1.6138957000996751e+01 1.7703671488698776e+03 0.0000000000000000e+00 0.0000000000000000e+00 0.0000000000000000e+00 0.0000000000000000e+00  1.2143884286560169e+00 2.9059958702592907e+00 0.0000000000000000e+00 2.9059958702592907e+00 1.8236414530538334e+03 0.0000000000000000e+00 0.0000000000000000e+00 0.0000000000000000e+00 0.0000000000000000e+00  -2.4645856689890731e+00 1.5371802137738092e+01 0.0000000000000000e+00 1.5371802137738092e+01 1.8614738074044246e+03 0.0000000000000000e+00 0.0000000000000000e+00 0.0000000000000000e+00 0.0000000000000000e+00  -1.1870111060930102e+00 4.2805417444023748e+00 0.0000000000000000e+00 4.2805417444023766e+00 1.9164658513212423e+03 0.0000000000000000e+00 0.0000000000000000e+00 0.0000000000000000e+00 0.0000000000000000e+00  2.6885062558807573e+00 6.3945801155283455e+00 0.0000000000000000e+00 6.3945801155283455e+00 1.9817046048167713e+03 0.0000000000000000e+00 0.0000000000000000e+00 0.0000000000000000e+00 0.0000000000000000e+00  1.3802535913063085e-01 1.7793383262214164e+01 0.0000000000000000e+00 1.7793383262214132e+01 2.0060523026724627e+03 0.0000000000000000e+00 0.0000000000000000e+00 0.0000000000000000e+00 0.0000000000000000e+00  -1.0258025900427947e+01 2.7473124060482593e+01 0.0000000000000000e+00 2.7473124060482608e+01 2.1616353326232229e+03 0.0000000000000000e+00 0.0000000000000000e+00 0.0000000000000000e+00 0.0000000000000000e+00  3.3535473668435312e-01 4.7197400477744416e+01 0.0000000000000000e+00 4.7197400477744416e+01 2.3455411408236523e+03 0.0000000000000000e+00 0.0000000000000000e+00 0.0000000000000000e+00 0.0000000000000000e+00  -1.5655581269187172e+01 1.9284889204256874e+01 0.0000000000000000e+00 1.9284889204256878e+01 2.5999596360219703e+03 0.0000000000000000e+00 0.0000000000000000e+00 0.0000000000000000e+00 0.0000000000000000e+00  -3.6964186020801023e+01 -4.0086234066418136e+01 0.0000000000000000e+00 -4.0086234066418115e+01 2.5513742793637666e+03 0.0000000000000000e+00 0.0000000000000000e+00 0.0000000000000000e+00 0.0000000000000000e+00  -4.7017474948334929e+01 -1.6741248627008378e+02 0.0000000000000000e+00 -1.6741248627008378e+02 2.1798654144022362e+03 0.0000000000000000e+00 0.0000000000000000e+00 0.0000000000000000e+00 0.0000000000000000e+00  -1.2565215718061737e+01 -2.0346669068518750e+02 0.0000000000000000e+00 -2.0346669068518750e+02 1.6013235376342593e+03 0.0000000000000000e+00 0.0000000000000000e+00 0.0000000000000000e+00 0.0000000000000000e+00  9.0077675743784781e+01 2.9758125466209659e+01 0.0000000000000000e+00 2.9758125466209659e+01 8.6432610859759234e+02 0.0000000000000000e+00 0.0000000000000000e+00 0.0000000000000000e+00 0.0000000000000000e+00  6.2050978460696996e+01 1.2848592400819152e+02 0.0000000000000000e+00 1.2848592400819152e+02 9.5433675977739847e+02 0.0000000000000000e+00 0.0000000000000000e+00 0.0000000000000000e+00 0.0000000000000000e+00  2.3326941255067876e+01 1.8857455752106659e+02 0.0000000000000000e+00 1.8857455752106659e+02 2.0209621280735603e+03 0.0000000000000000e+00 0.0000000000000000e+00 0.0000000000000000e+00 0.0000000000000000e+00  -9.7590378620536882e+00 1.4602026414043840e+02 0.0000000000000000e+00 1.4602026414043840e+02 3.0042599700125415e+03 0.0000000000000000e+00 0.0000000000000000e+00 0.0000000000000000e+00 0.0000000000000000e+00  -2.6650107882930861e+01 -1.5952227180323263e+02 0.0000000000000000e+00 -1.5952227180323263e+02 3.2151606669642665e+03 0.0000000000000000e+00 0.0000000000000000e+00 0.0000000000000000e+00 0.0000000000000000e+00  6.9004139729142366e+01 -5.0042968331945900e+01 0.0000000000000000e+00 -5.0042968331945900e+01 2.2519652163832288e+03 0.0000000000000000e+00 0.0000000000000000e+00 0.0000000000000000e+00 0.0000000000000000e+00  -7.9201697763924003e+01 1.0086980275568790e+02 0.0000000000000000e+00 1.0086980275568790e+02 2.7263431916529175e+03 0.0000000000000000e+00 0.0000000000000000e+00 0.0000000000000000e+00 0.0000000000000000e+00  -4.3052271235384483e+00 -7.7750150040193731e+01 0.0000000000000000e+00 -7.7750150040193731e+01 2.6404268200468459e+03 0.0000000000000000e+00 0.0000000000000000e+00 0.0000000000000000e+00 0.0000000000000000e+00  -5.4499264471182984e+00 -9.3394841651423050e+01 0.0000000000000000e+00 -9.3394841651423050e+01 2.0457232247112138e+03 0.0000000000000000e+00 0.0000000000000000e+00 0.0000000000000000e+00 0.0000000000000000e+00  2.0731968224936036e+01 -7.1407428974908118e+00 0.0000000000000000e+00 -7.1407428974908083e+00 1.8942943890610518e+03 0.0000000000000000e+00 0.0000000000000000e+00 0.0000000000000000e+00 0.0000000000000000e+00  -8.8844280633594739e+00 -4.9944151514938917e-01 0.0000000000000000e+00 -4.9944151514940505e-01 1.8505874178037018e+03 0.0000000000000000e+00 0.0000000000000000e+00 0.0000000000000000e+00 0.0000000000000