<?xml version="1.0"?>
<VTKFile type="UnstructuredGrid"  version="0.1"  >
<UnstructuredGrid>
<Piece  NumberOfPoints="3879" NumberOfCells="6881">
<Points>
<DataArray  type="Float64"  NumberOfComponents="3"  format="ascii">0.207524190028372 0.2122422770132111 0  0 0 0  1 0 0  0 1 0  1 1 0  0.6249674373315121 0.2590146544375328 0  0.204663578893616 0.322657230836866 0  0.09605577522599912 0.4018360776629776 0  0.671351124618251 0.08738059142081528 0  0.7842102907526436 0.1666439122351055 0  0.8512483166984784 0.1985391006160637 0  0.6418797837909295 0.4423157172830166 0  0.9292488447973215 0.3869277868069776 0  0.3197896119137055 0.5509935221980964 0  0.3979283685568406 0.5079871620336583 0  0.1572503457993085 0.7345153245035532 0  0.3032914287999163 0.7872981443735918 0  0.3549464687598876 0.8870324161721976 0  0.9691791685505482 0.5159450047798622 0  0.9447564590470373 0.6146164845729313 0  0.7687603548175107 0.7176858127488035 0  0.8926159261971183 0.7422924070424508 0  0.2061587782631535 0.2217389244366831 0  0.2021731605082994 0.2304662099646423 0  0.1958902278109265 0.2377171008267789 0  0.1878189860121365 0.2429041729681512 0  0.1786133191209442 0.2456072006525708 0  0.1690190155206647 0.2456072006525708 0  0.1598133486294724 0.2429041729681512 0  0.1517421068306824 0.2377171008267789 0  0.1454591741333096 0.2304662099646422 0  0.1414735563784554 0.221738924436683 0  0.1401081446132369 0.212242277013211 0  0.1414735563784555 0.202745629589739 0  0.1454591741333096 0.1940183440617798 0  0.1517421068306825 0.1867674531996431 0  0.1598133486294725 0.1815803810582709 0  0.1690190155206649 0.1788773533738513 0  0.1786133191209443 0.1788773533738514 0  0.1878189860121367 0.181580381058271 0  0.1958902278109266 0.1867674531996433 0  0.2021731605082994 0.19401834406178 0  0.2061587782631535 0.2027456295897391 0  0.03333333333333333 0 0  0.06666666666666667 0 0  0.1 0 0  0.1333333333333333 0 0  0.1666666666666667 0 0  0.2 0 0  0.2333333333333333 0 0  0.2666666666666667 0 0  0.3 0 0  0.3333333333333333 0 0  0.3666666666666666 0 0  0.4 0 0  0.4333333333333333 0 0  0.4666666666666667 0 0  0.5 0 0  0.5333333333333333 0 0  0.5666666666666667 0 0  0.6 0 0  0.6333333333333333 0 0  0.6666666666666666 0 0  0.7 0 0  0.7333333333333333 0 0  0.7666666666666667 0 0  0.8 0 0  0.8333333333333334 0 0  0.8666666666666667 0 0  0.9 0 0  0.9333333333333333 0 0  0.9666666666666667 0 0  0 0.9666666666666667 0  0 0.9333333333333333 0  0 0.9 0  0 0.8666666666666667 0  0 0.8333333333333334 0  0 0.8 0  0 0.7666666666666666 0  0 0.7333333333333334 0  0 0.7 0  0 0.6666666666666667 0  0 0.6333333333333333 0  0 0.6 0  0 0.5666666666666667 0  0 0.5333333333333333 0  0 0.5 0  0 0.4666666666666667 0  0 0.4333333333333333 0  0 0.4 0  0 0.3666666666666667 0  0 0.3333333333333334 0  0 0.3 0  0 0.2666666666666667 0  0 0.2333333333333333 0  0 0.2 0  0 0.1666666666666666 0  0 0.1333333333333333 0  0 0.09999999999999998 0  0 0.06666666666666665 0  0 0.03333333333333333 0  1 0.03333333333333333 0  1 0.06666666666666667 0  1 0.1 0  1 0.1333333333333333 0  1 0.1666666666666667 0  1 0.2 0  1 0.2333333333333333 0  1 0.2666666666666667 0  1 0.3 0  1 0.3333333333333333 0  1 0.3666666666666666 0  1 0.4 0  1 0.4333333333333333 0  1 0.4666666666666667 0  1 0.5 0  1 0.5333333333333333 0  1 0.5666666666666667 0  1 0.6 0  1 0.6333333333333333 0  1 0.6666666666666666 0  1 0.7 0  1 0.7333333333333333 0  1 0.7666666666666667 0  1 0.8 0  1 0.8333333333333334 0  1 0.8666666666666667 0  1 0.9 0  1 0.9333333333333333 0  1 0.9666666666666667 0  0.9666666666666667 1 0  0.9333333333333333 1 0  0.9 1 0  0.8666666666666667 1 0  0.8333333333333334 1 0  0.8 1 0  0.7666666666666666 1 0  0.7333333333333334 1 0  0.7 1 0  0.6666666666666667 1 0  0.6333333333333333 1 0  0.6 1 0  0.5666666666666667 1 0  0.5333333333333333 1 0  0.5 1 0  0.4666666666666667 1 0  0.4333333333333333 1 0  0.4 1 0  0.3666666666666667 1 0  0.3333333333333334 1 0  0.3 1 0  0.2666666666666667 1 0  0.2333333333333333 1 0  0.2 1 0  0.1666666666666666 1 0  0.1333333333333333 1 0  0.09999999999999998 1 0  0.06666666666666665 1 0  0.03333333333333333 1 0  0.6247072676344306 0.2689501343248463 0  0.6239274716502419 0.2788583817523955 0  0.6226301867455355 0.2887122389026952 0  0.6208189686880621 0.2984846970382296 0  0.6184987819006211 0.3081489705305245 0  0.6156759858539226 0.317678570277693 0  0.6123583176357204 0.3270473763092224 0  0.6085548707439923 0.3362297093789981 0  0.6042760701622942 0.3452004013503318 0  0.5995336437856049 0.3539348641800754 0  0.5943405902749808 0.3624091573127375 0  0.5887111434291297 0.3706000532998825 0  0.582660733170558 0.3784851014649517 0  0.5762059432532257 0.3860426894390078 0  0.5693644658076293 0.3932521023987353 0  0.5621550528479018 0.4000935798443317 0  0.5545974648738458 0.4065483697616639 0  0.5467124167087765 0.4125987800202355 0  0.5385215207216315 0.4182282268660866 0  0.5300472275889694 0.4234212803767108 0  0.5213127647592257 0.4281637067534002 0  0.512342072787892 0.4324425073350981 0  0.5031597397181163 0.4362459542268262 0  0.493790933686587 0.4395636224450283 0  0.4842613339394185 0.4423864184917269 0  0.4745970604471235 0.4447066052791678 0  0.4648246023115891 0.4465178233366412 0  0.4549707451612894 0.4478151082413475 0  0.4450624977337403 0.4485949042255363 0  0.4351270178464268 0.4488550739226177 0  0.4251915379591132 0.4485949042255363 0  0.4152832905315641 0.4478151082413475 0  0.4054294333812644 0.4465178233366411 0  0.39565697524573 0.4447066052791677 0  0.385992701753435 0.4423864184917267 0  0.3764631020062665 0.4395636224450281 0  0.3670942959747371 0.4362459542268259 0  0.3579119629049616 0.4324425073350978 0  0.3489412709336278 0.4281637067533998 0  0.3402068081038843 0.4234212803767103 0  0.3317325149712221 0.4182282268660862 0  0.3235416189840771 0.412598780020235 0  0.3156565708190078 0.4065483697616634 0  0.3080989828449519 0.4000935798443311 0  0.3008895698852244 0.3932521023987346 0  0.2940480924396279 0.3860426894390071 0  0.2875933025222958 0.3784851014649511 0  0.2815428922637242 0.3706000532998818 0  0.2759134454178731 0.3624091573127368 0  0.2707203919072489 0.3539348641800746 0  0.2659779655305596 0.3452004013503309 0  0.2616991649488616 0.3362297093789972 0  0.2578957180571336 0.3270473763092215 0  0.2545780498389315 0.3176785702776921 0  0.251755253792233 0.3081489705305236 0  0.249435067004792 0.2984846970382286 0  0.2476238489473186 0.2887122389026941 0  0.2463265640426123 0.2788583817523945 0  0.2455467680584236 0.2689501343248454 0  0.2452865983613423 0.2590146544375318 0  0.2455467680584237 0.2490791745502182 0  0.2463265640426126 0.2391709271226692 0  0.247623848947319 0.2293170699723696 0  0.2494350670047924 0.2195446118368351 0  0.2517552537922335 0.2098803383445402 0  0.2545780498389321 0.2003507385973717 0  0.2578957180571343 0.1909819325658423 0  0.2616991649488624 0.1817995994960667 0  0.2659779655305604 0.172828907524733 0  0.2707203919072498 0.1640944446949895 0  0.2759134454178741 0.1556201515623273 0  0.2815428922637251 0.1474292555751825 0  0.2875933025222969 0.1395442074101132 0  0.2940480924396291 0.1319866194360571 0  0.3008895698852256 0.1247772064763297 0  0.3080989828449531 0.1179357290307334 0  0.3156565708190092 0.1114809391134012 0  0.3235416189840785 0.1054305288548295 0  0.3317325149712236 0.09980108200897844 0  0.3402068081038856 0.0946080284983544 0  0.3489412709336291 0.08986560212166514 0  0.357911962904963 0.08558680153996717 0  0.3670942959747386 0.08178335464823916 0  0.3764631020062678 0.07846568643003712 0  0.3859927017534364 0.0756428903833386 0  0.3956569752457313 0.0733227035958976 0  0.4054294333812659 0.07151148553842429 0  0.4152832905315654 0.07021420063371797 0  0.4251915379591144 0.0694344046495293 0  0.435127017846428 0.0691742349524479 0  0.4450624977337415 0.06943440464952938 0  0.4549707451612905 0.07021420063371814 0  0.4648246023115901 0.07151148553842454 0  0.4745970604471245 0.07332270359589793 0  0.4842613339394195 0.07564289038333902 0  0.4937909336865879 0.07846568643003757 0  0.5031597397181173 0.0817833546482398 0  0.5123420727878929 0.08558680153996781 0  0.5213127647592265 0.08986560212166581 0  0.53004722758897 0.0946080284983552 0  0.5385215207216321 0.09980108200897933 0  0.5467124167087771 0.1054305288548305 0  0.5545974648738462 0.1114809391134021 0  0.5621550528479023 0.1179357290307343 0  0.5693644658076298 0.1247772064763308 0  0.576205943253226 0.1319866194360582 0  0.5826607331705582 0.1395442074101142 0  0.5887111434291299 0.1474292555751835 0  0.594340590274981 0.1556201515623285 0  0.5995336437856051 0.1640944446949906 0  0.6042760701622945 0.172828907524734 0  0.6085548707439925 0.1817995994960678 0  0.6123583176357205 0.1909819325658435 0  0.6156759858539227 0.2003507385973728 0  0.6184987819006211 0.2098803383445412 0  0.6208189686880622 0.2195446118368362 0  0.6226301867455355 0.2293170699723706 0  0.6239274716502419 0.2391709271226702 0  0.6247072676344306 0.2490791745502192 0  0.203885768735257 0.3325402459548524 0  0.2015714905276826 0.3421799084407872 0  0.1977777294810124 0.3513388578120612 0  0.1925979005829864 0.3597915703383434 0  0.1861595484119405 0.3673299121842922 0  0.1786212065659918 0.373768264355338 0  0.1701684940397096 0.378948093253364 0  0.1610095446684356 0.3827418543000342 0  0.1513698821825007 0.3850561325076086 0  0.1414868670645144 0.3858339426659677 0  0.1316038519465281 0.3850561325076086 0  0.1219641894605933 0.3827418543000343 0  0.1128052400893193 0.378948093253364 0  0.1043525275630371 0.3737682643553381 0  0.09681418571708833 0.3673299121842922 0  0.09037583354604248 0.3597915703383434 0  0.08519600464801645 0.3513388578120612 0  0.08140224360134621 0.3421799084407872 0  0.07908796539377183 0.3325402459548523 0  0.07831015523541281 0.3226572308368659 0  0.07908796539377186 0.3127742157188796 0  0.08140224360134626 0.3031345532329447 0  0.08519600464801655 0.2939756038616707 0  0.0903758335460426 0.2855228913353884 0  0.0968141857
[...]
<PointData  Tensors="$\sigma$"> 
<DataArray  type="Float64"  Name="$\sigma$"  NumberOfComponents="9" format="ascii">1.9206083724758734e+01 2.2595012590522213e+01 0.0000000000000000e+00 2.2595012590522213e+01 3.9946247465019809e+02 0.0000000000000000e+00 0.0000000000000000e+00 0.0000000000000000e+00 0.0000000000000000e+00  5.6096953628062394e+01 9.8796203785099852e+00 0.0000000000000000e+00 9.8796203785099852e+00 2.1379074357442832e+02 0.0000000000000000e+00 0.0000000000000000e+00 0.0000000000000000e+00 0.0000000000000000e+00  1.1076634427283814e+00 -8.0826993999727814e-01 0.0000000000000000e+00 -8.0826993999727814e-01 2.2863988322625579e+02 0.0000000000000000e+00 0.0000000000000000e+00 0.0000000000000000e+00 0.0000000000000000e+00  2.7195117320837929e+00 -1.0368696507498179e+00 0.0000000000000000e+00 -1.0368696507498179e+00 2.1763485865703061e+02 0.0000000000000000e+00 0.0000000000000000e+00 0.0000000000000000e+00 0.0000000000000000e+00  1.8069995435941624e+00 1.1750159680821395e+00 0.0000000000000000e+00 1.1750159680821395e+00 2.0946685074535824e+02 0.0000000000000000e+00 0.0000000000000000e+00 0.0000000000000000e+00 0.0000000000000000e+00  1.2054372255144607e+01 1.0025372969695981e+01 0.0000000000000000e+00 1.0025372969695981e+01 4.2160918661765191e+02 0.0000000000000000e+00 0.0000000000000000e+00 0.0000000000000000e+00 0.0000000000000000e+00  1.8807636412349673e+00 2.0784747656603525e+01 0.0000000000000000e+00 2.0784747656603525e+01 4.3850526688228911e+01 0.0000000000000000e+00 0.0000000000000000e+00 0.0000000000000000e+00 0.0000000000000000e+00  5.2170492541458287e+01 2.6895764341637502e+01 0.0000000000000000e+00 2.6895764341637502e+01 4.1849174420124518e+02 0.0000000000000000e+00 0.0000000000000000e+00 0.0000000000000000e+00 0.0000000000000000e+00  3.7083120237814228e+01 -4.3978736817122865e+01 0.0000000000000000e+00 -4.3978736817122865e+01 3.9343673025756920e+02 0.0000000000000000e+00 0.0000000000000000e+00 0.0000000000000000e+00 0.0000000000000000e+00  1.0699486049224728e+01 -1.3681125187675217e+01 0.0000000000000000e+00 -1.3681125187675217e+01 1.9843881680494150e+01 0.0000000000000000e+00 0.0000000000000000e+00 0.0000000000000000e+00 0.0000000000000000e+00  1.0748673608236050e+00 -4.7652321073879627e+00 0.0000000000000000e+00 -4.7652321073879627e+00 1.1208691538804317e+01 0.0000000000000000e+00 0.0000000000000000e+00 0.0000000000000000e+00 0.0000000000000000e+00  2.6591139772509788e+01 3.6516100110994884e+01 0.0000000000000000e+00 3.6516100110994884e+01 2.4396173805708347e+02 0.0000000000000000e+00 0.0000000000000000e+00 0.0000000000000000e+00 0.0000000000000000e+00  8.0970364546666289e+00 5.9348665202472564e+00 0.0000000000000000e+00 5.9348665202472564e+00 5.4449871510411594e+02 0.0000000000000000e+00 0.0000000000000000e+00 0.0000000000000000e+00 0.0000000000000000e+00  1.6250138905315385e+01 6.4126310494274232e+00 0.0000000000000000e+00 6.4126310494274232e+00 4.3821532267043949e+02 0.0000000000000000e+00 0.0000000000000000e+00 0.0000000000000000e+00 0.0000000000000000e+00  4.1752512284517271e+00 -2.3199373314306946e+01 0.0000000000000000e+00 -2.3199373314306946e+01 -2.8904378953929225e+01 0.0000000000000000e+00 0.0000000000000000e+00 0.0000000000000000e+00 0.0000000000000000e+00  1.6011685464783003e+01 -1.4134872728624398e+01 0.0000000000000000e+00 -1.4134872728624401e+01 2.5381098595494279e+01 0.0000000000000000e+00 0.0000000000000000e+00 0.0000000000000000e+00 0.0000000000000000e+00  9.9277386650597386e+00 -2.9900340197560276e+01 0.0000000000000000e+00 -2.9900340197560276e+01 2.8495721369862150e+02 0.0000000000000000e+00 0.0000000000000000e+00 0.0000000000000000e+00 0.0000000000000000e+00  2.5116978211827785e+01 1.8496717908829993e+01 0.0000000000000000e+00 1.8496717908829993e+01 3.2420688164933370e+02 0.0000000000000000e+00 0.0000000000000000e+00 0.0000000000000000e+00 0.0000000000000000e+00  1.2835199670978938e+02 8.7414537765561676e+01 0.0000000000000000e+00 8.7414537765561676e+01 8.4864407458894630e+02 0.0000000000000000e+00 0.0000000000000000e+00 0.0000000000000000e+00 0.0000000000000000e+00  2.8093419576909035e+01 -1.8810765129386102e+01 0.0000000000000000e+00 -1.8810765129386102e+01 5.1931763816400507e+02 0.0000000000000000e+00 0.0000000000000000e+00 0.0000000000000000e+00 0.0000000000000000e+00  4.7352595614759725e+00 1.5993470917422172e+01 0.0000000000000000e+00 1.5993470917422172e+01 3.2455475937119564e+02 0.0000000000000000e+00 0.0000000000000000e+00 0.0000000000000000e+00 0.0000000000000000e+00  1.8223109563975559e+01 1.5992432708631608e+00 0.0000000000000000e+00 1.5992432708631608e+00 1.8330327144202613e+02 0.0000000000000000e+00 0.0000000000000000e+00 0.0000000000000000e+00 0.0000000000000000e+00  7.6963875028020574e+00 -1.4695457065499756e+01 0.0000000000000000e+00 -1.4695457065499756e+01 2.7375903255522240e+02 0.0000000000000000e+00 0.0000000000000000e+00 0.0000000000000000e+00 0.0000000000000000e+00  -3.3162243492744089e+01 1.5489654330866391e+00 0.0000000000000000e+00 1.5489654330866391e+00 1.1400282823771458e+02 0.0000000000000000e+00 0.0000000000000000e+00 0.0000000000000000e+00 0.0000000000000000e+00  -9.9561095982340291e+01 4.6161548287891428e+01 0.0000000000000000e+00 4.6161548287891428e+01 2.4099483903398147e+00 0.0000000000000000e+00 0.0000000000000000e+00 0.0000000000000000e+00 0.0000000000000000e+00  -1.1365847592457641e+02 4.7425939868469840e+01 0.0000000000000000e+00 4.7425939868469840e+01 -2.4341361373294703e+01 0.0000000000000000e+00 0.0000000000000000e+00 0.0000000000000000e+00 0.0000000000000000e+00  -8.0640007939520487e+01 6.1379022138606366e+01 0.0000000000000000e+00 6.1379022138606366e+01 -9.1367933477769121e+00 0.0000000000000000e+00 0.0000000000000000e+00 0.0000000000000000e+00 0.0000000000000000e+00  8.2551194743029370e+01 1.0513752723583285e+02 0.0000000000000000e+00 1.0513752723583285e+02 6.1243627839448351e+01 0.0000000000000000e+00 0.0000000000000000e+00 0.0000000000000000e+00 0.0000000000000000e+00  2.1622324817739513e+02 1.5700223504192093e+02 0.0000000000000000e+00 1.5700223504192093e+02 1.1578199787346922e+02 0.0000000000000000e+00 0.0000000000000000e+00 0.0000000000000000e+00 0.0000000000000000e+00  2.4158884172691506e+02 1.9257140791519748e+02 0.0000000000000000e+00 1.9257140791519748e+02 1.9121181196283075e+02 0.0000000000000000e+00 0.0000000000000000e+00 0.0000000000000000e+00 0.0000000000000000e+00  1.4793297913747301e+02 1.5295356685362404e+02 0.0000000000000000e+00 1.5295356685362404e+02 2.1384464217699644e+02 0.0000000000000000e+00 0.0000000000000000e+00 0.0000000000000000e+00 0.0000000000000000e+00  7.3114419198770662e+01 7.8351477838873095e+01 0.0000000000000000e+00 7.8351477838873095e+01 1.8694695703120166e+02 0.0000000000000000e+00 0.0000000000000000e+00 0.0000000000000000e+00 0.0000000000000000e+00  2.0674398211089194e+01 2.4970568673849279e+01 0.0000000000000000e+00 2.4970568673849279e+01 1.6904326723862908e+02 0.0000000000000000e+00 0.0000000000000000e+00 0.0000000000000000e+00 0.0000000000000000e+00  5.7933864470506373e+00 -7.7339944177094833e-01 0.0000000000000000e+00 -7.7339944177094833e-01 1.0276861081021316e+02 0.0000000000000000e+00 0.0000000000000000e+00 0.0000000000000000e+00 0.0000000000000000e+00  -1.4069178978177851e+01 5.6160595747739110e+00 0.0000000000000000e+00 5.6160595747739110e+00 3.7086753663491244e+01 0.0000000000000000e+00 0.0000000000000000e+00 0.0000000000000000e+00 0.0000000000000000e+00  -5.6411848899408561e+01 2.6751647447028304e+01 0.0000000000000000e+00 2.6751647447028304e+01 -5.0518687124981847e+00 0.0000000000000000e+00 0.0000000000000000e+00 0.0000000000000000e+00 0.0000000000000000e+00  -8.9836583848735160e+01 2.9556989614037988e+01 0.0000000000000000e+00 2.9556989614037988e+01 -1.3445184227559380e+01 0.0000000000000000e+00 0.0000000000000000e+00 0.0000000000000000e+00 0.0000000000000000e+00  -8.4502526163514744e+01 2.7739330779634955e+01 0.0000000000000000e+00 2.7739330779634955e+01 -1.4360065763063188e+01 0.0000000000000000e+00 0.0000000000000000e+00 0.0000000000000000e+00 0.0000000000000000e+00  -3.9012820460381910e+01 2.3494512407985006e+01 0.0000000000000000e+00 2.3494512407985006e+01 1.2273054421136482e+01 0.0000000000000000e+00 0.0000000000000000e+00 0.0000000000000000e+00 0.0000000000000000e+00  3.9804925500286110e+01 5.6682780394951131e+01 0.0000000000000000e+00 5.6682780394951131e+01 5.5510777136702146e+01 0.0000000000000000e+00 0.0000000000000000e+00 0.0000000000000000e+00 0.0000000000000000e+00  8.4057509075947422e+01 9.4277129589891260e+01 0.0000000000000000e+00 9.4277129589891260e+01 1.5051811083020115e+02 0.0000000000000000e+00 0.0000000000000000e+00 0.0000000000000000e+00 0.0000000000000000e+00  8.8060775695524669e+01 1.3280618521774355e+02 0.0000000000000000e+00 1.3280618521774355e+02 2.8400398244668429e+02 0.0000000000000000e+00 0.0000000000000000e+00 0.0000000000000000e+00 0.0000000000000000e+00  7.3230123344466421e+01 7.9711890610147933e+01 0.0000000000000000e+00 7.9711890610147933e+01 3.5362532899446819e+02 0.0000000000000000e+00 0.0000000000000000e+00 0.0000000000000000e+00 0.0000000000000000e+00  2.8928529428974763e+01 -5.4909465955133312e+00 0.0000000000000000e+00 -5.4909465955133312e+00 1.7854799766136006e+02 0.0000000000000000e+00 0.0000000000000000e+00 0.0000000000000000e+00 0.0000000000000000e+00  -5.1086213923315382e+00 -1.7108857752438975e-01 0.0000000000000000e+00 -1.7108857752438975e-01 1.5228255466610426e+02 0.0000000000000000e+00 0.0000000000000000e+00 0.0000000000000000e+00 0.0000000000000000e+00  4.0548448417732272e+00 1.4633829276089934e+00 0.0000000000000000e+00 1.4633829276089934e+00 1.2214766596686052e+02 0.0000000000000000e+00 0.0000000000000000e+00 0.0000000000000000e+00 0.0000000000000000e+00  1.5724478375025941e+00 1.7773254106705669e+00 0.0000000000000000e+00 1.7773254106705669e+00 1.0641563613021853e+02 0.0000000000000000e+00 0.0000000000000000e+00 0.0000000000000000e+00 0.0000000000000000e+00  1.3456587494396568e+00 2.9583815616988325e+00 0.0000000000000000e+00 2.9583815616988325e+00 8.3563402567802157e+01 0.0000000000000000e+00 0.0000000000000000e+00 0.0000000000000000e+00 0.0000000000000000e+00  -1.8068604538234334e+00 2.3370070221914556e+00 0.0000000000000000e+00 2.3370070221914556e+00 6.2825797283150806e+01 0.0000000000000000e+00 0.0000000000000000e+00 0.0000000000000000e+00 0.0000000000000000e+00  -3.6300300491710078e+00 1.5577314253477190e+00 0.0000000000000000e+00 1.5577314253477190e+00 4.5218298539128199e+01 0.0000000000000000e+00 0.0000000000000000e+00 0.0000000000000000e+00 0.0000000000000000e+00  -6.0978696988732368e+00 1.2756760659921995e+00 0.0000000000000000e+00 1.2756760659921995e+00 3.0232657111732159e+01 0.0000000000000000e+00 0.0000000000000000e+00 0.0000000000000000e+00 0.0000000000000000e+00  -6.5028616562204968e+00 1.3819609756417268e+00 0.0000000000000000e+00 1.3819609756417268e+00 1.3262988030736173e+01 0.0000000000000000e+00 0.0000000000000000e+00 0.0000000000000000e+00 0.0000000000000000e+00  -7.5348724027560401e+00 1.5523101891479361e+00 0.0000000000000000e+00 1.5523101891479361e+00 -1.1734327805630456e+00 0.0000000000000000e+00 0.0000000000000000e+00 0.0000000000000000e+00 0.0000000000000000e+00  -1.1022193493107018e+01 1.1319474168665991e+00 0.0000000000000000e+00 1.1319474168665991e+00 -6.1940591189713334e+00 0.0000000000000000e+00 0.0000000000000000e+00 0.0000000000000000e+00 0.0000000000000000e+00  -1.3408813783182847e+01 2.1177981688396086e-01 0.0000000000000000e+00 2.1177981688396086e-01 -6.2541370438201938e+00 0.0000000000000000e+00 0.0000000000000000e+00 0.0000000000000000e+00 0.0000000000000000e+00  -1.6083208710836274e+01 7.0086634555533486e-03 0.0000000000000000e+00 7.0086634555533468e-03 -3.1231116127077017e+00 0.0000000000000000e+00 0.0000000000000000e+00 0.0000000000000000e+00 0.0000000000000000e+00  -1.6702705467640101e+01 -1.6737178493279894e-01 0.0000000000000000e+00 -1.6737178493279894e-01 2.7375766744268035e+00 0.0000000000000000e+00 0.0000000000000000e+00 0.0000000000000000e+00 0.0000000000000000e+00  -2.1587510761976684e+01 9.1496625936279652e-01 0.0000000000000000e+00 9.1496625936279652e-01 1.7226678993565454e+01 0.0000000000000000e+00 0.0000000000000000e+00 0.0000000000000000e+00 0.0000000000000000e+00  -3.0318625977136346e+01 2.7958628809889370e+00 0.0000000000000000e+00 2.7958628809889370e+00 3.5691788369846300e+01 0.0000000000000000e+00 0.0000000000000000e+00 0.0000000000000000e+00 0.0000000000000000e+00  -4.7131564269479902e+01 3.4687590188756929e+00 0.0000000000000000e+00 3.4687590188756929e+00 5.0078419650063886e+01 0.0000000000000000e+00 0.0000000000000000e+00 0.0000000000000000e+00 0.0000000000000000e+00  -5.2996389218017242e+01 -1.6547259600418360e+00 0.0000000000000000e+00 -1.6547259600418360e+00 3.6175254087625170e+01 0.0000000000000000e+00 0.0000000000000000e+00 0.0000000000000000e+00 0.0000000000000000e+00  -4.1453355768670626e+01 -7.5600306466166223e-01 0.0000000000000000e+00 -7.5600306466166223e-01 3.9917324244775236e+00 0.0000000000000000e+00 0.0000000000000000e+00 0.0000000000000000e+00 0.0000000000000000e+00  -4.6952891992522026e+01 6.8655685273777378e-01 0.0000000000000000e+00 6.8655685273777378e-01 2.7135704805360639e+01 0.0000000000000000e+00 0.0000000000000000e+00 0.0000000000000000e+00 0.0000000000000000e+00  -3.7737524903363322e+01 -3.5506612138446108e+00 0.0000000000000000e+00 -3.5506612138446108e+00 4.5919601700446989e+01 0.0000000000000000e+00 0.0000000000000000e+00 0.0000000000000000e+00 0.0000000000000000e+00  -1.6001695637186778e+01 -4.5354242577374553e+00 0.0000000000000000e+00 -4.5354242577374553e+00 2.9030865633589897e+01 0.0000000000000000e+00 0.0000000000000000e+00 0.0000000000000000e+00 0.0000000000000000e+00  5.3023256089846198e+00 -2.6382168931742891e+00 0.0000000000000000e+00 -2.6382168931742891e+00 2.1816802552698075e+01 0.0000000000000000e+00 0.0000000000000000e+00 0.0000000000000000e+00 0.0000000000000000e+00  1.0472395864307082e+01 -2.5277803108780756e+00 0.0000000000000000e+00 -2.5277803108780756e+00 3.1574074095107896e+01 0.0000000000000000e+00 0.0000000000000000e+00 0.0000000000000000e+00 0.0000000000000000e+00  1.1106018157988887e+01 -2.1951408591429913e+00 0.0000000000000000e+00 -2.1951408591429913e+00 5.5855909926119423e+01 0.0000000000000000e+00 0.0000000000000000e+00 0.0000000000000000e+00 0.0000000000000000e+00  9.4980737832498576e+00 -3.5520318246220608e+00 0.0000000000000000e+00 -3.5520318246220608e+00 8.7671019700433874e+01 0.0000000000000000e+00 0.0000000000000000e+00 0.0000000000000000e+00 0.0000000000000000e+00  8.0243677527088941e+00 -2.3657466951240345e+00 0.0000000000000000e+00 -2.3657466951240345e+00 1.2329741758424073e+02 0.0000000000000000e+00 0.0000000000000000e+00 0.0000000000000000e+00 0.0000000000000000e+00  3.3603364466529748e+00 -1.6429868443679936e+00 0.0000000000000000e+00 -1.6429868443679936e+00 1.6601253296266393e+02 0.0000000000000000e+00 0.0000000000000000e+00 0.0000000000000000e+00 0.0000000000000000e+00  3.2294356773160811e+00 -1.6421238750852383e+00 0.0000000000000000e+00 -1.6421238750852383e+00 1.9277222446508827e+02 0.0000000000000000e+00 0.0000000000000000e+00 0.0000000000000000e+00 0.0000000000000000e+00  -1.0705333505979642e+00 3.6959719224333218e+00 0.0000000000000000e+00 3.6959719224333218e+00 2.2364122600365707e+02 0.0000000000000000e+00 0.0000000000000000e+00 0.0000000000000000e+00 0.0000000000000000e+00  -4.9842714801309873e-01 7.4083897313047919e-01 0.0000000000000000e+00 7.4083897313047919e-01 2.2739517885712047e+02 0.0000000000000000e+00 0.0000000000000000e+00 0.0000000000000000e+00 0.0000000000000000e+00  -3.9331325033118114e-01 3.1897187220313321e+00 0.0000000000000000e+00 3.1897187220313321e+00 2.3360454285758695e+02 0.0000000000000000e+00 0.0000000000000000e+00 0.0000000000000000e+00 0.0000000000000000e+00  -4.5010327847402692e-01 1.0522859482699900e+00 0.0000000000000000e+00 1.0522859482699900e+00 2.3852229590631529e+02 0.0000000000000000e+00 0.0000000000000000e+00 0.0000000000000000e+00 0.0000000000000000e+00  -5.7226432846633579e-01 1.7051559815853630e+00 0.0000000000000000e+00 1.7051559815853630e+00 2.4748551474106404e+02 0.0000000000000000e+00 0.0000000000000000e+00 0.0000000000000000e+00 0.0000000000000000e+00  1.3995763713723988e+00 3.4569757686075122e+00 0.0000000000000000e+00 3.4569757686075122e+00 2.4987262786802020e+02 0.0000000000000000e+00 0.0000000000000000e+00 0.0000000000000000e+00 0.0000000000000000e+00  -1.0952732278904702e+00 5.9274552759070280e+00 0.0000000000000000e+00 5.9274552759070280e+00 2.6939309330537628e+02 0.0000000000000000e+00 0.0000000000000000e+00 0.0000000000000000e+00 0.0000000000000000e+00  -1.2907798707746256e+00 8.2554827594087019e+00 0.0000000000000000e+00 8.2554827594087019e+00 2.9211196041116983e+02 0.0000000000000000e+00 0.0000000000000000e+00 0.0000000000000000e+00 0.0000000000000000e+00  -4.9336367212889707e+00 3.5055565867434826e+00 0.0000000000000000e+00 3.5055565867434826e+00 3.1335375699268553e+02 0.0000000000000000e+00 0.0000000000000000e+00 0.0000000000000000e+00 0.0000000000000000e+00  -1.0577304361506966e+01 -8.1892410991424942e+00 0.0000000000000000e+00 -8.1892410991424942e+00 3.0856514824906753e+02 0.0000000000000000e+00 0.0000000000000000e+00 0.0000000000000000e+00 0.0000000000000000e+00  -6.1998543668723372e+00 -2.6461994758608625e+01 0.0000000000000000e+00 -2.6461994758608625e+01 2.6938020919554339e+02 0.0000000000000000e+00 0.0000000000000000e+00 0.0000000000000000e+00 0.0000000000000000e+00  2.4361009870057915e+00 -2.3444040612413353e+01 0.0000000000000000e+00 -2.3444040612413353e+01 2.1472545201115238e+02 0.0000000000000000e+00 0.0000000000000000e+00 0.0000000000000000e+00 0.0000000000000000e+00  2.8211564086321964e+01 1.0548538685302076e+00 0.0000000000000000e+00 1.0548538685302076e+00 1.2468714178039002e+02 0.0000000000000000e+00 0.0000000000000000e+00 0.0000000000000000e+00 0.0000000000000000e+00  1.6644136225981875e+01 2.1938634154053737e+01 0.0000000000000000e+00 2.1938634154053737e+01 1.5322083731907318e+02 0.0000000000000000e+00 0.0000000000000000e+00 0.0000000000000000e+00 0.0000000000000000e+00  7.0592698341050051e+00 3.6258323011174596e+01 0.0000000000000000e+00 3.6258323011174596e+01 2.4882777701092090e+02 0.0000000000000000e+00 0.0000000000000000e+00 0.0000000000000000e+00 0.0000000000000000e+00  -9.2785188324011898e+00 2.7714843846534620e+01 0.0000000000000000e+00 2.7714843846534620e+01 3.4670128489406233e+02 0.0000000000000000e+00 0.0000000000000000e+00 0.0000000000000000e+00 0.0000000000000000e+00  -1.1314512872957371e+01 -1.8630194574163379e+01 0.0000000000000000e+00 -1.8630194574163379e+01 3.7962130269017229e+02 0.0000000000000000e+00 0.0000000000000000e+00 0.0000000000000000e+00 0.0000000000000000e+00  1.7577792882375892e+01 -8.1818816849489018e+00 0.0000000000000000e+00 -8.1818816849489018e+00 3.2185925765356859e+02 0.0000000000000000e+00 0.0000000000000000e+00 0.0000000000000000e+00 0.0000000000000000e+00  -1.1038942084859244e+01 9.2711995685361224e+00 0.0000000000000000e+00 9.2711995685361224e+00 3.3944995149063436e+02 0.0000000000000000e+00 0.0000000000000000e+00 0.0000000000000000e+00 0.0000000000000000e+00  -9.6806716099821988e-01 -1.2939238497364281e+01 0.0000000000000000e+00 -1.2939238497364281e+01 3.1397678223129412e+02 0.0000000000000000e+00 0.0000000000000000e+00 0.0000000000000000e+00 0.0000000000000000e+00  2.2387504859127274e+00 -1.5223804490954779e+01 0.0000000000000000e+00 -1.5223804490954779e+01 2.5794005189178785e+02 0.0000000000000000e+00 0.0000000000000000e+00 0.0000000000000000e+00 0.0000000000000000e+00  4.1633659605650664e+00 -3.1883417871563204e+00 0.0000000000000000e+00 -3.1883417871563204e+00 2.3522157699875825e+02 0.0000000000000000e+00 0.0000000000000000e+00 0.0000000000000000e+00 0.0000000000000000e+00  -4.5114493578318027e-01 3.0198932785228290e-02 0.0000000000000000e+00 3.0198932785228290e-02 2.2951326952962162e+02 0.0000000000000000e+00 0.0000000000000000e+00 0.0000000000000000e+00 0.0000000000000000e+00  -7.642