<?xml version="1.0"?>
<VTKFile type="UnstructuredGrid"  version="0.1"  >
<UnstructuredGrid>
<Piece  NumberOfPoints="3879" NumberOfCells="6881">
<Points>
<DataArray  type="Float64"  NumberOfComponents="3"  format="ascii">0.207524190028372 0.2122422770132111 0  0 0 0  1 0 0  0 1 0  1 1 0  0.6249674373315121 0.2590146544375328 0  0.204663578893616 0.322657230836866 0  0.09605577522599912 0.4018360776629776 0  0.671351124618251 0.08738059142081528 0  0.7842102907526436 0.1666439122351055 0  0.8512483166984784 0.1985391006160637 0  0.6418797837909295 0.4423157172830166 0  0.9292488447973215 0.3869277868069776 0  0.3197896119137055 0.5509935221980964 0  0.3979283685568406 0.5079871620336583 0  0.1572503457993085 0.7345153245035532 0  0.3032914287999163 0.7872981443735918 0  0.3549464687598876 0.8870324161721976 0  0.9691791685505482 0.5159450047798622 0  0.9447564590470373 0.6146164845729313 0  0.7687603548175107 0.7176858127488035 0  0.8926159261971183 0.7422924070424508 0  0.2061587782631535 0.2217389244366831 0  0.2021731605082994 0.2304662099646423 0  0.1958902278109265 0.2377171008267789 0  0.1878189860121365 0.2429041729681512 0  0.1786133191209442 0.2456072006525708 0  0.1690190155206647 0.2456072006525708 0  0.1598133486294724 0.2429041729681512 0  0.1517421068306824 0.2377171008267789 0  0.1454591741333096 0.2304662099646422 0  0.1414735563784554 0.221738924436683 0  0.1401081446132369 0.212242277013211 0  0.1414735563784555 0.202745629589739 0  0.1454591741333096 0.1940183440617798 0  0.1517421068306825 0.1867674531996431 0  0.1598133486294725 0.1815803810582709 0  0.1690190155206649 0.1788773533738513 0  0.1786133191209443 0.1788773533738514 0  0.1878189860121367 0.181580381058271 0  0.1958902278109266 0.1867674531996433 0  0.2021731605082994 0.19401834406178 0  0.2061587782631535 0.2027456295897391 0  0.03333333333333333 0 0  0.06666666666666667 0 0  0.1 0 0  0.1333333333333333 0 0  0.1666666666666667 0 0  0.2 0 0  0.2333333333333333 0 0  0.2666666666666667 0 0  0.3 0 0  0.3333333333333333 0 0  0.3666666666666666 0 0  0.4 0 0  0.4333333333333333 0 0  0.4666666666666667 0 0  0.5 0 0  0.5333333333333333 0 0  0.5666666666666667 0 0  0.6 0 0  0.6333333333333333 0 0  0.6666666666666666 0 0  0.7 0 0  0.7333333333333333 0 0  0.7666666666666667 0 0  0.8 0 0  0.8333333333333334 0 0  0.8666666666666667 0 0  0.9 0 0  0.9333333333333333 0 0  0.9666666666666667 0 0  0 0.9666666666666667 0  0 0.9333333333333333 0  0 0.9 0  0 0.8666666666666667 0  0 0.8333333333333334 0  0 0.8 0  0 0.7666666666666666 0  0 0.7333333333333334 0  0 0.7 0  0 0.6666666666666667 0  0 0.6333333333333333 0  0 0.6 0  0 0.5666666666666667 0  0 0.5333333333333333 0  0 0.5 0  0 0.4666666666666667 0  0 0.4333333333333333 0  0 0.4 0  0 0.3666666666666667 0  0 0.3333333333333334 0  0 0.3 0  0 0.2666666666666667 0  0 0.2333333333333333 0  0 0.2 0  0 0.1666666666666666 0  0 0.1333333333333333 0  0 0.09999999999999998 0  0 0.06666666666666665 0  0 0.03333333333333333 0  1 0.03333333333333333 0  1 0.06666666666666667 0  1 0.1 0  1 0.1333333333333333 0  1 0.1666666666666667 0  1 0.2 0  1 0.2333333333333333 0  1 0.2666666666666667 0  1 0.3 0  1 0.3333333333333333 0  1 0.3666666666666666 0  1 0.4 0  1 0.4333333333333333 0  1 0.4666666666666667 0  1 0.5 0  1 0.5333333333333333 0  1 0.5666666666666667 0  1 0.6 0  1 0.6333333333333333 0  1 0.6666666666666666 0  1 0.7 0  1 0.7333333333333333 0  1 0.7666666666666667 0  1 0.8 0  1 0.8333333333333334 0  1 0.8666666666666667 0  1 0.9 0  1 0.9333333333333333 0  1 0.9666666666666667 0  0.9666666666666667 1 0  0.9333333333333333 1 0  0.9 1 0  0.8666666666666667 1 0  0.8333333333333334 1 0  0.8 1 0  0.7666666666666666 1 0  0.7333333333333334 1 0  0.7 1 0  0.6666666666666667 1 0  0.6333333333333333 1 0  0.6 1 0  0.5666666666666667 1 0  0.5333333333333333 1 0  0.5 1 0  0.4666666666666667 1 0  0.4333333333333333 1 0  0.4 1 0  0.3666666666666667 1 0  0.3333333333333334 1 0  0.3 1 0  0.2666666666666667 1 0  0.2333333333333333 1 0  0.2 1 0  0.1666666666666666 1 0  0.1333333333333333 1 0  0.09999999999999998 1 0  0.06666666666666665 1 0  0.03333333333333333 1 0  0.6247072676344306 0.2689501343248463 0  0.6239274716502419 0.2788583817523955 0  0.6226301867455355 0.2887122389026952 0  0.6208189686880621 0.2984846970382296 0  0.6184987819006211 0.3081489705305245 0  0.6156759858539226 0.317678570277693 0  0.6123583176357204 0.3270473763092224 0  0.6085548707439923 0.3362297093789981 0  0.6042760701622942 0.3452004013503318 0  0.5995336437856049 0.3539348641800754 0  0.5943405902749808 0.3624091573127375 0  0.5887111434291297 0.3706000532998825 0  0.582660733170558 0.3784851014649517 0  0.5762059432532257 0.3860426894390078 0  0.5693644658076293 0.3932521023987353 0  0.5621550528479018 0.4000935798443317 0  0.5545974648738458 0.4065483697616639 0  0.5467124167087765 0.4125987800202355 0  0.5385215207216315 0.4182282268660866 0  0.5300472275889694 0.4234212803767108 0  0.5213127647592257 0.4281637067534002 0  0.512342072787892 0.4324425073350981 0  0.5031597397181163 0.4362459542268262 0  0.493790933686587 0.4395636224450283 0  0.4842613339394185 0.4423864184917269 0  0.4745970604471235 0.4447066052791678 0  0.4648246023115891 0.4465178233366412 0  0.4549707451612894 0.4478151082413475 0  0.4450624977337403 0.4485949042255363 0  0.4351270178464268 0.4488550739226177 0  0.4251915379591132 0.4485949042255363 0  0.4152832905315641 0.4478151082413475 0  0.4054294333812644 0.4465178233366411 0  0.39565697524573 0.4447066052791677 0  0.385992701753435 0.4423864184917267 0  0.3764631020062665 0.4395636224450281 0  0.3670942959747371 0.4362459542268259 0  0.3579119629049616 0.4324425073350978 0  0.3489412709336278 0.4281637067533998 0  0.3402068081038843 0.4234212803767103 0  0.3317325149712221 0.4182282268660862 0  0.3235416189840771 0.412598780020235 0  0.3156565708190078 0.4065483697616634 0  0.3080989828449519 0.4000935798443311 0  0.3008895698852244 0.3932521023987346 0  0.2940480924396279 0.3860426894390071 0  0.2875933025222958 0.3784851014649511 0  0.2815428922637242 0.3706000532998818 0  0.2759134454178731 0.3624091573127368 0  0.2707203919072489 0.3539348641800746 0  0.2659779655305596 0.3452004013503309 0  0.2616991649488616 0.3362297093789972 0  0.2578957180571336 0.3270473763092215 0  0.2545780498389315 0.3176785702776921 0  0.251755253792233 0.3081489705305236 0  0.249435067004792 0.2984846970382286 0  0.2476238489473186 0.2887122389026941 0  0.2463265640426123 0.2788583817523945 0  0.2455467680584236 0.2689501343248454 0  0.2452865983613423 0.2590146544375318 0  0.2455467680584237 0.2490791745502182 0  0.2463265640426126 0.2391709271226692 0  0.247623848947319 0.2293170699723696 0  0.2494350670047924 0.2195446118368351 0  0.2517552537922335 0.2098803383445402 0  0.2545780498389321 0.2003507385973717 0  0.2578957180571343 0.1909819325658423 0  0.2616991649488624 0.1817995994960667 0  0.2659779655305604 0.172828907524733 0  0.2707203919072498 0.1640944446949895 0  0.2759134454178741 0.1556201515623273 0  0.2815428922637251 0.1474292555751825 0  0.2875933025222969 0.1395442074101132 0  0.2940480924396291 0.1319866194360571 0  0.3008895698852256 0.1247772064763297 0  0.3080989828449531 0.1179357290307334 0  0.3156565708190092 0.1114809391134012 0  0.3235416189840785 0.1054305288548295 0  0.3317325149712236 0.09980108200897844 0  0.3402068081038856 0.0946080284983544 0  0.3489412709336291 0.08986560212166514 0  0.357911962904963 0.08558680153996717 0  0.3670942959747386 0.08178335464823916 0  0.3764631020062678 0.07846568643003712 0  0.3859927017534364 0.0756428903833386 0  0.3956569752457313 0.0733227035958976 0  0.4054294333812659 0.07151148553842429 0  0.4152832905315654 0.07021420063371797 0  0.4251915379591144 0.0694344046495293 0  0.435127017846428 0.0691742349524479 0  0.4450624977337415 0.06943440464952938 0  0.4549707451612905 0.07021420063371814 0  0.4648246023115901 0.07151148553842454 0  0.4745970604471245 0.07332270359589793 0  0.4842613339394195 0.07564289038333902 0  0.4937909336865879 0.07846568643003757 0  0.5031597397181173 0.0817833546482398 0  0.5123420727878929 0.08558680153996781 0  0.5213127647592265 0.08986560212166581 0  0.53004722758897 0.0946080284983552 0  0.5385215207216321 0.09980108200897933 0  0.5467124167087771 0.1054305288548305 0  0.5545974648738462 0.1114809391134021 0  0.5621550528479023 0.1179357290307343 0  0.5693644658076298 0.1247772064763308 0  0.576205943253226 0.1319866194360582 0  0.5826607331705582 0.1395442074101142 0  0.5887111434291299 0.1474292555751835 0  0.594340590274981 0.1556201515623285 0  0.5995336437856051 0.1640944446949906 0  0.6042760701622945 0.172828907524734 0  0.6085548707439925 0.1817995994960678 0  0.6123583176357205 0.1909819325658435 0  0.6156759858539227 0.2003507385973728 0  0.6184987819006211 0.2098803383445412 0  0.6208189686880622 0.2195446118368362 0  0.6226301867455355 0.2293170699723706 0  0.6239274716502419 0.2391709271226702 0  0.6247072676344306 0.2490791745502192 0  0.203885768735257 0.3325402459548524 0  0.2015714905276826 0.3421799084407872 0  0.1977777294810124 0.3513388578120612 0  0.1925979005829864 0.3597915703383434 0  0.1861595484119405 0.3673299121842922 0  0.1786212065659918 0.373768264355338 0  0.1701684940397096 0.378948093253364 0  0.1610095446684356 0.3827418543000342 0  0.1513698821825007 0.3850561325076086 0  0.1414868670645144 0.3858339426659677 0  0.1316038519465281 0.3850561325076086 0  0.1219641894605933 0.3827418543000343 0  0.1128052400893193 0.378948093253364 0  0.1043525275630371 0.3737682643553381 0  0.09681418571708833 0.3673299121842922 0  0.09037583354604248 0.3597915703383434 0  0.08519600464801645 0.3513388578120612 0  0.08140224360134621 0.3421799084407872 0  0.07908796539377183 0.3325402459548523 0  0.07831015523541281 0.3226572308368659 0  0.07908796539377186 0.3127742157188796 0  0.08140224360134626 0.3031345532329447 0  0.08519600464801655 0.2939756038616707 0  0.0903758335460426 0.2855228913353884 0  0.0968141857
[...]
<PointData  Tensors="$\sigma$"> 
<DataArray  type="Float64"  Name="$\sigma$"  NumberOfComponents="9" format="ascii">1.3163787940970280e+02 3.4015045902230924e+01 0.0000000000000000e+00 3.4015045902230973e+01 8.8482413573434897e+03 0.0000000000000000e+00 0.0000000000000000e+00 0.0000000000000000e+00 0.0000000000000000e+00  1.0690050954309484e+03 9.5843435986666790e+01 0.0000000000000000e+00 9.5843435986666819e+01 4.4207407648073240e+03 0.0000000000000000e+00 0.0000000000000000e+00 0.0000000000000000e+00 0.0000000000000000e+00  -2.0111388292698120e+01 -1.8113984193484576e+01 0.0000000000000000e+00 -1.8113984193484562e+01 4.7279627738656764e+03 0.0000000000000000e+00 0.0000000000000000e+00 0.0000000000000000e+00 0.0000000000000000e+00  7.1088696444732422e+00 -4.2084847701135599e+00 0.0000000000000000e+00 -4.2084847701135901e+00 4.5671460021289549e+03 0.0000000000000000e+00 0.0000000000000000e+00 0.0000000000000000e+00 0.0000000000000000e+00  8.6061259045172598e+00 9.3931928040084181e+00 0.0000000000000000e+00 9.3931928040084181e+00 4.3267051856400158e+03 0.0000000000000000e+00 0.0000000000000000e+00 0.0000000000000000e+00 0.0000000000000000e+00  7.5731782593009910e+01 7.8140358017423466e+01 0.0000000000000000e+00 7.8140358017423935e+01 8.8311740515040710e+03 0.0000000000000000e+00 0.0000000000000000e+00 0.0000000000000000e+00 0.0000000000000000e+00  -7.3306507936465948e+01 2.1565559585349163e+02 0.0000000000000000e+00 2.1565559585349084e+02 2.6424695796870367e+02 0.0000000000000000e+00 0.0000000000000000e+00 0.0000000000000000e+00 0.0000000000000000e+00  5.8369211458063501e+02 3.8192592367005909e+02 0.0000000000000000e+00 3.8192592367005943e+02 9.5800848064212769e+03 0.0000000000000000e+00 0.0000000000000000e+00 0.0000000000000000e+00 0.0000000000000000e+00  2.1755216539454116e+02 -2.9627220865454052e+02 0.0000000000000000e+00 -2.9627220865454069e+02 8.8541628473879882e+03 0.0000000000000000e+00 0.0000000000000000e+00 0.0000000000000000e+00 0.0000000000000000e+00  -2.2324539905757109e+02 7.0156416609524157e+01 0.0000000000000000e+00 7.0156416609524470e+01 -1.2790338892990756e+02 0.0000000000000000e+00 0.0000000000000000e+00 0.0000000000000000e+00 0.0000000000000000e+00  2.6098871213357220e+00 -2.8981959713593930e+01 0.0000000000000000e+00 -2.8981959713593827e+01 -7.8619086616952274e+01 0.0000000000000000e+00 0.0000000000000000e+00 0.0000000000000000e+00 0.0000000000000000e+00  1.1452975809746241e+02 3.7314359865403986e+02 0.0000000000000000e+00 3.7314359865404032e+02 4.9241714391401392e+03 0.0000000000000000e+00 0.0000000000000000e+00 0.0000000000000000e+00 0.0000000000000000e+00  -6.0443642403523398e+01 6.2961258522637287e+01 0.0000000000000000e+00 6.2961258522637046e+01 1.1310987784763924e+04 0.0000000000000000e+00 0.0000000000000000e+00 0.0000000000000000e+00 0.0000000000000000e+00  5.7259703223472876e+01 1.0477243324948151e+02 0.0000000000000000e+00 1.0477243324948154e+02 9.1116469883600585e+03 0.0000000000000000e+00 0.0000000000000000e+00 0.0000000000000000e+00 0.0000000000000000e+00  -8.1830666876421191e+01 -1.8842450248026651e+02 0.0000000000000000e+00 -1.8842450248026648e+02 -1.0800051548825897e+03 0.0000000000000000e+00 0.0000000000000000e+00 0.0000000000000000e+00 0.0000000000000000e+00  -1.7185161909859372e+02 -1.6208508669977999e+02 0.0000000000000000e+00 -1.6208508669977968e+02 -5.4134656953377350e+02 0.0000000000000000e+00 0.0000000000000000e+00 0.0000000000000000e+00 0.0000000000000000e+00  5.0860784546610930e+01 -1.2409891984995335e+02 0.0000000000000000e+00 -1.2409891984995349e+02 5.7447377496324361e+03 0.0000000000000000e+00 0.0000000000000000e+00 0.0000000000000000e+00 0.0000000000000000e+00  1.1930766156810034e+02 9.1623089223257452e+01 0.0000000000000000e+00 9.1623089223256926e+01 6.8423386651222918e+03 0.0000000000000000e+00 0.0000000000000000e+00 0.0000000000000000e+00 0.0000000000000000e+00  4.4838381815400944e+03 7.2229236224909403e+02 0.0000000000000000e+00 7.2229236224909505e+02 1.7509832470531579e+04 0.0000000000000000e+00 0.0000000000000000e+00 0.0000000000000000e+00 0.0000000000000000e+00  2.4853517320739772e+02 -3.0185601404390457e+02 0.0000000000000000e+00 -3.0185601404390468e+02 1.0621195517919585e+04 0.0000000000000000e+00 0.0000000000000000e+00 0.0000000000000000e+00 0.0000000000000000e+00  4.1269263027959660e+01 1.4544839478879595e+02 0.0000000000000000e+00 1.4544839478879541e+02 6.7438621454904251e+03 0.0000000000000000e+00 0.0000000000000000e+00 0.0000000000000000e+00 0.0000000000000000e+00  1.2335354044940895e+02 1.1934817766628669e+01 0.0000000000000000e+00 1.1934817766628603e+01 3.6274261752420334e+03 0.0000000000000000e+00 0.0000000000000000e+00 0.0000000000000000e+00 0.0000000000000000e+00  4.2886130402204532e+02 -1.1762388270115027e+03 0.0000000000000000e+00 -1.1762388270115034e+03 5.5590751768323253e+03 0.0000000000000000e+00 0.0000000000000000e+00 0.0000000000000000e+00 0.0000000000000000e+00  -2.2821232005044931e+02 -3.7130109826328658e+02 0.0000000000000000e+00 -3.7130109826328669e+02 1.5062453171151651e+03 0.0000000000000000e+00 0.0000000000000000e+00 0.0000000000000000e+00 0.0000000000000000e+00  -1.6388019792888749e+03 1.0552569996031993e+03 0.0000000000000000e+00 1.0552569996032005e+03 -7.1262843800488668e+02 0.0000000000000000e+00 0.0000000000000000e+00 0.0000000000000000e+00 0.0000000000000000e+00  -3.4151412892841104e+03 1.2295747188383364e+03 0.0000000000000000e+00 1.2295747188383366e+03 -7.0535993254706841e+02 0.0000000000000000e+00 0.0000000000000000e+00 0.0000000000000000e+00 0.0000000000000000e+00  -2.6249987122725311e+03 7.1609124564192985e+02 0.0000000000000000e+00 7.1609124564192814e+02 -4.3864426529605890e+02 0.0000000000000000e+00 0.0000000000000000e+00 0.0000000000000000e+00 0.0000000000000000e+00  1.1461406736071735e+03 1.8199052448420662e+03 0.0000000000000000e+00 1.8199052448420666e+03 1.1525077139584603e+03 0.0000000000000000e+00 0.0000000000000000e+00 0.0000000000000000e+00 0.0000000000000000e+00  5.7623794783712920e+03 3.7297466160422446e+03 0.0000000000000000e+00 3.7297466160422409e+03 2.1243149388111601e+03 0.0000000000000000e+00 0.0000000000000000e+00 0.0000000000000000e+00 0.0000000000000000e+00  5.7359252401840431e+03 4.5055933093102894e+03 0.0000000000000000e+00 4.5055933093102949e+03 4.1785996084377084e+03 0.0000000000000000e+00 0.0000000000000000e+00 0.0000000000000000e+00 0.0000000000000000e+00  2.5918976482464122e+03 3.4575739369815819e+03 0.0000000000000000e+00 3.4575739369815842e+03 4.8282142583475461e+03 0.0000000000000000e+00 0.0000000000000000e+00 0.0000000000000000e+00 0.0000000000000000e+00  9.2860911119795003e+02 1.5233385937692678e+03 0.0000000000000000e+00 1.5233385937692685e+03 4.0373752065718209e+03 0.0000000000000000e+00 0.0000000000000000e+00 0.0000000000000000e+00 0.0000000000000000e+00  7.3235961633407314e+01 2.4493964079655683e+02 0.0000000000000000e+00 2.4493964079655697e+02 3.4621317073325145e+03 0.0000000000000000e+00 0.0000000000000000e+00 0.0000000000000000e+00 0.0000000000000000e+00  1.5853680589951568e+02 -2.9241025630585727e+02 0.0000000000000000e+00 -2.9241025630585705e+02 1.6877611033070973e+03 0.0000000000000000e+00 0.0000000000000000e+00 0.0000000000000000e+00 0.0000000000000000e+00  -1.3659953141284427e+02 9.8965798742626717e+01 0.0000000000000000e+00 9.8965798742626475e+01 1.8733230306718752e+02 0.0000000000000000e+00 0.0000000000000000e+00 0.0000000000000000e+00 0.0000000000000000e+00  -1.0874997792965989e+03 7.7978794844748472e+02 0.0000000000000000e+00 7.7978794844748609e+02 -5.6804080283355756e+02 0.0000000000000000e+00 0.0000000000000000e+00 0.0000000000000000e+00 0.0000000000000000e+00  -2.1255979933769217e+03 8.4187526638251143e+02 0.0000000000000000e+00 8.4187526638251006e+02 -5.3219133392329945e+02 0.0000000000000000e+00 0.0000000000000000e+00 0.0000000000000000e+00 0.0000000000000000e+00  -2.2138946671078306e+03 4.5702104425242288e+02 0.0000000000000000e+00 4.5702104425242214e+02 -2.9270980929652012e+02 0.0000000000000000e+00 0.0000000000000000e+00 0.0000000000000000e+00 0.0000000000000000e+00  -1.0046460683637050e+03 2.8182365139008322e+01 0.0000000000000000e+00 2.8182365139007903e+01 6.5946603635516155e+01 0.0000000000000000e+00 0.0000000000000000e+00 0.0000000000000000e+00 0.0000000000000000e+00  1.1368385448210786e+03 8.0949368673376534e+02 0.0000000000000000e+00 8.0949368673376591e+02 4.7124112584270694e+02 0.0000000000000000e+00 0.0000000000000000e+00 0.0000000000000000e+00 0.0000000000000000e+00  2.3424296912020932e+03 2.0789001421030616e+03 0.0000000000000000e+00 2.0789001421030639e+03 2.4112430468904354e+03 0.0000000000000000e+00 0.0000000000000000e+00 0.0000000000000000e+00 0.0000000000000000e+00  1.9964030488943406e+03 3.1963729322159047e+03 0.0000000000000000e+00 3.1963729322159074e+03 5.4120772882604706e+03 0.0000000000000000e+00 0.0000000000000000e+00 0.0000000000000000e+00 0.0000000000000000e+00  1.2454876531522800e+03 2.0302423859271216e+03 0.0000000000000000e+00 2.0302423859271235e+03 8.0937150079371895e+03 0.0000000000000000e+00 0.0000000000000000e+00 0.0000000000000000e+00 0.0000000000000000e+00  3.7685477485504401e+02 -2.5918434672525893e+02 0.0000000000000000e+00 -2.5918434672525905e+02 3.7146380677180614e+03 0.0000000000000000e+00 0.0000000000000000e+00 0.0000000000000000e+00 0.0000000000000000e+00  -7.4770887529675107e+01 3.7018349838284607e+01 0.0000000000000000e+00 3.7018349838284536e+01 3.2539114402753034e+03 0.0000000000000000e+00 0.0000000000000000e+00 0.0000000000000000e+00 0.0000000000000000e+00  2.1978951429070403e+02 -1.0068543183619034e+00 0.0000000000000000e+00 -1.0068543183618841e+00 2.5046296801287544e+03 0.0000000000000000e+00 0.0000000000000000e+00 0.0000000000000000e+00 0.0000000000000000e+00  -1.1101650549014024e+00 3.1913750059200193e+01 0.0000000000000000e+00 3.1913750059200240e+01 2.1116887865734830e+03 0.0000000000000000e+00 0.0000000000000000e+00 0.0000000000000000e+00 0.0000000000000000e+00  7.9450495621297051e+01 3.2565304440286816e+01 0.0000000000000000e+00 3.2565304440286802e+01 1.6696052072382956e+03 0.0000000000000000e+00 0.0000000000000000e+00 0.0000000000000000e+00 0.0000000000000000e+00  -3.6755485719918326e+01 2.1594897905078007e+01 0.0000000000000000e+00 2.1594897905078007e+01 1.2690975277489140e+03 0.0000000000000000e+00 0.0000000000000000e+00 0.0000000000000000e+00 0.0000000000000000e+00  -6.7210178410102969e+01 9.4747963019244672e+00 0.0000000000000000e+00 9.4747963019244885e+00 9.2016258493376336e+02 0.0000000000000000e+00 0.0000000000000000e+00 0.0000000000000000e+00 0.0000000000000000e+00  -1.3397588737641004e+02 7.2636346702771499e+00 0.0000000000000000e+00 7.2636346702771331e+00 5.8058208130775597e+02 0.0000000000000000e+00 0.0000000000000000e+00 0.0000000000000000e+00 0.0000000000000000e+00  -1.2852111410511191e+02 7.8520525113376740e+00 0.0000000000000000e+00 7.8520525113376669e+00 2.4192491620883919e+02 0.0000000000000000e+00 0.0000000000000000e+00 0.0000000000000000e+00 0.0000000000000000e+00  -1.5492336381017984e+02 1.2339955908155316e+01 0.0000000000000000e+00 1.2339955908155263e+01 -2.5751609514411168e+01 0.0000000000000000e+00 0.0000000000000000e+00 0.0000000000000000e+00 0.0000000000000000e+00  -2.2136324276391323e+02 9.9441802549326166e+00 0.0000000000000000e+00 9.9441802549325953e+00 -1.3163786731197504e+02 0.0000000000000000e+00 0.0000000000000000e+00 0.0000000000000000e+00 0.0000000000000000e+00  -2.7669277023992322e+02 1.2445911216088491e-01 0.0000000000000000e+00 1.2445911216091277e-01 -1.3220962857175508e+02 0.0000000000000000e+00 0.0000000000000000e+00 0.0000000000000000e+00 0.0000000000000000e+00  -3.2091351488829349e+02 2.9714825711429058e+00 0.0000000000000000e+00 2.9714825711429049e+00 -6.6254377232877090e+01 0.0000000000000000e+00 0.0000000000000000e+00 0.0000000000000000e+00 0.0000000000000000e+00  -3.5205369879823013e+02 -5.9771742591520800e+00 0.0000000000000000e+00 -5.9771742591520427e+00 6.1583641586715402e+01 0.0000000000000000e+00 0.0000000000000000e+00 0.0000000000000000e+00 0.0000000000000000e+00  -4.4270668853107685e+02 5.2781904895746123e+00 0.0000000000000000e+00 5.2781904895744356e+00 3.5064718397993352e+02 0.0000000000000000e+00 0.0000000000000000e+00 0.0000000000000000e+00 0.0000000000000000e+00  -6.6829320111748632e+02 2.0187349630556909e+01 0.0000000000000000e+00 2.0187349630556902e+01 7.5747817905741601e+02 0.0000000000000000e+00 0.0000000000000000e+00 0.0000000000000000e+00 0.0000000000000000e+00  -1.0361688225193934e+03 4.9461919688304519e+01 0.0000000000000000e+00 4.9461919688304420e+01 1.1041103438057685e+03 0.0000000000000000e+00 0.0000000000000000e+00 0.0000000000000000e+00 0.0000000000000000e+00  -1.1883690260921294e+03 -5.2232054449691354e+01 0.0000000000000000e+00 -5.2232054449691368e+01 7.3233008956689491e+02 0.0000000000000000e+00 0.0000000000000000e+00 0.0000000000000000e+00 0.0000000000000000e+00  -9.0512626910066331e+02 7.3558148717386205e+00 0.0000000000000000e+00 7.3558148717385956e+00 -8.9344975904947731e+01 0.0000000000000000e+00 0.0000000000000000e+00 0.0000000000000000e+00 0.0000000000000000e+00  -1.0469866094882941e+03 4.4147532416131291e+01 0.0000000000000000e+00 4.4147532416131448e+01 4.7198918106907212e+02 0.0000000000000000e+00 0.0000000000000000e+00 0.0000000000000000e+00 0.0000000000000000e+00  -8.6344828372480538e+02 -3.2739210734912454e+01 0.0000000000000000e+00 -3.2739210734912504e+01 9.7806765956008883e+02 0.0000000000000000e+00 0.0000000000000000e+00 0.0000000000000000e+00 0.0000000000000000e+00  -3.8394527495097765e+02 -4.3255014647517385e+01 0.0000000000000000e+00 -4.3255014647517363e+01 5.9249255995012390e+02 0.0000000000000000e+00 0.0000000000000000e+00 0.0000000000000000e+00 0.0000000000000000e+00  1.1167606491123441e+02 -2.3173157877324726e+01 0.0000000000000000e+00 -2.3173157877324446e+01 4.4761505351659099e+02 0.0000000000000000e+00 0.0000000000000000e+00 0.0000000000000000e+00 0.0000000000000000e+00  2.0562282057755169e+02 -1.5130134180359141e+01 0.0000000000000000e+00 -1.5130134180359185e+01 6.1808790520543130e+02 0.0000000000000000e+00 0.0000000000000000e+00 0.0000000000000000e+00 0.0000000000000000e+00  2.3521513958683593e+02 -1.1505846117121351e+01 0.0000000000000000e+00 -1.1505846117121337e+01 1.1209762477791680e+03 0.0000000000000000e+00 0.0000000000000000e+00 0.0000000000000000e+00 0.0000000000000000e+00  1.8331152339867629e+02 -2.5456252051519108e+01 0.0000000000000000e+00 -2.5456252051519137e+01 1.7545255523235983e+03 0.0000000000000000e+00 0.0000000000000000e+00 0.0000000000000000e+00 0.0000000000000000e+00  1.8978253324481037e+02 -2.1672615359161771e+01 0.0000000000000000e+00 -2.1672615359161689e+01 2.4963071842491931e+03 0.0000000000000000e+00 0.0000000000000000e+00 0.0000000000000000e+00 0.0000000000000000e+00  4.3658511193006362e+01 -1.4881882450660004e+01 0.0000000000000000e+00 -1.4881882450660058e+01 3.3238202633372139e+03 0.0000000000000000e+00 0.0000000000000000e+00 0.0000000000000000e+00 0.0000000000000000e+00  7.0989297133479241e+01 -2.3091773541368077e+01 0.0000000000000000e+00 -2.3091773541368099e+01 4.0402509102661375e+03 0.0000000000000000e+00 0.0000000000000000e+00 0.0000000000000000e+00 0.0000000000000000e+00  2.5550660642244267e+00 3.2777630145352461e+01 0.0000000000000000e+00 3.2777630145352497e+01 4.6096352712017251e+03 0.0000000000000000e+00 0.0000000000000000e+00 0.0000000000000000e+00 0.0000000000000000e+00  2.2044869743832147e+00 1.2039875616327128e+01 0.0000000000000000e+00 1.2039875616327166e+01 4.7681641844176829e+03 0.0000000000000000e+00 0.0000000000000000e+00 0.0000000000000000e+00 0.0000000000000000e+00  -3.8566343955692570e+00 2.8198847667261521e+01 0.0000000000000000e+00 2.8198847667261646e+01 4.8619443343287603e+03 0.0000000000000000e+00 0.0000000000000000e+00 0.0000000000000000e+00 0.0000000000000000e+00  -7.2774873675021103e+00 1.1235617509313496e+01 0.0000000000000000e+00 1.1235617509313508e+01 5.0076153763767961e+03 0.0000000000000000e+00 0.0000000000000000e+00 0.0000000000000000e+00 0.0000000000000000e+00  1.4370724406724044e+01 8.3963656271110256e+00 0.0000000000000000e+00 8.3963656271109581e+00 5.1914048422137075e+03 0.0000000000000000e+00 0.0000000000000000e+00 0.0000000000000000e+00 0.0000000000000000e+00  -4.0829457284584292e+00 4.3988278030533387e+01 0.0000000000000000e+00 4.3988278030533301e+01 5.2546862304340430e+03 0.0000000000000000e+00 0.0000000000000000e+00 0.0000000000000000e+00 0.0000000000000000e+00  -2.8215651620769556e+01 5.6622605588698654e+01 0.0000000000000000e+00 5.6622605588698512e+01 5.6667499668668224e+03 0.0000000000000000e+00 0.0000000000000000e+00 0.0000000000000000e+00 0.0000000000000000e+00  -1.1743274379492572e+00 1.1034818299725939e+02 0.0000000000000000e+00 1.1034818299725957e+02 6.1704869657166910e+03 0.0000000000000000e+00 0.0000000000000000e+00 0.0000000000000000e+00 0.0000000000000000e+00  -2.4412077135614087e+01 3.5775167864014257e+01 0.0000000000000000e+00 3.5775167864014207e+01 6.8821936230438068e+03 0.0000000000000000e+00 0.0000000000000000e+00 0.0000000000000000e+00 0.0000000000000000e+00  -5.2942796806476466e+01 -8.9504807623734038e+01 0.0000000000000000e+00 -8.9504807623734038e+01 6.7960959282517370e+03 0.0000000000000000e+00 0.0000000000000000e+00 0.0000000000000000e+00 0.0000000000000000e+00  -1.1431687908803782e+02 -3.6291624257246065e+02 0.0000000000000000e+00 -3.6291624257246036e+02 5.8416561501476144e+03 0.0000000000000000e+00 0.0000000000000000e+00 0.0000000000000000e+00 0.0000000000000000e+00  -8.8693462502214018e+01 -5.8374105190923194e+02 0.0000000000000000e+00 -5.8374105190923171e+02 4.1989130455579216e+03 0.0000000000000000e+00 0.0000000000000000e+00 0.0000000000000000e+00 0.0000000000000000e+00  1.8811995782462733e+02 8.8076592794768231e+01 0.0000000000000000e+00 8.8076592794768175e+01 2.1991432310646765e+03 0.0000000000000000e+00 0.0000000000000000e+00 0.0000000000000000e+00 0.0000000000000000e+00  1.6941728544745271e+02 3.9171983213991541e+02 0.0000000000000000e+00 3.9171983213991490e+02 2.2810503995792578e+03 0.0000000000000000e+00 0.0000000000000000e+00 0.0000000000000000e+00 0.0000000000000000e+00  1.6328795436290669e+01 4.3805427897833960e+02 0.0000000000000000e+00 4.3805427897833914e+02 5.4700766089978979e+03 0.0000000000000000e+00 0.0000000000000000e+00 0.0000000000000000e+00 0.0000000000000000e+00  -7.6661394417222595e-01 2.9383693746633463e+02 0.0000000000000000e+00 2.9383693746633406e+02 8.0854490147916549e+03 0.0000000000000000e+00 0.0000000000000000e+00 0.0000000000000000e+00 0.0000000000000000e+00  2.8625939168757114e+01 -3.7674110339765832e+02 0.0000000000000000e+00 -3.7674110339765861e+02 8.6497319811990365e+03 0.0000000000000000e+00 0.0000000000000000e+00 0.0000000000000000e+00 0.0000000000000000e+00  -1.8322001200093673e+01 -1.5444725834196109e+02 0.0000000000000000e+00 -1.5444725834196140e+02 5.6656558593625814e+03 0.0000000000000000e+00 0.0000000000000000e+00 0.0000000000000000e+00 0.0000000000000000e+00  -1.8747144876660894e+02 2.4852845359719495e+02 0.0000000000000000e+00 2.4852845359719481e+02 7.2289195271465069e+03 0.0000000000000000e+00 0.0000000000000000e+00 0.0000000000000000e+00 0.0000000000000000e+00  1.0902491152481258e-01 -1.8178888892960066e+02 0.0000000000000000e+00 -1.8178888892960018e+02 6.9856700717446056e+03 0.0000000000000000e+00 0.0000000000000000e+00 0.0000000000000000e+00 0.0000000000000000e+00  -4.5288362638182136e+01 -2.1939925925905516e+02 0.0000000000000000e+00 -2.1939925925905470e+02 5.3385535752737578e+03 0.0000000000000000e+00 0.0000000000000000e+00 0.0000000000000000e+00 0.0000000000000000e+00  5.3779873117169231e+01 -4.6476257486758952e+00 0.0000000000000000e+00 -4.6476257486760248e+00 4.9565215215808312e+03 0.0000000000000000e+00 0.0000000000000000e+00 0.0000000000000000e+00 0.0000000000000000e+00  -3.7966541669270171e+01 -8.8476545328050413e+00 0.0000000000000000e+00 -8.8476545328050982e+00 4.8250681677708844e+03 0.0000000000000000e+00 0.0000000000000000e+00 0.0000000000000000e+00 0.0000000000000000e