<?xml version="1.0"?>
<VTKFile type="UnstructuredGrid"  version="0.1"  >
<UnstructuredGrid>
<Piece  NumberOfPoints="3879" NumberOfCells="6881">
<Points>
<DataArray  type="Float64"  NumberOfComponents="3"  format="ascii">0.207524190028372 0.2122422770132111 0  0 0 0  1 0 0  0 1 0  1 1 0  0.6249674373315121 0.2590146544375328 0  0.204663578893616 0.322657230836866 0  0.09605577522599912 0.4018360776629776 0  0.671351124618251 0.08738059142081528 0  0.7842102907526436 0.1666439122351055 0  0.8512483166984784 0.1985391006160637 0  0.6418797837909295 0.4423157172830166 0  0.9292488447973215 0.3869277868069776 0  0.3197896119137055 0.5509935221980964 0  0.3979283685568406 0.5079871620336583 0  0.1572503457993085 0.7345153245035532 0  0.3032914287999163 0.7872981443735918 0  0.3549464687598876 0.8870324161721976 0  0.9691791685505482 0.5159450047798622 0  0.9447564590470373 0.6146164845729313 0  0.7687603548175107 0.7176858127488035 0  0.8926159261971183 0.7422924070424508 0  0.2061587782631535 0.2217389244366831 0  0.2021731605082994 0.2304662099646423 0  0.1958902278109265 0.2377171008267789 0  0.1878189860121365 0.2429041729681512 0  0.1786133191209442 0.2456072006525708 0  0.1690190155206647 0.2456072006525708 0  0.1598133486294724 0.2429041729681512 0  0.1517421068306824 0.2377171008267789 0  0.1454591741333096 0.2304662099646422 0  0.1414735563784554 0.221738924436683 0  0.1401081446132369 0.212242277013211 0  0.1414735563784555 0.202745629589739 0  0.1454591741333096 0.1940183440617798 0  0.1517421068306825 0.1867674531996431 0  0.1598133486294725 0.1815803810582709 0  0.1690190155206649 0.1788773533738513 0  0.1786133191209443 0.1788773533738514 0  0.1878189860121367 0.181580381058271 0  0.1958902278109266 0.1867674531996433 0  0.2021731605082994 0.19401834406178 0  0.2061587782631535 0.2027456295897391 0  0.03333333333333333 0 0  0.06666666666666667 0 0  0.1 0 0  0.1333333333333333 0 0  0.1666666666666667 0 0  0.2 0 0  0.2333333333333333 0 0  0.2666666666666667 0 0  0.3 0 0  0.3333333333333333 0 0  0.3666666666666666 0 0  0.4 0 0  0.4333333333333333 0 0  0.4666666666666667 0 0  0.5 0 0  0.5333333333333333 0 0  0.5666666666666667 0 0  0.6 0 0  0.6333333333333333 0 0  0.6666666666666666 0 0  0.7 0 0  0.7333333333333333 0 0  0.7666666666666667 0 0  0.8 0 0  0.8333333333333334 0 0  0.8666666666666667 0 0  0.9 0 0  0.9333333333333333 0 0  0.9666666666666667 0 0  0 0.9666666666666667 0  0 0.9333333333333333 0  0 0.9 0  0 0.8666666666666667 0  0 0.8333333333333334 0  0 0.8 0  0 0.7666666666666666 0  0 0.7333333333333334 0  0 0.7 0  0 0.6666666666666667 0  0 0.6333333333333333 0  0 0.6 0  0 0.5666666666666667 0  0 0.5333333333333333 0  0 0.5 0  0 0.4666666666666667 0  0 0.4333333333333333 0  0 0.4 0  0 0.3666666666666667 0  0 0.3333333333333334 0  0 0.3 0  0 0.2666666666666667 0  0 0.2333333333333333 0  0 0.2 0  0 0.1666666666666666 0  0 0.1333333333333333 0  0 0.09999999999999998 0  0 0.06666666666666665 0  0 0.03333333333333333 0  1 0.03333333333333333 0  1 0.06666666666666667 0  1 0.1 0  1 0.1333333333333333 0  1 0.1666666666666667 0  1 0.2 0  1 0.2333333333333333 0  1 0.2666666666666667 0  1 0.3 0  1 0.3333333333333333 0  1 0.3666666666666666 0  1 0.4 0  1 0.4333333333333333 0  1 0.4666666666666667 0  1 0.5 0  1 0.5333333333333333 0  1 0.5666666666666667 0  1 0.6 0  1 0.6333333333333333 0  1 0.6666666666666666 0  1 0.7 0  1 0.7333333333333333 0  1 0.7666666666666667 0  1 0.8 0  1 0.8333333333333334 0  1 0.8666666666666667 0  1 0.9 0  1 0.9333333333333333 0  1 0.9666666666666667 0  0.9666666666666667 1 0  0.9333333333333333 1 0  0.9 1 0  0.8666666666666667 1 0  0.8333333333333334 1 0  0.8 1 0  0.7666666666666666 1 0  0.7333333333333334 1 0  0.7 1 0  0.6666666666666667 1 0  0.6333333333333333 1 0  0.6 1 0  0.5666666666666667 1 0  0.5333333333333333 1 0  0.5 1 0  0.4666666666666667 1 0  0.4333333333333333 1 0  0.4 1 0  0.3666666666666667 1 0  0.3333333333333334 1 0  0.3 1 0  0.2666666666666667 1 0  0.2333333333333333 1 0  0.2 1 0  0.1666666666666666 1 0  0.1333333333333333 1 0  0.09999999999999998 1 0  0.06666666666666665 1 0  0.03333333333333333 1 0  0.6247072676344306 0.2689501343248463 0  0.6239274716502419 0.2788583817523955 0  0.6226301867455355 0.2887122389026952 0  0.6208189686880621 0.2984846970382296 0  0.6184987819006211 0.3081489705305245 0  0.6156759858539226 0.317678570277693 0  0.6123583176357204 0.3270473763092224 0  0.6085548707439923 0.3362297093789981 0  0.6042760701622942 0.3452004013503318 0  0.5995336437856049 0.3539348641800754 0  0.5943405902749808 0.3624091573127375 0  0.5887111434291297 0.3706000532998825 0  0.582660733170558 0.3784851014649517 0  0.5762059432532257 0.3860426894390078 0  0.5693644658076293 0.3932521023987353 0  0.5621550528479018 0.4000935798443317 0  0.5545974648738458 0.4065483697616639 0  0.5467124167087765 0.4125987800202355 0  0.5385215207216315 0.4182282268660866 0  0.5300472275889694 0.4234212803767108 0  0.5213127647592257 0.4281637067534002 0  0.512342072787892 0.4324425073350981 0  0.5031597397181163 0.4362459542268262 0  0.493790933686587 0.4395636224450283 0  0.4842613339394185 0.4423864184917269 0  0.4745970604471235 0.4447066052791678 0  0.4648246023115891 0.4465178233366412 0  0.4549707451612894 0.4478151082413475 0  0.4450624977337403 0.4485949042255363 0  0.4351270178464268 0.4488550739226177 0  0.4251915379591132 0.4485949042255363 0  0.4152832905315641 0.4478151082413475 0  0.4054294333812644 0.4465178233366411 0  0.39565697524573 0.4447066052791677 0  0.385992701753435 0.4423864184917267 0  0.3764631020062665 0.4395636224450281 0  0.3670942959747371 0.4362459542268259 0  0.3579119629049616 0.4324425073350978 0  0.3489412709336278 0.4281637067533998 0  0.3402068081038843 0.4234212803767103 0  0.3317325149712221 0.4182282268660862 0  0.3235416189840771 0.412598780020235 0  0.3156565708190078 0.4065483697616634 0  0.3080989828449519 0.4000935798443311 0  0.3008895698852244 0.3932521023987346 0  0.2940480924396279 0.3860426894390071 0  0.2875933025222958 0.3784851014649511 0  0.2815428922637242 0.3706000532998818 0  0.2759134454178731 0.3624091573127368 0  0.2707203919072489 0.3539348641800746 0  0.2659779655305596 0.3452004013503309 0  0.2616991649488616 0.3362297093789972 0  0.2578957180571336 0.3270473763092215 0  0.2545780498389315 0.3176785702776921 0  0.251755253792233 0.3081489705305236 0  0.249435067004792 0.2984846970382286 0  0.2476238489473186 0.2887122389026941 0  0.2463265640426123 0.2788583817523945 0  0.2455467680584236 0.2689501343248454 0  0.2452865983613423 0.2590146544375318 0  0.2455467680584237 0.2490791745502182 0  0.2463265640426126 0.2391709271226692 0  0.247623848947319 0.2293170699723696 0  0.2494350670047924 0.2195446118368351 0  0.2517552537922335 0.2098803383445402 0  0.2545780498389321 0.2003507385973717 0  0.2578957180571343 0.1909819325658423 0  0.2616991649488624 0.1817995994960667 0  0.2659779655305604 0.172828907524733 0  0.2707203919072498 0.1640944446949895 0  0.2759134454178741 0.1556201515623273 0  0.2815428922637251 0.1474292555751825 0  0.2875933025222969 0.1395442074101132 0  0.2940480924396291 0.1319866194360571 0  0.3008895698852256 0.1247772064763297 0  0.3080989828449531 0.1179357290307334 0  0.3156565708190092 0.1114809391134012 0  0.3235416189840785 0.1054305288548295 0  0.3317325149712236 0.09980108200897844 0  0.3402068081038856 0.0946080284983544 0  0.3489412709336291 0.08986560212166514 0  0.357911962904963 0.08558680153996717 0  0.3670942959747386 0.08178335464823916 0  0.3764631020062678 0.07846568643003712 0  0.3859927017534364 0.0756428903833386 0  0.3956569752457313 0.0733227035958976 0  0.4054294333812659 0.07151148553842429 0  0.4152832905315654 0.07021420063371797 0  0.4251915379591144 0.0694344046495293 0  0.435127017846428 0.0691742349524479 0  0.4450624977337415 0.06943440464952938 0  0.4549707451612905 0.07021420063371814 0  0.4648246023115901 0.07151148553842454 0  0.4745970604471245 0.07332270359589793 0  0.4842613339394195 0.07564289038333902 0  0.4937909336865879 0.07846568643003757 0  0.5031597397181173 0.0817833546482398 0  0.5123420727878929 0.08558680153996781 0  0.5213127647592265 0.08986560212166581 0  0.53004722758897 0.0946080284983552 0  0.5385215207216321 0.09980108200897933 0  0.5467124167087771 0.1054305288548305 0  0.5545974648738462 0.1114809391134021 0  0.5621550528479023 0.1179357290307343 0  0.5693644658076298 0.1247772064763308 0  0.576205943253226 0.1319866194360582 0  0.5826607331705582 0.1395442074101142 0  0.5887111434291299 0.1474292555751835 0  0.594340590274981 0.1556201515623285 0  0.5995336437856051 0.1640944446949906 0  0.6042760701622945 0.172828907524734 0  0.6085548707439925 0.1817995994960678 0  0.6123583176357205 0.1909819325658435 0  0.6156759858539227 0.2003507385973728 0  0.6184987819006211 0.2098803383445412 0  0.6208189686880622 0.2195446118368362 0  0.6226301867455355 0.2293170699723706 0  0.6239274716502419 0.2391709271226702 0  0.6247072676344306 0.2490791745502192 0  0.203885768735257 0.3325402459548524 0  0.2015714905276826 0.3421799084407872 0  0.1977777294810124 0.3513388578120612 0  0.1925979005829864 0.3597915703383434 0  0.1861595484119405 0.3673299121842922 0  0.1786212065659918 0.373768264355338 0  0.1701684940397096 0.378948093253364 0  0.1610095446684356 0.3827418543000342 0  0.1513698821825007 0.3850561325076086 0  0.1414868670645144 0.3858339426659677 0  0.1316038519465281 0.3850561325076086 0  0.1219641894605933 0.3827418543000343 0  0.1128052400893193 0.378948093253364 0  0.1043525275630371 0.3737682643553381 0  0.09681418571708833 0.3673299121842922 0  0.09037583354604248 0.3597915703383434 0  0.08519600464801645 0.3513388578120612 0  0.08140224360134621 0.3421799084407872 0  0.07908796539377183 0.3325402459548523 0  0.07831015523541281 0.3226572308368659 0  0.07908796539377186 0.3127742157188796 0  0.08140224360134626 0.3031345532329447 0  0.08519600464801655 0.2939756038616707 0  0.0903758335460426 0.2855228913353884 0  0.0968141857
[...]
<PointData  Tensors="$\sigma$"> 
<DataArray  type="Float64"  Name="$\sigma$"  NumberOfComponents="9" format="ascii">2.1304150675678881e+02 2.4106522726824117e+01 0.0000000000000000e+00 2.4106522726823933e+01 1.2770333276756957e+04 0.0000000000000000e+00 0.0000000000000000e+00 0.0000000000000000e+00 0.0000000000000000e+00  1.4929315027243219e+03 1.1218550541719621e+02 0.0000000000000000e+00 1.1218550541719637e+02 6.2207806996449362e+03 0.0000000000000000e+00 0.0000000000000000e+00 0.0000000000000000e+00 0.0000000000000000e+00  -3.2371097830268077e+01 -2.6919508639747296e+01 0.0000000000000000e+00 -2.6919508639747288e+01 6.3666261780124833e+03 0.0000000000000000e+00 0.0000000000000000e+00 0.0000000000000000e+00 0.0000000000000000e+00  8.3132138913041000e+00 -5.4687144608618574e+00 0.0000000000000000e+00 -5.4687144608619063e+00 6.5695922496058165e+03 0.0000000000000000e+00 0.0000000000000000e+00 0.0000000000000000e+00 0.0000000000000000e+00  8.4606585558091432e+00 1.3182962628156080e+01 0.0000000000000000e+00 1.3182962628156107e+01 5.7068419835018349e+03 0.0000000000000000e+00 0.0000000000000000e+00 0.0000000000000000e+00 0.0000000000000000e+00  2.1573625964615863e+02 -1.0941567186151006e+02 0.0000000000000000e+00 -1.0941567186150942e+02 1.2201596209481322e+04 0.0000000000000000e+00 0.0000000000000000e+00 0.0000000000000000e+00 0.0000000000000000e+00  -1.0659925260542585e+02 3.5093598696174826e+02 0.0000000000000000e+00 3.5093598696174814e+02 -2.1696860010733722e+01 0.0000000000000000e+00 0.0000000000000000e+00 0.0000000000000000e+00 0.0000000000000000e+00  7.1154920493069517e+02 3.3772171382627386e+02 0.0000000000000000e+00 3.3772171382627431e+02 1.3196610104711530e+04 0.0000000000000000e+00 0.0000000000000000e+00 0.0000000000000000e+00 0.0000000000000000e+00  5.4077221746306421e+01 -2.4593278013046867e+02 0.0000000000000000e+00 -2.4593278013046850e+02 1.2601865429956919e+04 0.0000000000000000e+00 0.0000000000000000e+00 0.0000000000000000e+00 0.0000000000000000e+00  -4.1158528596923946e+02 1.6901939836976035e+02 0.0000000000000000e+00 1.6901939836976047e+02 -4.2183502608012054e+02 0.0000000000000000e+00 0.0000000000000000e+00 0.0000000000000000e+00 0.0000000000000000e+00  -1.7942505867909212e+01 -8.3851051280687770e+01 0.0000000000000000e+00 -8.3851051280687798e+01 -6.8462078723445939e+02 0.0000000000000000e+00 0.0000000000000000e+00 0.0000000000000000e+00 0.0000000000000000e+00  2.1637433146460094e+02 5.1601849958119340e+02 0.0000000000000000e+00 5.1601849958119431e+02 7.1697763294505294e+03 0.0000000000000000e+00 0.0000000000000000e+00 0.0000000000000000e+00 0.0000000000000000e+00  1.4125383300640468e+02 -3.4206715805138060e+01 0.0000000000000000e+00 -3.4206715805138074e+01 1.1648608996890465e+04 0.0000000000000000e+00 0.0000000000000000e+00 0.0000000000000000e+00 0.0000000000000000e+00  2.0548173691309032e+02 6.5743845621677281e+01 0.0000000000000000e+00 6.5743845621677423e+01 1.2164069004555993e+04 0.0000000000000000e+00 0.0000000000000000e+00 0.0000000000000000e+00 0.0000000000000000e+00  -1.2916618557057205e+02 -2.4075430988503285e+02 0.0000000000000000e+00 -2.4075430988503129e+02 -1.5877192980904201e+03 0.0000000000000000e+00 0.0000000000000000e+00 0.0000000000000000e+00 0.0000000000000000e+00  -4.1033289254235240e+02 -2.5315599948776199e+02 0.0000000000000000e+00 -2.5315599948776227e+02 -1.9862394311964708e+03 0.0000000000000000e+00 0.0000000000000000e+00 0.0000000000000000e+00 0.0000000000000000e+00  1.6671225163958159e+01 -1.3243812608800516e+02 0.0000000000000000e+00 -1.3243812608800641e+02 7.9627840140476874e+03 0.0000000000000000e+00 0.0000000000000000e+00 0.0000000000000000e+00 0.0000000000000000e+00  1.3205163071246818e+02 1.1980305763751311e+02 0.0000000000000000e+00 1.1980305763751333e+02 1.0208826466330160e+04 0.0000000000000000e+00 0.0000000000000000e+00 0.0000000000000000e+00 0.0000000000000000e+00  6.2436902793565796e+03 6.9188902224377011e+02 0.0000000000000000e+00 6.9188902224377080e+02 1.8546244004761487e+04 0.0000000000000000e+00 0.0000000000000000e+00 0.0000000000000000e+00 0.0000000000000000e+00  1.2011891067313493e+03 2.0004213623887429e+02 0.0000000000000000e+00 2.0004213623887441e+02 1.2923846601845902e+04 0.0000000000000000e+00 0.0000000000000000e+00 0.0000000000000000e+00 0.0000000000000000e+00  4.7081553512323076e+01 1.9060624096494323e+02 0.0000000000000000e+00 1.9060624096494195e+02 1.0091012138879943e+04 0.0000000000000000e+00 0.0000000000000000e+00 0.0000000000000000e+00 0.0000000000000000e+00  1.1127858826291316e+02 5.3090641887868394e+01 0.0000000000000000e+00 5.3090641887867918e+01 4.6253668461519701e+03 0.0000000000000000e+00 0.0000000000000000e+00 0.0000000000000000e+00 0.0000000000000000e+00  6.6176505166598247e+02 -1.8345614223068549e+03 0.0000000000000000e+00 -1.8345614223068544e+03 8.0900886384680161e+03 0.0000000000000000e+00 0.0000000000000000e+00 0.0000000000000000e+00 0.0000000000000000e+00  -2.6056447780485411e+02 -6.1393852982877365e+02 0.0000000000000000e+00 -6.1393852982877388e+02 2.1673692693334797e+03 0.0000000000000000e+00 0.0000000000000000e+00 0.0000000000000000e+00 0.0000000000000000e+00  -2.3053190073006454e+03 1.4813334081810874e+03 0.0000000000000000e+00 1.4813334081810915e+03 -1.0216915899392883e+03 0.0000000000000000e+00 0.0000000000000000e+00 0.0000000000000000e+00 0.0000000000000000e+00  -5.2046575542359851e+03 1.8631929372976738e+03 0.0000000000000000e+00 1.8631929372976790e+03 -9.8078255442596105e+02 0.0000000000000000e+00 0.0000000000000000e+00 0.0000000000000000e+00 0.0000000000000000e+00  -4.0136271551714822e+03 1.0019866899308877e+03 0.0000000000000000e+00 1.0019866899308853e+03 -6.6454813008752421e+02 0.0000000000000000e+00 0.0000000000000000e+00 0.0000000000000000e+00 0.0000000000000000e+00  1.5392684100724950e+03 2.6659773813917905e+03 0.0000000000000000e+00 2.6659773813917886e+03 1.6588753434317125e+03 0.0000000000000000e+00 0.0000000000000000e+00 0.0000000000000000e+00 0.0000000000000000e+00  8.6358454379714767e+03 5.4953105026829035e+03 0.0000000000000000e+00 5.4953105026829044e+03 3.0649644664827106e+03 0.0000000000000000e+00 0.0000000000000000e+00 0.0000000000000000e+00 0.0000000000000000e+00  8.4715781650960998e+03 6.3944483651527225e+03 0.0000000000000000e+00 6.3944483651527298e+03 6.3851877012788091e+03 0.0000000000000000e+00 0.0000000000000000e+00 0.0000000000000000e+00 0.0000000000000000e+00  3.7404461456230911e+03 5.2221006528179851e+03 0.0000000000000000e+00 5.2221006528179887e+03 7.2528096019546047e+03 0.0000000000000000e+00 0.0000000000000000e+00 0.0000000000000000e+00 0.0000000000000000e+00  1.3322971112358903e+03 2.2646867779558474e+03 0.0000000000000000e+00 2.2646867779558479e+03 5.9820352931235211e+03 0.0000000000000000e+00 0.0000000000000000e+00 0.0000000000000000e+00 0.0000000000000000e+00  4.7341867206387306e+01 3.6474439016952454e+02 0.0000000000000000e+00 3.6474439016952488e+02 4.9567593274143310e+03 0.0000000000000000e+00 0.0000000000000000e+00 0.0000000000000000e+00 0.0000000000000000e+00  1.9231783655015496e+02 -3.4936443494864028e+02 0.0000000000000000e+00 -3.4936443494864022e+02 2.1807888529878269e+03 0.0000000000000000e+00 0.0000000000000000e+00 0.0000000000000000e+00 0.0000000000000000e+00  -3.1494906453722757e+02 2.8662557225650318e+02 0.0000000000000000e+00 2.8662557225650261e+02 -5.7989310821144411e+00 0.0000000000000000e+00 0.0000000000000000e+00 0.0000000000000000e+00 0.0000000000000000e+00  -1.7115130745539534e+03 1.2906890098839856e+03 0.0000000000000000e+00 1.2906890098839870e+03 -1.0082025127782929e+03 0.0000000000000000e+00 0.0000000000000000e+00 0.0000000000000000e+00 0.0000000000000000e+00  -3.2526455810252214e+03 1.3318569004235474e+03 0.0000000000000000e+00 1.3318569004235453e+03 -8.3875666650972585e+02 0.0000000000000000e+00 0.0000000000000000e+00 0.0000000000000000e+00 0.0000000000000000e+00  -3.3207118921213028e+03 6.8180626479043326e+02 0.0000000000000000e+00 6.8180626479043258e+02 -4.1661772254232221e+02 0.0000000000000000e+00 0.0000000000000000e+00 0.0000000000000000e+00 0.0000000000000000e+00  -1.5125763204611890e+03 5.3841806065220137e+00 0.0000000000000000e+00 5.3841806065205287e+00 9.9998121645762382e+01 0.0000000000000000e+00 0.0000000000000000e+00 0.0000000000000000e+00 0.0000000000000000e+00  1.6909046955485819e+03 1.1476455760089045e+03 0.0000000000000000e+00 1.1476455760089036e+03 6.2622428518487629e+02 0.0000000000000000e+00 0.0000000000000000e+00 0.0000000000000000e+00 0.0000000000000000e+00  3.4422507405109714e+03 3.0127145399180745e+03 0.0000000000000000e+00 3.0127145399180736e+03 3.3956289298988481e+03 0.0000000000000000e+00 0.0000000000000000e+00 0.0000000000000000e+00 0.0000000000000000e+00  2.8871784470513658e+03 4.6410009041142412e+03 0.0000000000000000e+00 4.6410009041142503e+03 7.7328958170289088e+03 0.0000000000000000e+00 0.0000000000000000e+00 0.0000000000000000e+00 0.0000000000000000e+00  1.7163402518352057e+03 2.9831409817133708e+03 0.0000000000000000e+00 2.9831409817133722e+03 1.1754576793359643e+04 0.0000000000000000e+00 0.0000000000000000e+00 0.0000000000000000e+00 0.0000000000000000e+00  4.9495458694580464e+02 -3.7161130872977850e+02 0.0000000000000000e+00 -3.7161130872977890e+02 5.2172901877505274e+03 0.0000000000000000e+00 0.0000000000000000e+00 0.0000000000000000e+00 0.0000000000000000e+00  -1.0002737491683091e+02 6.3354383193216883e+01 0.0000000000000000e+00 6.3354383193216769e+01 4.5624089777702002e+03 0.0000000000000000e+00 0.0000000000000000e+00 0.0000000000000000e+00 0.0000000000000000e+00  3.1209303910901326e+02 -1.3614758022129545e+01 0.0000000000000000e+00 -1.3614758022129527e+01 3.4813410836683852e+03 0.0000000000000000e+00 0.0000000000000000e+00 0.0000000000000000e+00 0.0000000000000000e+00  -4.3145681182500098e+01 5.3445106672906178e+01 0.0000000000000000e+00 5.3445106672906114e+01 2.9206185498802852e+03 0.0000000000000000e+00 0.0000000000000000e+00 0.0000000000000000e+00 0.0000000000000000e+00  8.3809182339512887e+01 4.2505244107807528e+01 0.0000000000000000e+00 4.2505244107807485e+01 2.3076781960262419e+03 0.0000000000000000e+00 0.0000000000000000e+00 0.0000000000000000e+00 0.0000000000000000e+00  -1.1255066457409644e+02 3.1443790247827753e+01 0.0000000000000000e+00 3.1443790247827746e+01 1.7544517802308671e+03 0.0000000000000000e+00 0.0000000000000000e+00 0.0000000000000000e+00 0.0000000000000000e+00  -1.5867472508021365e+02 1.1741088033271327e+01 0.0000000000000000e+00 1.1741088033271380e+01 1.2721804217977044e+03 0.0000000000000000e+00 0.0000000000000000e+00 0.0000000000000000e+00 0.0000000000000000e+00  -2.6841225935298814e+02 9.0905307370790780e+00 0.0000000000000000e+00 9.0905307370790904e+00 7.8992699053652700e+02 0.0000000000000000e+00 0.0000000000000000e+00 0.0000000000000000e+00 0.0000000000000000e+00  -2.7272732601104354e+02 1.0972468954315463e+01 0.0000000000000000e+00 1.0972468954315461e+01 3.1344296102195193e+02 0.0000000000000000e+00 0.0000000000000000e+00 0.0000000000000000e+00 0.0000000000000000e+00  -3.2277627097061071e+02 1.7415583942494084e+01 0.0000000000000000e+00 1.7415583942494031e+01 -5.8599498135734088e+01 0.0000000000000000e+00 0.0000000000000000e+00 0.0000000000000000e+00 0.0000000000000000e+00  -4.2721580653469141e+02 1.4395149779228486e+01 0.0000000000000000e+00 1.4395149779228497e+01 -2.0902281258346710e+02 0.0000000000000000e+00 0.0000000000000000e+00 0.0000000000000000e+00 0.0000000000000000e+00  -5.1289447719801603e+02 4.3162436871985288e-02 0.0000000000000000e+00 4.3162436871992255e-02 -2.1028245433415645e+02 0.0000000000000000e+00 0.0000000000000000e+00 0.0000000000000000e+00 0.0000000000000000e+00  -5.8015904602648845e+02 4.4346645595125533e+00 0.0000000000000000e+00 4.4346645595125347e+00 -1.1248583113458956e+02 0.0000000000000000e+00 0.0000000000000000e+00 0.0000000000000000e+00 0.0000000000000000e+00  -6.2769685832772950e+02 -9.0795876129540236e+00 0.0000000000000000e+00 -9.0795876129539970e+00 8.5969140075167559e+01 0.0000000000000000e+00 0.0000000000000000e+00 0.0000000000000000e+00 0.0000000000000000e+00  -7.6052574934775930e+02 6.9497194413653336e+00 0.0000000000000000e+00 6.9497194413650565e+00 5.2618626507835131e+02 0.0000000000000000e+00 0.0000000000000000e+00 0.0000000000000000e+00 0.0000000000000000e+00  -1.1125228670138652e+03 2.5775125192411430e+01 0.0000000000000000e+00 2.5775125192411544e+01 1.1456808456872657e+03 0.0000000000000000e+00 0.0000000000000000e+00 0.0000000000000000e+00 0.0000000000000000e+00  -1.6656341925596028e+03 7.4378680348589029e+01 0.0000000000000000e+00 7.4378680348589128e+01 1.6770136340166187e+03 0.0000000000000000e+00 0.0000000000000000e+00 0.0000000000000000e+00 0.0000000000000000e+00  -1.9072820260788867e+03 -7.5116223093245068e+01 0.0000000000000000e+00 -7.5116223093244997e+01 1.0940253248946808e+03 0.0000000000000000e+00 0.0000000000000000e+00 0.0000000000000000e+00 0.0000000000000000e+00  -1.4814572197726136e+03 1.4564087692272379e+01 0.0000000000000000e+00 1.4564087692272402e+01 -1.9496178478270099e+02 0.0000000000000000e+00 0.0000000000000000e+00 0.0000000000000000e+00 0.0000000000000000e+00  -1.6802131598143951e+03 6.2247134677238286e+01 0.0000000000000000e+00 6.2247134677238343e+01 6.1192540205509374e+02 0.0000000000000000e+00 0.0000000000000000e+00 0.0000000000000000e+00 0.0000000000000000e+00  -1.4000759562774786e+03 -5.4527789042495712e+01 0.0000000000000000e+00 -5.4527789042495563e+01 1.3897231248351652e+03 0.0000000000000000e+00 0.0000000000000000e+00 0.0000000000000000e+00 0.0000000000000000e+00  -7.0467025496086626e+02 -5.8603753757690775e+01 0.0000000000000000e+00 -5.8603753757691102e+01 8.2388198671434861e+02 0.0000000000000000e+00 0.0000000000000000e+00 0.0000000000000000e+00 0.0000000000000000e+00  4.1012514297272837e+01 -3.2313908250452712e+01 0.0000000000000000e+00 -3.2313908250452421e+01 5.7931226130949483e+02 0.0000000000000000e+00 0.0000000000000000e+00 0.0000000000000000e+00 0.0000000000000000e+00  1.9596779550215035e+02 -1.8150482577141169e+01 0.0000000000000000e+00 -1.8150482577141286e+01 7.5955043717561819e+02 0.0000000000000000e+00 0.0000000000000000e+00 0.0000000000000000e+00 0.0000000000000000e+00  2.6862857125758984e+02 -1.6512270886094669e+01 0.0000000000000000e+00 -1.6512270886094619e+01 1.4243336577323960e+03 0.0000000000000000e+00 0.0000000000000000e+00 0.0000000000000000e+00 0.0000000000000000e+00  2.1367485833822897e+02 -3.0970774024035613e+01 0.0000000000000000e+00 -3.0970774024035620e+01 2.2664247348993836e+03 0.0000000000000000e+00 0.0000000000000000e+00 0.0000000000000000e+00 0.0000000000000000e+00  2.4800010570283152e+02 -2.9914470031586596e+01 0.0000000000000000e+00 -2.9914470031586578e+01 3.2777628300252159e+03 0.0000000000000000e+00 0.0000000000000000e+00 0.0000000000000000e+00 0.0000000000000000e+00  4.8630834865899544e+01 -1.9887029977417484e+01 0.0000000000000000e+00 -1.9887029977417615e+01 4.4038021708386013e+03 0.0000000000000000e+00 0.0000000000000000e+00 0.0000000000000000e+00 0.0000000000000000e+00  9.7106524191924493e+01 -3.1525659526549855e+01 0.0000000000000000e+00 -3.1525659526549902e+01 5.4127014398924794e+03 0.0000000000000000e+00 0.0000000000000000e+00 0.0000000000000000e+00 0.0000000000000000e+00  6.2055619349391007e+00 4.5837833854308791e+01 0.0000000000000000e+00 4.5837833854308847e+01 6.6180387383628204e+03 0.0000000000000000e+00 0.0000000000000000e+00 0.0000000000000000e+00 0.0000000000000000e+00  3.4283634919755784e-01 1.8728813727106274e+01 0.0000000000000000e+00 1.8728813727106399e+01 6.8530865554338716e+03 0.0000000000000000e+00 0.0000000000000000e+00 0.0000000000000000e+00 0.0000000000000000e+00  -2.8970967983815608e+00 3.4003034977450803e+01 0.0000000000000000e+00 3.4003034977451136e+01 6.9857755079105118e+03 0.0000000000000000e+00 0.0000000000000000e+00 0.0000000000000000e+00 0.0000000000000000e+00  -1.4903035844646718e+01 1.6143283103144888e+01 0.0000000000000000e+00 1.6143283103144963e+01 7.1860597755470326e+03 0.0000000000000000e+00 0.0000000000000000e+00 0.0000000000000000e+00 0.0000000000000000e+00  2.6853837250290528e+01 8.2428270477939272e+00 0.0000000000000000e+00 8.2428270477938153e+00 7.4735644915798975e+03 0.0000000000000000e+00 0.0000000000000000e+00 0.0000000000000000e+00 0.0000000000000000e+00  -5.9984887138362719e+00 7.7433614035664661e+01 0.0000000000000000e+00 7.7433614035664419e+01 7.5917220168220992e+03 0.0000000000000000e+00 0.0000000000000000e+00 0.0000000000000000e+00 0.0000000000000000e+00  -4.9355066824635657e+01 8.8519398268116717e+01 0.0000000000000000e+00 8.8519398268116362e+01 8.2658849854981854e+03 0.0000000000000000e+00 0.0000000000000000e+00 0.0000000000000000e+00 0.0000000000000000e+00  -5.4090580271689905e+00 1.5775565456477622e+02 0.0000000000000000e+00 1.5775565456477636e+02 9.0858156121298234e+03 0.0000000000000000e+00 0.0000000000000000e+00 0.0000000000000000e+00 0.0000000000000000e+00  -1.4643935411293887e+01 8.3234693813341210e+01 0.0000000000000000e+00 8.3234693813340655e+01 1.0147904890688938e+04 0.0000000000000000e+00 0.0000000000000000e+00 0.0000000000000000e+00 0.0000000000000000e+00  -5.1833063369393848e+01 -3.8568959923879859e+01 0.0000000000000000e+00 -3.8568959923880193e+01 1.0476220849428837e+04 0.0000000000000000e+00 0.0000000000000000e+00 0.0000000000000000e+00 0.0000000000000000e+00  -6.4075174709999587e+01 -3.4311873490328799e+02 0.0000000000000000e+00 -3.4311873490328702e+02 9.6063436928024767e+03 0.0000000000000000e+00 0.0000000000000000e+00 0.0000000000000000e+00 0.0000000000000000e+00  -3.4378302890490278e+02 -9.0779351870679102e+02 0.0000000000000000e+00 -9.0779351870679056e+02 7.3262775699263166e+03 0.0000000000000000e+00 0.0000000000000000e+00 0.0000000000000000e+00 0.0000000000000000e+00  5.6979165931469527e+02 1.5307699434492827e+02 0.0000000000000000e+00 1.5307699434492841e+02 2.3254689457322088e+03 0.0000000000000000e+00 0.0000000000000000e+00 0.0000000000000000e+00 0.0000000000000000e+00  6.9470159135116046e+02 9.7997248830374417e+02 0.0000000000000000e+00 9.7997248830374360e+02 2.6770253818999931e+03 0.0000000000000000e+00 0.0000000000000000e+00 0.0000000000000000e+00 0.0000000000000000e+00  3.3558760559880966e+01 5.3118321424613009e+02 0.0000000000000000e+00 5.3118321424612986e+02 9.4267488647574301e+03 0.0000000000000000e+00 0.0000000000000000e+00 0.0000000000000000e+00 0.0000000000000000e+00  2.8580241490600730e+02 2.1857547652682331e+02 0.0000000000000000e+00 2.1857547652682146e+02 1.2325512934905362e+04 0.0000000000000000e+00 0.0000000000000000e+00 0.0000000000000000e+00 0.0000000000000000e+00  8.6969319512431468e+02 -7.2704343438900287e+02 0.0000000000000000e+00 -7.2704343438900378e+02 1.2597859645328739e+04 0.0000000000000000e+00 0.0000000000000000e+00 0.0000000000000000e+00 0.0000000000000000e+00  -7.4352615635169320e+02 -3.5455579273584561e+02 0.0000000000000000e+00 -3.5455579273584567e+02 8.0581947464631330e+03 0.0000000000000000e+00 0.0000000000000000e+00 0.0000000000000000e+00 0.0000000000000000e+00  -2.5390031855274714e+02 4.3810299792051819e+02 0.0000000000000000e+00 4.3810299792051762e+02 1.0712192111411192e+04 0.0000000000000000e+00 0.0000000000000000e+00 0.0000000000000000e+00 0.0000000000000000e+00  6.1986224453424157e+01 -2.8610852392139469e+02 0.0000000000000000e+00 -2.8610852392139424e+02 1.0067935211043705e+04 0.0000000000000000e+00 0.0000000000000000e+00 0.0000000000000000e+00 0.0000000000000000e+00  -1.0467203817315362e+02 -3.2042538099524580e+02 0.0000000000000000e+00 -3.2042538099524535e+02 7.6016780630214980e+03 0.0000000000000000e+00 0.0000000000000000e+00 0.0000000000000000e+00 0.0000000000000000e+00  8.4406261680864290e+01 -8.2674234661763411e+00 0.0000000000000000e+00 -8.2674234661768136e+00 6.9942127807060569e+03 0.0000000000000000e+00 0.0000000000000000e+00 0.0000000000000000e+00 0.0000000000000000e+00  -6.4274197885810054e+01 -2.4958760850735832e+01 0.0000000000000000e+00 -2.4958760850735683e+01 6.7432501940991287e+03 0.0000000000000000e+00 0.0000000000000000e+00 0.0000000000000000e+00 0.00000000000000