<?xml version="1.0"?>
<VTKFile type="UnstructuredGrid"  version="0.1"  >
<UnstructuredGrid>
<Piece  NumberOfPoints="3879" NumberOfCells="6881">
<Points>
<DataArray  type="Float64"  NumberOfComponents="3"  format="ascii">0.207524190028372 0.2122422770132111 0  0 0 0  1 0 0  0 1 0  1 1 0  0.6249674373315121 0.2590146544375328 0  0.204663578893616 0.322657230836866 0  0.09605577522599912 0.4018360776629776 0  0.671351124618251 0.08738059142081528 0  0.7842102907526436 0.1666439122351055 0  0.8512483166984784 0.1985391006160637 0  0.6418797837909295 0.4423157172830166 0  0.9292488447973215 0.3869277868069776 0  0.3197896119137055 0.5509935221980964 0  0.3979283685568406 0.5079871620336583 0  0.1572503457993085 0.7345153245035532 0  0.3032914287999163 0.7872981443735918 0  0.3549464687598876 0.8870324161721976 0  0.9691791685505482 0.5159450047798622 0  0.9447564590470373 0.6146164845729313 0  0.7687603548175107 0.7176858127488035 0  0.8926159261971183 0.7422924070424508 0  0.2061587782631535 0.2217389244366831 0  0.2021731605082994 0.2304662099646423 0  0.1958902278109265 0.2377171008267789 0  0.1878189860121365 0.2429041729681512 0  0.1786133191209442 0.2456072006525708 0  0.1690190155206647 0.2456072006525708 0  0.1598133486294724 0.2429041729681512 0  0.1517421068306824 0.2377171008267789 0  0.1454591741333096 0.2304662099646422 0  0.1414735563784554 0.221738924436683 0  0.1401081446132369 0.212242277013211 0  0.1414735563784555 0.202745629589739 0  0.1454591741333096 0.1940183440617798 0  0.1517421068306825 0.1867674531996431 0  0.1598133486294725 0.1815803810582709 0  0.1690190155206649 0.1788773533738513 0  0.1786133191209443 0.1788773533738514 0  0.1878189860121367 0.181580381058271 0  0.1958902278109266 0.1867674531996433 0  0.2021731605082994 0.19401834406178 0  0.2061587782631535 0.2027456295897391 0  0.03333333333333333 0 0  0.06666666666666667 0 0  0.1 0 0  0.1333333333333333 0 0  0.1666666666666667 0 0  0.2 0 0  0.2333333333333333 0 0  0.2666666666666667 0 0  0.3 0 0  0.3333333333333333 0 0  0.3666666666666666 0 0  0.4 0 0  0.4333333333333333 0 0  0.4666666666666667 0 0  0.5 0 0  0.5333333333333333 0 0  0.5666666666666667 0 0  0.6 0 0  0.6333333333333333 0 0  0.6666666666666666 0 0  0.7 0 0  0.7333333333333333 0 0  0.7666666666666667 0 0  0.8 0 0  0.8333333333333334 0 0  0.8666666666666667 0 0  0.9 0 0  0.9333333333333333 0 0  0.9666666666666667 0 0  0 0.9666666666666667 0  0 0.9333333333333333 0  0 0.9 0  0 0.8666666666666667 0  0 0.8333333333333334 0  0 0.8 0  0 0.7666666666666666 0  0 0.7333333333333334 0  0 0.7 0  0 0.6666666666666667 0  0 0.6333333333333333 0  0 0.6 0  0 0.5666666666666667 0  0 0.5333333333333333 0  0 0.5 0  0 0.4666666666666667 0  0 0.4333333333333333 0  0 0.4 0  0 0.3666666666666667 0  0 0.3333333333333334 0  0 0.3 0  0 0.2666666666666667 0  0 0.2333333333333333 0  0 0.2 0  0 0.1666666666666666 0  0 0.1333333333333333 0  0 0.09999999999999998 0  0 0.06666666666666665 0  0 0.03333333333333333 0  1 0.03333333333333333 0  1 0.06666666666666667 0  1 0.1 0  1 0.1333333333333333 0  1 0.1666666666666667 0  1 0.2 0  1 0.2333333333333333 0  1 0.2666666666666667 0  1 0.3 0  1 0.3333333333333333 0  1 0.3666666666666666 0  1 0.4 0  1 0.4333333333333333 0  1 0.4666666666666667 0  1 0.5 0  1 0.5333333333333333 0  1 0.5666666666666667 0  1 0.6 0  1 0.6333333333333333 0  1 0.6666666666666666 0  1 0.7 0  1 0.7333333333333333 0  1 0.7666666666666667 0  1 0.8 0  1 0.8333333333333334 0  1 0.8666666666666667 0  1 0.9 0  1 0.9333333333333333 0  1 0.9666666666666667 0  0.9666666666666667 1 0  0.9333333333333333 1 0  0.9 1 0  0.8666666666666667 1 0  0.8333333333333334 1 0  0.8 1 0  0.7666666666666666 1 0  0.7333333333333334 1 0  0.7 1 0  0.6666666666666667 1 0  0.6333333333333333 1 0  0.6 1 0  0.5666666666666667 1 0  0.5333333333333333 1 0  0.5 1 0  0.4666666666666667 1 0  0.4333333333333333 1 0  0.4 1 0  0.3666666666666667 1 0  0.3333333333333334 1 0  0.3 1 0  0.2666666666666667 1 0  0.2333333333333333 1 0  0.2 1 0  0.1666666666666666 1 0  0.1333333333333333 1 0  0.09999999999999998 1 0  0.06666666666666665 1 0  0.03333333333333333 1 0  0.6247072676344306 0.2689501343248463 0  0.6239274716502419 0.2788583817523955 0  0.6226301867455355 0.2887122389026952 0  0.6208189686880621 0.2984846970382296 0  0.6184987819006211 0.3081489705305245 0  0.6156759858539226 0.317678570277693 0  0.6123583176357204 0.3270473763092224 0  0.6085548707439923 0.3362297093789981 0  0.6042760701622942 0.3452004013503318 0  0.5995336437856049 0.3539348641800754 0  0.5943405902749808 0.3624091573127375 0  0.5887111434291297 0.3706000532998825 0  0.582660733170558 0.3784851014649517 0  0.5762059432532257 0.3860426894390078 0  0.5693644658076293 0.3932521023987353 0  0.5621550528479018 0.4000935798443317 0  0.5545974648738458 0.4065483697616639 0  0.5467124167087765 0.4125987800202355 0  0.5385215207216315 0.4182282268660866 0  0.5300472275889694 0.4234212803767108 0  0.5213127647592257 0.4281637067534002 0  0.512342072787892 0.4324425073350981 0  0.5031597397181163 0.4362459542268262 0  0.493790933686587 0.4395636224450283 0  0.4842613339394185 0.4423864184917269 0  0.4745970604471235 0.4447066052791678 0  0.4648246023115891 0.4465178233366412 0  0.4549707451612894 0.4478151082413475 0  0.4450624977337403 0.4485949042255363 0  0.4351270178464268 0.4488550739226177 0  0.4251915379591132 0.4485949042255363 0  0.4152832905315641 0.4478151082413475 0  0.4054294333812644 0.4465178233366411 0  0.39565697524573 0.4447066052791677 0  0.385992701753435 0.4423864184917267 0  0.3764631020062665 0.4395636224450281 0  0.3670942959747371 0.4362459542268259 0  0.3579119629049616 0.4324425073350978 0  0.3489412709336278 0.4281637067533998 0  0.3402068081038843 0.4234212803767103 0  0.3317325149712221 0.4182282268660862 0  0.3235416189840771 0.412598780020235 0  0.3156565708190078 0.4065483697616634 0  0.3080989828449519 0.4000935798443311 0  0.3008895698852244 0.3932521023987346 0  0.2940480924396279 0.3860426894390071 0  0.2875933025222958 0.3784851014649511 0  0.2815428922637242 0.3706000532998818 0  0.2759134454178731 0.3624091573127368 0  0.2707203919072489 0.3539348641800746 0  0.2659779655305596 0.3452004013503309 0  0.2616991649488616 0.3362297093789972 0  0.2578957180571336 0.3270473763092215 0  0.2545780498389315 0.3176785702776921 0  0.251755253792233 0.3081489705305236 0  0.249435067004792 0.2984846970382286 0  0.2476238489473186 0.2887122389026941 0  0.2463265640426123 0.2788583817523945 0  0.2455467680584236 0.2689501343248454 0  0.2452865983613423 0.2590146544375318 0  0.2455467680584237 0.2490791745502182 0  0.2463265640426126 0.2391709271226692 0  0.247623848947319 0.2293170699723696 0  0.2494350670047924 0.2195446118368351 0  0.2517552537922335 0.2098803383445402 0  0.2545780498389321 0.2003507385973717 0  0.2578957180571343 0.1909819325658423 0  0.2616991649488624 0.1817995994960667 0  0.2659779655305604 0.172828907524733 0  0.2707203919072498 0.1640944446949895 0  0.2759134454178741 0.1556201515623273 0  0.2815428922637251 0.1474292555751825 0  0.2875933025222969 0.1395442074101132 0  0.2940480924396291 0.1319866194360571 0  0.3008895698852256 0.1247772064763297 0  0.3080989828449531 0.1179357290307334 0  0.3156565708190092 0.1114809391134012 0  0.3235416189840785 0.1054305288548295 0  0.3317325149712236 0.09980108200897844 0  0.3402068081038856 0.0946080284983544 0  0.3489412709336291 0.08986560212166514 0  0.357911962904963 0.08558680153996717 0  0.3670942959747386 0.08178335464823916 0  0.3764631020062678 0.07846568643003712 0  0.3859927017534364 0.0756428903833386 0  0.3956569752457313 0.0733227035958976 0  0.4054294333812659 0.07151148553842429 0  0.4152832905315654 0.07021420063371797 0  0.4251915379591144 0.0694344046495293 0  0.435127017846428 0.0691742349524479 0  0.4450624977337415 0.06943440464952938 0  0.4549707451612905 0.07021420063371814 0  0.4648246023115901 0.07151148553842454 0  0.4745970604471245 0.07332270359589793 0  0.4842613339394195 0.07564289038333902 0  0.4937909336865879 0.07846568643003757 0  0.5031597397181173 0.0817833546482398 0  0.5123420727878929 0.08558680153996781 0  0.5213127647592265 0.08986560212166581 0  0.53004722758897 0.0946080284983552 0  0.5385215207216321 0.09980108200897933 0  0.5467124167087771 0.1054305288548305 0  0.5545974648738462 0.1114809391134021 0  0.5621550528479023 0.1179357290307343 0  0.5693644658076298 0.1247772064763308 0  0.576205943253226 0.1319866194360582 0  0.5826607331705582 0.1395442074101142 0  0.5887111434291299 0.1474292555751835 0  0.594340590274981 0.1556201515623285 0  0.5995336437856051 0.1640944446949906 0  0.6042760701622945 0.172828907524734 0  0.6085548707439925 0.1817995994960678 0  0.6123583176357205 0.1909819325658435 0  0.6156759858539227 0.2003507385973728 0  0.6184987819006211 0.2098803383445412 0  0.6208189686880622 0.2195446118368362 0  0.6226301867455355 0.2293170699723706 0  0.6239274716502419 0.2391709271226702 0  0.6247072676344306 0.2490791745502192 0  0.203885768735257 0.3325402459548524 0  0.2015714905276826 0.3421799084407872 0  0.1977777294810124 0.3513388578120612 0  0.1925979005829864 0.3597915703383434 0  0.1861595484119405 0.3673299121842922 0  0.1786212065659918 0.373768264355338 0  0.1701684940397096 0.378948093253364 0  0.1610095446684356 0.3827418543000342 0  0.1513698821825007 0.3850561325076086 0  0.1414868670645144 0.3858339426659677 0  0.1316038519465281 0.3850561325076086 0  0.1219641894605933 0.3827418543000343 0  0.1128052400893193 0.378948093253364 0  0.1043525275630371 0.3737682643553381 0  0.09681418571708833 0.3673299121842922 0  0.09037583354604248 0.3597915703383434 0  0.08519600464801645 0.3513388578120612 0  0.08140224360134621 0.3421799084407872 0  0.07908796539377183 0.3325402459548523 0  0.07831015523541281 0.3226572308368659 0  0.07908796539377186 0.3127742157188796 0  0.08140224360134626 0.3031345532329447 0  0.08519600464801655 0.2939756038616707 0  0.0903758335460426 0.2855228913353884 0  0.0968141857
[...]
<PointData  Tensors="$\sigma$"> 
<DataArray  type="Float64"  Name="$\sigma$"  NumberOfComponents="9" format="ascii">9.6940752498970198e+02 -2.0166286559077832e+02 0.0000000000000000e+00 -2.0166286559077741e+02 1.3756994690324873e+04 0.0000000000000000e+00 0.0000000000000000e+00 0.0000000000000000e+00 0.0000000000000000e+00  1.6807732880995131e+03 1.0672537823987216e+02 0.0000000000000000e+00 1.0672537823987228e+02 7.0489120890345139e+03 0.0000000000000000e+00 0.0000000000000000e+00 0.0000000000000000e+00 0.0000000000000000e+00  -4.1796837647865985e+01 -3.4642748649714171e+01 0.0000000000000000e+00 -3.4642748649714235e+01 7.3993245646704081e+03 0.0000000000000000e+00 0.0000000000000000e+00 0.0000000000000000e+00 0.0000000000000000e+00  9.8364618632170835e+00 -6.1969239728728738e+00 0.0000000000000000e+00 -6.1969239728728827e+00 7.8954773926720327e+03 0.0000000000000000e+00 0.0000000000000000e+00 0.0000000000000000e+00 0.0000000000000000e+00  1.0454303041493901e+01 1.6292006426675851e+01 0.0000000000000000e+00 1.6292006426675886e+01 6.5647075199782303e+03 0.0000000000000000e+00 0.0000000000000000e+00 0.0000000000000000e+00 0.0000000000000000e+00  4.9465201639140503e+02 -1.8767542004603334e+02 0.0000000000000000e+00 -1.8767542004603237e+02 1.2032803058194426e+04 0.0000000000000000e+00 0.0000000000000000e+00 0.0000000000000000e+00 0.0000000000000000e+00  -8.0239066367733344e+01 4.3674246541839392e+02 0.0000000000000000e+00 4.3674246541839648e+02 -2.3835264978838225e+02 0.0000000000000000e+00 0.0000000000000000e+00 0.0000000000000000e+00 0.0000000000000000e+00  1.6431901404447071e+03 7.3804672830396228e+01 0.0000000000000000e+00 7.3804672830396754e+01 1.5249411007318226e+04 0.0000000000000000e+00 0.0000000000000000e+00 0.0000000000000000e+00 0.0000000000000000e+00  6.4801212736978766e+02 2.3627573985584317e+02 0.0000000000000000e+00 2.3627573985584081e+02 1.3165304902297510e+04 0.0000000000000000e+00 0.0000000000000000e+00 0.0000000000000000e+00 0.0000000000000000e+00  -6.3657226146739356e+02 3.0450686140401729e+02 0.0000000000000000e+00 3.0450686140401683e+02 -9.8783387421651969e+02 0.0000000000000000e+00 0.0000000000000000e+00 0.0000000000000000e+00 0.0000000000000000e+00  -3.7669543195065614e+01 -1.4066632491886801e+02 0.0000000000000000e+00 -1.4066632491886821e+02 -1.6347833038145588e+03 0.0000000000000000e+00 0.0000000000000000e+00 0.0000000000000000e+00 0.0000000000000000e+00  -2.0734227405031191e+01 4.9298527816545118e+02 0.0000000000000000e+00 4.9298527816544902e+02 1.0277840272399681e+04 0.0000000000000000e+00 0.0000000000000000e+00 0.0000000000000000e+00 0.0000000000000000e+00  -6.1216305747816341e+02 -1.3390674291685207e+02 0.0000000000000000e+00 -1.3390674291685161e+02 1.0999201850988708e+04 0.0000000000000000e+00 0.0000000000000000e+00 0.0000000000000000e+00 0.0000000000000000e+00  2.6334358386835606e+02 1.6776188922360129e+02 0.0000000000000000e+00 1.6776188922360112e+02 1.1779702851443626e+04 0.0000000000000000e+00 0.0000000000000000e+00 0.0000000000000000e+00 0.0000000000000000e+00  -1.4060170095237234e+02 -2.6088007400014448e+02 0.0000000000000000e+00 -2.6088007400014294e+02 -1.0820182870237049e+03 0.0000000000000000e+00 0.0000000000000000e+00 0.0000000000000000e+00 0.0000000000000000e+00  -8.7674872323000363e+02 -4.7743869517835958e+02 0.0000000000000000e+00 -4.7743869517835930e+02 -4.6982157699017043e+03 0.0000000000000000e+00 0.0000000000000000e+00 0.0000000000000000e+00 0.0000000000000000e+00  4.0851031526707533e-03 -8.4753162916650382e+01 0.0000000000000000e+00 -8.4753162916651092e+01 8.4983856192942294e+03 0.0000000000000000e+00 0.0000000000000000e+00 0.0000000000000000e+00 0.0000000000000000e+00  2.6203712414680859e+02 6.1833266860117206e+01 0.0000000000000000e+00 6.1833266860120162e+01 1.2947504063036149e+04 0.0000000000000000e+00 0.0000000000000000e+00 0.0000000000000000e+00 0.0000000000000000e+00  7.1423147751462420e+03 1.1692507821001575e+03 0.0000000000000000e+00 1.1692507821001575e+03 1.9744832255675596e+04 0.0000000000000000e+00 0.0000000000000000e+00 0.0000000000000000e+00 0.0000000000000000e+00  9.6485044951043477e+01 2.1349396515436339e+02 0.0000000000000000e+00 2.1349396515436445e+02 1.1742204737637503e+04 0.0000000000000000e+00 0.0000000000000000e+00 0.0000000000000000e+00 0.0000000000000000e+00  5.4199758214606810e+01 8.4066508253655030e+01 0.0000000000000000e+00 8.4066508253654646e+01 1.1883979453642949e+04 0.0000000000000000e+00 0.0000000000000000e+00 0.0000000000000000e+00 0.0000000000000000e+00  6.3714381913957951e+01 1.2228917077752277e+02 0.0000000000000000e+00 1.2228917077752162e+02 4.7775164703415958e+03 0.0000000000000000e+00 0.0000000000000000e+00 0.0000000000000000e+00 0.0000000000000000e+00  6.4942520323154588e+02 -2.5065381503101521e+03 0.0000000000000000e+00 -2.5065381503101521e+03 9.8630628366324509e+03 0.0000000000000000e+00 0.0000000000000000e+00 0.0000000000000000e+00 0.0000000000000000e+00  -1.2636456926621769e+02 -8.9797104327624982e+02 0.0000000000000000e+00 -8.9797104327624947e+02 2.7131003251880020e+03 0.0000000000000000e+00 0.0000000000000000e+00 0.0000000000000000e+00 0.0000000000000000e+00  -2.6864415579020756e+03 1.6964575139464432e+03 0.0000000000000000e+00 1.6964575139464484e+03 -1.2309307325050611e+03 0.0000000000000000e+00 0.0000000000000000e+00 0.0000000000000000e+00 0.0000000000000000e+00  -6.7915339048562591e+03 2.4666845393887120e+03 0.0000000000000000e+00 2.4666845393887188e+03 -1.3660507253420274e+03 0.0000000000000000e+00 0.0000000000000000e+00 0.0000000000000000e+00 0.0000000000000000e+00  -6.2876645842826510e+03 1.0818686370198109e+03 0.0000000000000000e+00 1.0818686370198075e+03 -7.9217451116384643e+02 0.0000000000000000e+00 0.0000000000000000e+00 0.0000000000000000e+00 0.0000000000000000e+00  1.2823321158634096e+03 3.0351477214594470e+03 0.0000000000000000e+00 3.0351477214594529e+03 1.9284017034204746e+03 0.0000000000000000e+00 0.0000000000000000e+00 0.0000000000000000e+00 0.0000000000000000e+00  1.0065072676861098e+04 5.4228802467534997e+03 0.0000000000000000e+00 5.4228802467535006e+03 3.4019146074531695e+03 0.0000000000000000e+00 0.0000000000000000e+00 0.0000000000000000e+00 0.0000000000000000e+00  9.0908572415892068e+03 6.1316624838816006e+03 0.0000000000000000e+00 6.1316624838816169e+03 7.5232034949241151e+03 0.0000000000000000e+00 0.0000000000000000e+00 0.0000000000000000e+00 0.0000000000000000e+00  4.1159287679185536e+03 5.9074647999297331e+03 0.0000000000000000e+00 5.9074647999297358e+03 8.7127938892300226e+03 0.0000000000000000e+00 0.0000000000000000e+00 0.0000000000000000e+00 0.0000000000000000e+00  1.4074330400478691e+03 2.6984582204226231e+03 0.0000000000000000e+00 2.6984582204226181e+03 7.0661039670602286e+03 0.0000000000000000e+00 0.0000000000000000e+00 0.0000000000000000e+00 0.0000000000000000e+00  -3.9093199233457678e+00 4.2115276899597501e+02 0.0000000000000000e+00 4.2115276899597620e+02 5.5342123471737004e+03 0.0000000000000000e+00 0.0000000000000000e+00 0.0000000000000000e+00 0.0000000000000000e+00  1.5190212430444933e+02 -2.3682679590253503e+02 0.0000000000000000e+00 -2.3682679590253514e+02 1.9734822205237219e+03 0.0000000000000000e+00 0.0000000000000000e+00 0.0000000000000000e+00 0.0000000000000000e+00  -6.1676061741432511e+02 6.5122673093179617e+02 0.0000000000000000e+00 6.5122673093179696e+02 -5.4452233293180279e+02 0.0000000000000000e+00 0.0000000000000000e+00 0.0000000000000000e+00 0.0000000000000000e+00  -2.3561831046771431e+03 1.8543078351606164e+03 0.0000000000000000e+00 1.8543078351606177e+03 -1.5264817198355477e+03 0.0000000000000000e+00 0.0000000000000000e+00 0.0000000000000000e+00 0.0000000000000000e+00  -4.2256491431683808e+03 1.7823212367280148e+03 0.0000000000000000e+00 1.7823212367280098e+03 -1.1076852245103557e+03 0.0000000000000000e+00 0.0000000000000000e+00 0.0000000000000000e+00 0.0000000000000000e+00  -4.1897817577740489e+03 8.5757296531403631e+02 0.0000000000000000e+00 8.5757296531403517e+02 -4.9324380970998277e+02 0.0000000000000000e+00 0.0000000000000000e+00 0.0000000000000000e+00 0.0000000000000000e+00  -1.9238992163847795e+03 -3.3449405209336476e+01 0.0000000000000000e+00 -3.3449405209335993e+01 1.2502694491380045e+02 0.0000000000000000e+00 0.0000000000000000e+00 0.0000000000000000e+00 0.0000000000000000e+00  2.0200381585711368e+03 1.3237045876602331e+03 0.0000000000000000e+00 1.3237045876602372e+03 6.8565205405379754e+02 0.0000000000000000e+00 0.0000000000000000e+00 0.0000000000000000e+00 0.0000000000000000e+00  4.1439730048946521e+03 3.5806373613134797e+03 0.0000000000000000e+00 3.5806373613134838e+03 3.9176735877095957e+03 0.0000000000000000e+00 0.0000000000000000e+00 0.0000000000000000e+00 0.0000000000000000e+00  3.3410668221004830e+03 5.4894011816808443e+03 0.0000000000000000e+00 5.4894011816808697e+03 8.8529562197419018e+03 0.0000000000000000e+00 0.0000000000000000e+00 0.0000000000000000e+00 0.0000000000000000e+00  2.4957314756258256e+03 3.3647293638970023e+03 0.0000000000000000e+00 3.3647293638970064e+03 1.3192544582712235e+04 0.0000000000000000e+00 0.0000000000000000e+00 0.0000000000000000e+00 0.0000000000000000e+00  5.3044709853469510e+02 -4.2390602786848774e+02 0.0000000000000000e+00 -4.2390602786848814e+02 5.8929002882314126e+03 0.0000000000000000e+00 0.0000000000000000e+00 0.0000000000000000e+00 0.0000000000000000e+00  -1.0550623895548894e+02 8.2002955495376384e+01 0.0000000000000000e+00 8.2002955495376227e+01 5.1300455107583457e+03 0.0000000000000000e+00 0.0000000000000000e+00 0.0000000000000000e+00 0.0000000000000000e+00  3.5373687539144646e+02 -2.8492881845715868e+01 0.0000000000000000e+00 -2.8492881845715850e+01 3.8776453856852477e+03 0.0000000000000000e+00 0.0000000000000000e+00 0.0000000000000000e+00 0.0000000000000000e+00  -9.7621990857233868e+01 7.0800961460446132e+01 0.0000000000000000e+00 7.0800961460446104e+01 3.2393514281247694e+03 0.0000000000000000e+00 0.0000000000000000e+00 0.0000000000000000e+00 0.0000000000000000e+00  4.5649003682420286e+01 4.4994257619034983e+01 0.0000000000000000e+00 4.4994257619034926e+01 2.5711857415717341e+03 0.0000000000000000e+00 0.0000000000000000e+00 0.0000000000000000e+00 0.0000000000000000e+00  -2.2829043722336840e+02 3.8713154501557824e+01 0.0000000000000000e+00 3.8713154501557788e+01 1.9748872581663893e+03 0.0000000000000000e+00 0.0000000000000000e+00 0.0000000000000000e+00 0.0000000000000000e+00  -2.9719161794320019e+02 1.1724215768440471e+01 0.0000000000000000e+00 1.1724215768440404e+01 1.4540037819483794e+03 0.0000000000000000e+00 0.0000000000000000e+00 0.0000000000000000e+00 0.0000000000000000e+00  -4.4623483809643210e+02 8.7316774269623085e+00 0.0000000000000000e+00 8.7316774269623014e+00 9.0883902948042748e+02 0.0000000000000000e+00 0.0000000000000000e+00 0.0000000000000000e+00 0.0000000000000000e+00  -4.6714541618864030e+02 1.2688895725755330e+01 0.0000000000000000e+00 1.2688895725755337e+01 3.5985312748571454e+02 0.0000000000000000e+00 0.0000000000000000e+00 0.0000000000000000e+00 0.0000000000000000e+00  -5.3570913257903715e+02 1.9823741462384273e+01 0.0000000000000000e+00 1.9823741462384149e+01 -7.5045767585676444e+01 0.0000000000000000e+00 0.0000000000000000e+00 0.0000000000000000e+00 0.0000000000000000e+00  -6.6611336644623179e+02 1.7221733409032613e+01 0.0000000000000000e+00 1.7221733409032510e+01 -2.6419170922789181e+02 0.0000000000000000e+00 0.0000000000000000e+00 0.0000000000000000e+00 0.0000000000000000e+00  -7.7302346755689803e+02 -5.0018230648770179e-01 0.0000000000000000e+00 -5.0018230648768514e-01 -2.7535351133340509e+02 0.0000000000000000e+00 0.0000000000000000e+00 0.0000000000000000e+00 0.0000000000000000e+00  -8.5701159421805494e+02 5.8831433068703944e+00 0.0000000000000000e+00 5.8831433068703287e+00 -1.5570410276216705e+02 0.0000000000000000e+00 0.0000000000000000e+00 0.0000000000000000e+00 0.0000000000000000e+00  -9.1926160692429721e+02 -1.1903358491241173e+01 0.0000000000000000e+00 -1.1903358491241137e+01 1.0566105422729387e+02 0.0000000000000000e+00 0.0000000000000000e+00 0.0000000000000000e+00 0.0000000000000000e+00  -1.0907322323965509e+03 8.3981873263397979e+00 0.0000000000000000e+00 8.3981873263393805e+00 6.8178268967066595e+02 0.0000000000000000e+00 0.0000000000000000e+00 0.0000000000000000e+00 0.0000000000000000e+00  -1.5613565871084636e+03 2.9593347486305458e+01 0.0000000000000000e+00 2.9593347486305429e+01 1.4922952600631484e+03 0.0000000000000000e+00 0.0000000000000000e+00 0.0000000000000000e+00 0.0000000000000000e+00  -2.2951760384830282e+03 9.8228522333778997e+01 0.0000000000000000e+00 9.8228522333779367e+01 2.1950468648530846e+03 0.0000000000000000e+00 0.0000000000000000e+00 0.0000000000000000e+00 0.0000000000000000e+00  -2.6352391117467346e+03 -9.0320225156957761e+01 0.0000000000000000e+00 -9.0320225156957676e+01 1.4051861745150234e+03 0.0000000000000000e+00 0.0000000000000000e+00 0.0000000000000000e+00 0.0000000000000000e+00  -2.0815456760300467e+03 2.0873381282264656e+01 0.0000000000000000e+00 2.0873381282264670e+01 -3.7028751355439192e+02 0.0000000000000000e+00 0.0000000000000000e+00 0.0000000000000000e+00 0.0000000000000000e+00  -2.2857201034208297e+03 7.2370046598756673e+01 0.0000000000000000e+00 7.2370046598756929e+01 5.0887412461344337e+02 0.0000000000000000e+00 0.0000000000000000e+00 0.0000000000000000e+00 0.0000000000000000e+00  -1.9327951044393637e+03 -7.3644020885230688e+01 0.0000000000000000e+00 -7.3644020885230304e+01 1.5093261336668486e+03 0.0000000000000000e+00 0.0000000000000000e+00 0.0000000000000000e+00 0.0000000000000000e+00  -1.1025883437051941e+03 -6.8598762269297566e+01 0.0000000000000000e+00 -6.8598762269298035e+01 8.8775393421288982e+02 0.0000000000000000e+00 0.0000000000000000e+00 0.0000000000000000e+00 0.0000000000000000e+00  -1.5613679668678913e+02 -4.1329650561267719e+01 0.0000000000000000e+00 -4.1329650561267471e+01 5.8347068613193369e+02 0.0000000000000000e+00 0.0000000000000000e+00 0.0000000000000000e+00 0.0000000000000000e+00  7.2273716147125867e+01 -2.2180178830385394e+01 0.0000000000000000e+00 -2.2180178830385351e+01 7.5807941186194614e+02 0.0000000000000000e+00 0.0000000000000000e+00 0.0000000000000000e+00 0.0000000000000000e+00  2.1155492824560866e+02 -2.3742587072366685e+01 0.0000000000000000e+00 -2.3742587072366643e+01 1.5181538937406665e+03 0.0000000000000000e+00 0.0000000000000000e+00 0.0000000000000000e+00 0.0000000000000000e+00  1.7960832886694837e+02 -3.5768698796127765e+01 0.0000000000000000e+00 -3.5768698796127801e+01 2.4841105858444898e+03 0.0000000000000000e+00 0.0000000000000000e+00 0.0000000000000000e+00 0.0000000000000000e+00  2.6175598079029601e+02 -3.9313973593798686e+01 0.0000000000000000e+00 -3.9313973593798664e+01 3.6772125509127172e+03 0.0000000000000000e+00 0.0000000000000000e+00 0.0000000000000000e+00 0.0000000000000000e+00  3.5495292121269316e+01 -2.4561172575336268e+01 0.0000000000000000e+00 -2.4561172575336368e+01 5.0105602596019507e+03 0.0000000000000000e+00 0.0000000000000000e+00 0.0000000000000000e+00 0.0000000000000000e+00  1.1478753349746650e+02 -3.8322010771163434e+01 0.0000000000000000e+00 -3.8322010771163470e+01 6.2345459816233997e+03 0.0000000000000000e+00 0.0000000000000000e+00 0.0000000000000000e+00 0.0000000000000000e+00  9.2530740842967241e+00 5.6015718713393909e+01 0.0000000000000000e+00 5.6015718713393888e+01 7.9409819517378437e+03 0.0000000000000000e+00 0.0000000000000000e+00 0.0000000000000000e+00 0.0000000000000000e+00  -1.6832991497486960e+00 2.3215857618307631e+01 0.0000000000000000e+00 2.3215857618307808e+01 8.2253778757206364e+03 0.0000000000000000e+00 0.0000000000000000e+00 0.0000000000000000e+00 0.0000000000000000e+00  -1.4420395528474497e+00 3.4646182661884971e+01 0.0000000000000000e+00 3.4646182661885121e+01 8.3699859384112897e+03 0.0000000000000000e+00 0.0000000000000000e+00 0.0000000000000000e+00 0.0000000000000000e+00  -2.2006861627418612e+01 1.6825140014597824e+01 0.0000000000000000e+00 1.6825140014597778e+01 8.5844895049970637e+03 0.0000000000000000e+00 0.0000000000000000e+00 0.0000000000000000e+00 0.0000000000000000e+00  3.6411821775205112e+01 3.6322082165755170e+00 0.0000000000000000e+00 3.6322082165754526e+00 8.9321986904712157e+03 0.0000000000000000e+00 0.0000000000000000e+00 0.0000000000000000e+00 0.0000000000000000e+00  -5.6317144023040857e+00 1.0800769170961379e+02 0.0000000000000000e+00 1.0800769170961335e+02 9.0805134660709573e+03 0.0000000000000000e+00 0.0000000000000000e+00 0.0000000000000000e+00 0.0000000000000000e+00  -6.6579286258657206e+01 1.0262197497205996e+02 0.0000000000000000e+00 1.0262197497205995e+02 9.9483708921577145e+03 0.0000000000000000e+00 0.0000000000000000e+00 0.0000000000000000e+00 0.0000000000000000e+00  -2.2587932509953564e+01 1.5589950182595760e+02 0.0000000000000000e+00 1.5589950182595740e+02 1.0902955774746708e+04 0.0000000000000000e+00 0.0000000000000000e+00 0.0000000000000000e+00 0.0000000000000000e+00  3.8765054291597863e+01 7.7975756205820858e+01 0.0000000000000000e+00 7.7975756205820289e+01 1.1967481149110599e+04 0.0000000000000000e+00 0.0000000000000000e+00 0.0000000000000000e+00 0.0000000000000000e+00  3.0929206724162640e+02 -2.6516500257254918e+01 0.0000000000000000e+00 -2.6516500257255167e+01 1.2296119972287137e+04 0.0000000000000000e+00 0.0000000000000000e+00 0.0000000000000000e+00 0.0000000000000000e+00  2.0424956886732471e+02 -1.5749127730671057e+02 0.0000000000000000e+00 -1.5749127730670975e+02 1.2353072491376870e+04 0.0000000000000000e+00 0.0000000000000000e+00 0.0000000000000000e+00 0.0000000000000000e+00  -1.6378524350758101e+02 -7.0607910556081799e+02 0.0000000000000000e+00 -7.0607910556081652e+02 1.0028057827909655e+04 0.0000000000000000e+00 0.0000000000000000e+00 0.0000000000000000e+00 0.0000000000000000e+00  1.0430143057822720e+03 9.9084115632487567e+01 0.0000000000000000e+00 9.9084115632488064e+01 3.8919006500509681e+03 0.0000000000000000e+00 0.0000000000000000e+00 0.0000000000000000e+00 0.0000000000000000e+00  8.7292320677333078e+02 1.4898512706343533e+03 0.0000000000000000e+00 1.4898512706343540e+03 3.6706872720904717e+03 0.0000000000000000e+00 0.0000000000000000e+00 0.0000000000000000e+00 0.0000000000000000e+00  6.0059404583150604e+02 -8.0322984308403207e+01 0.0000000000000000e+00 -8.0322984308402624e+01 1.2554166816179213e+04 0.0000000000000000e+00 0.0000000000000000e+00 0.0000000000000000e+00 0.0000000000000000e+00  1.8487265385903581e+03 -3.2036313612683688e+02 0.0000000000000000e+00 -3.2036313612683750e+02 1.3825029752923931e+04 0.0000000000000000e+00 0.0000000000000000e+00 0.0000000000000000e+00 0.0000000000000000e+00  2.0857604821459299e+03 -9.1400519470667984e+02 0.0000000000000000e+00 -9.1400519470668041e+02 1.3857570497108023e+04 0.0000000000000000e+00 0.0000000000000000e+00 0.0000000000000000e+00 0.0000000000000000e+00  -2.0749486009456655e+03 -2.1203411294188106e+02 0.0000000000000000e+00 -2.1203411294188140e+02 9.3313494362777492e+03 0.0000000000000000e+00 0.0000000000000000e+00 0.0000000000000000e+00 0.0000000000000000e+00  4.8652886266446257e+02 4.4138783400938036e+02 0.0000000000000000e+00 4.4138783400938087e+02 1.2200842742246243e+04 0.0000000000000000e+00 0.0000000000000000e+00 0.0000000000000000e+00 0.0000000000000000e+00  4.1068591138792931e+02 -4.3644478892944653e+02 0.0000000000000000e+00 -4.3644478892944744e+02 1.1807366913335245e+04 0.0000000000000000e+00 0.0000000000000000e+00 0.0000000000000000e+00 0.0000000000000000e+00  -1.7585217929840124e+02 -3.5577220336074413e+02 0.0000000000000000e+00 -3.5577220336074379e+02 8.6498931000555076e+03 0.0000000000000000e+00 0.0000000000000000e+00 0.0000000000000000e+00 0.0000000000000000e+00  1.1854905359355129e+02 2.3257570420336826e+00 0.0000000000000000e+00 2.3257570420333225e+00 7.7860354448113840e+03 0.0000000000000000e+00 0.0000000000000000e+00 0.0000000000000000e+00 0.0000000000000000e+00  -9.1931753794259265e+01 -3.6034581943704701e+01 0.0000000000000000e+00 -3.6034581943704580e+01 7.5925606715169733e+03 0.0000000000000000e+00 0.0000000000000000e+00 0.0000000000000000e+00 0.0000000