<?xml version="1.0"?>
<VTKFile type="UnstructuredGrid"  version="0.1"  >
<UnstructuredGrid>
<Piece  NumberOfPoints="3879" NumberOfCells="6881">
<Points>
<DataArray  type="Float64"  NumberOfComponents="3"  format="ascii">0.207524190028372 0.2122422770132111 0  0 0 0  1 0 0  0 1 0  1 1 0  0.6249674373315121 0.2590146544375328 0  0.204663578893616 0.322657230836866 0  0.09605577522599912 0.4018360776629776 0  0.671351124618251 0.08738059142081528 0  0.7842102907526436 0.1666439122351055 0  0.8512483166984784 0.1985391006160637 0  0.6418797837909295 0.4423157172830166 0  0.9292488447973215 0.3869277868069776 0  0.3197896119137055 0.5509935221980964 0  0.3979283685568406 0.5079871620336583 0  0.1572503457993085 0.7345153245035532 0  0.3032914287999163 0.7872981443735918 0  0.3549464687598876 0.8870324161721976 0  0.9691791685505482 0.5159450047798622 0  0.9447564590470373 0.6146164845729313 0  0.7687603548175107 0.7176858127488035 0  0.8926159261971183 0.7422924070424508 0  0.2061587782631535 0.2217389244366831 0  0.2021731605082994 0.2304662099646423 0  0.1958902278109265 0.2377171008267789 0  0.1878189860121365 0.2429041729681512 0  0.1786133191209442 0.2456072006525708 0  0.1690190155206647 0.2456072006525708 0  0.1598133486294724 0.2429041729681512 0  0.1517421068306824 0.2377171008267789 0  0.1454591741333096 0.2304662099646422 0  0.1414735563784554 0.221738924436683 0  0.1401081446132369 0.212242277013211 0  0.1414735563784555 0.202745629589739 0  0.1454591741333096 0.1940183440617798 0  0.1517421068306825 0.1867674531996431 0  0.1598133486294725 0.1815803810582709 0  0.1690190155206649 0.1788773533738513 0  0.1786133191209443 0.1788773533738514 0  0.1878189860121367 0.181580381058271 0  0.1958902278109266 0.1867674531996433 0  0.2021731605082994 0.19401834406178 0  0.2061587782631535 0.2027456295897391 0  0.03333333333333333 0 0  0.06666666666666667 0 0  0.1 0 0  0.1333333333333333 0 0  0.1666666666666667 0 0  0.2 0 0  0.2333333333333333 0 0  0.2666666666666667 0 0  0.3 0 0  0.3333333333333333 0 0  0.3666666666666666 0 0  0.4 0 0  0.4333333333333333 0 0  0.4666666666666667 0 0  0.5 0 0  0.5333333333333333 0 0  0.5666666666666667 0 0  0.6 0 0  0.6333333333333333 0 0  0.6666666666666666 0 0  0.7 0 0  0.7333333333333333 0 0  0.7666666666666667 0 0  0.8 0 0  0.8333333333333334 0 0  0.8666666666666667 0 0  0.9 0 0  0.9333333333333333 0 0  0.9666666666666667 0 0  0 0.9666666666666667 0  0 0.9333333333333333 0  0 0.9 0  0 0.8666666666666667 0  0 0.8333333333333334 0  0 0.8 0  0 0.7666666666666666 0  0 0.7333333333333334 0  0 0.7 0  0 0.6666666666666667 0  0 0.6333333333333333 0  0 0.6 0  0 0.5666666666666667 0  0 0.5333333333333333 0  0 0.5 0  0 0.4666666666666667 0  0 0.4333333333333333 0  0 0.4 0  0 0.3666666666666667 0  0 0.3333333333333334 0  0 0.3 0  0 0.2666666666666667 0  0 0.2333333333333333 0  0 0.2 0  0 0.1666666666666666 0  0 0.1333333333333333 0  0 0.09999999999999998 0  0 0.06666666666666665 0  0 0.03333333333333333 0  1 0.03333333333333333 0  1 0.06666666666666667 0  1 0.1 0  1 0.1333333333333333 0  1 0.1666666666666667 0  1 0.2 0  1 0.2333333333333333 0  1 0.2666666666666667 0  1 0.3 0  1 0.3333333333333333 0  1 0.3666666666666666 0  1 0.4 0  1 0.4333333333333333 0  1 0.4666666666666667 0  1 0.5 0  1 0.5333333333333333 0  1 0.5666666666666667 0  1 0.6 0  1 0.6333333333333333 0  1 0.6666666666666666 0  1 0.7 0  1 0.7333333333333333 0  1 0.7666666666666667 0  1 0.8 0  1 0.8333333333333334 0  1 0.8666666666666667 0  1 0.9 0  1 0.9333333333333333 0  1 0.9666666666666667 0  0.9666666666666667 1 0  0.9333333333333333 1 0  0.9 1 0  0.8666666666666667 1 0  0.8333333333333334 1 0  0.8 1 0  0.7666666666666666 1 0  0.7333333333333334 1 0  0.7 1 0  0.6666666666666667 1 0  0.6333333333333333 1 0  0.6 1 0  0.5666666666666667 1 0  0.5333333333333333 1 0  0.5 1 0  0.4666666666666667 1 0  0.4333333333333333 1 0  0.4 1 0  0.3666666666666667 1 0  0.3333333333333334 1 0  0.3 1 0  0.2666666666666667 1 0  0.2333333333333333 1 0  0.2 1 0  0.1666666666666666 1 0  0.1333333333333333 1 0  0.09999999999999998 1 0  0.06666666666666665 1 0  0.03333333333333333 1 0  0.6247072676344306 0.2689501343248463 0  0.6239274716502419 0.2788583817523955 0  0.6226301867455355 0.2887122389026952 0  0.6208189686880621 0.2984846970382296 0  0.6184987819006211 0.3081489705305245 0  0.6156759858539226 0.317678570277693 0  0.6123583176357204 0.3270473763092224 0  0.6085548707439923 0.3362297093789981 0  0.6042760701622942 0.3452004013503318 0  0.5995336437856049 0.3539348641800754 0  0.5943405902749808 0.3624091573127375 0  0.5887111434291297 0.3706000532998825 0  0.582660733170558 0.3784851014649517 0  0.5762059432532257 0.3860426894390078 0  0.5693644658076293 0.3932521023987353 0  0.5621550528479018 0.4000935798443317 0  0.5545974648738458 0.4065483697616639 0  0.5467124167087765 0.4125987800202355 0  0.5385215207216315 0.4182282268660866 0  0.5300472275889694 0.4234212803767108 0  0.5213127647592257 0.4281637067534002 0  0.512342072787892 0.4324425073350981 0  0.5031597397181163 0.4362459542268262 0  0.493790933686587 0.4395636224450283 0  0.4842613339394185 0.4423864184917269 0  0.4745970604471235 0.4447066052791678 0  0.4648246023115891 0.4465178233366412 0  0.4549707451612894 0.4478151082413475 0  0.4450624977337403 0.4485949042255363 0  0.4351270178464268 0.4488550739226177 0  0.4251915379591132 0.4485949042255363 0  0.4152832905315641 0.4478151082413475 0  0.4054294333812644 0.4465178233366411 0  0.39565697524573 0.4447066052791677 0  0.385992701753435 0.4423864184917267 0  0.3764631020062665 0.4395636224450281 0  0.3670942959747371 0.4362459542268259 0  0.3579119629049616 0.4324425073350978 0  0.3489412709336278 0.4281637067533998 0  0.3402068081038843 0.4234212803767103 0  0.3317325149712221 0.4182282268660862 0  0.3235416189840771 0.412598780020235 0  0.3156565708190078 0.4065483697616634 0  0.3080989828449519 0.4000935798443311 0  0.3008895698852244 0.3932521023987346 0  0.2940480924396279 0.3860426894390071 0  0.2875933025222958 0.3784851014649511 0  0.2815428922637242 0.3706000532998818 0  0.2759134454178731 0.3624091573127368 0  0.2707203919072489 0.3539348641800746 0  0.2659779655305596 0.3452004013503309 0  0.2616991649488616 0.3362297093789972 0  0.2578957180571336 0.3270473763092215 0  0.2545780498389315 0.3176785702776921 0  0.251755253792233 0.3081489705305236 0  0.249435067004792 0.2984846970382286 0  0.2476238489473186 0.2887122389026941 0  0.2463265640426123 0.2788583817523945 0  0.2455467680584236 0.2689501343248454 0  0.2452865983613423 0.2590146544375318 0  0.2455467680584237 0.2490791745502182 0  0.2463265640426126 0.2391709271226692 0  0.247623848947319 0.2293170699723696 0  0.2494350670047924 0.2195446118368351 0  0.2517552537922335 0.2098803383445402 0  0.2545780498389321 0.2003507385973717 0  0.2578957180571343 0.1909819325658423 0  0.2616991649488624 0.1817995994960667 0  0.2659779655305604 0.172828907524733 0  0.2707203919072498 0.1640944446949895 0  0.2759134454178741 0.1556201515623273 0  0.2815428922637251 0.1474292555751825 0  0.2875933025222969 0.1395442074101132 0  0.2940480924396291 0.1319866194360571 0  0.3008895698852256 0.1247772064763297 0  0.3080989828449531 0.1179357290307334 0  0.3156565708190092 0.1114809391134012 0  0.3235416189840785 0.1054305288548295 0  0.3317325149712236 0.09980108200897844 0  0.3402068081038856 0.0946080284983544 0  0.3489412709336291 0.08986560212166514 0  0.357911962904963 0.08558680153996717 0  0.3670942959747386 0.08178335464823916 0  0.3764631020062678 0.07846568643003712 0  0.3859927017534364 0.0756428903833386 0  0.3956569752457313 0.0733227035958976 0  0.4054294333812659 0.07151148553842429 0  0.4152832905315654 0.07021420063371797 0  0.4251915379591144 0.0694344046495293 0  0.435127017846428 0.0691742349524479 0  0.4450624977337415 0.06943440464952938 0  0.4549707451612905 0.07021420063371814 0  0.4648246023115901 0.07151148553842454 0  0.4745970604471245 0.07332270359589793 0  0.4842613339394195 0.07564289038333902 0  0.4937909336865879 0.07846568643003757 0  0.5031597397181173 0.0817833546482398 0  0.5123420727878929 0.08558680153996781 0  0.5213127647592265 0.08986560212166581 0  0.53004722758897 0.0946080284983552 0  0.5385215207216321 0.09980108200897933 0  0.5467124167087771 0.1054305288548305 0  0.5545974648738462 0.1114809391134021 0  0.5621550528479023 0.1179357290307343 0  0.5693644658076298 0.1247772064763308 0  0.576205943253226 0.1319866194360582 0  0.5826607331705582 0.1395442074101142 0  0.5887111434291299 0.1474292555751835 0  0.594340590274981 0.1556201515623285 0  0.5995336437856051 0.1640944446949906 0  0.6042760701622945 0.172828907524734 0  0.6085548707439925 0.1817995994960678 0  0.6123583176357205 0.1909819325658435 0  0.6156759858539227 0.2003507385973728 0  0.6184987819006211 0.2098803383445412 0  0.6208189686880622 0.2195446118368362 0  0.6226301867455355 0.2293170699723706 0  0.6239274716502419 0.2391709271226702 0  0.6247072676344306 0.2490791745502192 0  0.203885768735257 0.3325402459548524 0  0.2015714905276826 0.3421799084407872 0  0.1977777294810124 0.3513388578120612 0  0.1925979005829864 0.3597915703383434 0  0.1861595484119405 0.3673299121842922 0  0.1786212065659918 0.373768264355338 0  0.1701684940397096 0.378948093253364 0  0.1610095446684356 0.3827418543000342 0  0.1513698821825007 0.3850561325076086 0  0.1414868670645144 0.3858339426659677 0  0.1316038519465281 0.3850561325076086 0  0.1219641894605933 0.3827418543000343 0  0.1128052400893193 0.378948093253364 0  0.1043525275630371 0.3737682643553381 0  0.09681418571708833 0.3673299121842922 0  0.09037583354604248 0.3597915703383434 0  0.08519600464801645 0.3513388578120612 0  0.08140224360134621 0.3421799084407872 0  0.07908796539377183 0.3325402459548523 0  0.07831015523541281 0.3226572308368659 0  0.07908796539377186 0.3127742157188796 0  0.08140224360134626 0.3031345532329447 0  0.08519600464801655 0.2939756038616707 0  0.0903758335460426 0.2855228913353884 0  0.0968141857
[...]
<PointData  Tensors="$\sigma$"> 
<DataArray  type="Float64"  Name="$\sigma$"  NumberOfComponents="9" format="ascii">8.3578858969825930e+01 3.6114185854270417e+01 0.0000000000000000e+00 3.6114185854270417e+01 3.7976017600008727e+03 0.0000000000000000e+00 0.0000000000000000e+00 0.0000000000000000e+00 0.0000000000000000e+00  4.6981825581784989e+02 5.6622152533718101e+01 0.0000000000000000e+00 5.6622152533718108e+01 1.9105094023902495e+03 0.0000000000000000e+00 0.0000000000000000e+00 0.0000000000000000e+00 0.0000000000000000e+00  -4.9095306459990340e+00 -7.1322134816055476e+00 0.0000000000000000e+00 -7.1322134816055573e+00 2.0404504346859223e+03 0.0000000000000000e+00 0.0000000000000000e+00 0.0000000000000000e+00 0.0000000000000000e+00  6.5144503151568118e+00 -2.9907816516834562e+00 0.0000000000000000e+00 -2.9907816516834553e+00 1.9623724788180164e+03 0.0000000000000000e+00 0.0000000000000000e+00 0.0000000000000000e+00 0.0000000000000000e+00  5.9814707843870911e+00 4.1308745917628498e+00 0.0000000000000000e+00 4.1308745917628507e+00 1.8684090222915052e+03 0.0000000000000000e+00 0.0000000000000000e+00 0.0000000000000000e+00 0.0000000000000000e+00  4.8583177242446155e+01 4.6131219995594833e+01 0.0000000000000000e+00 4.6131219995594975e+01 3.7810792406081378e+03 0.0000000000000000e+00 0.0000000000000000e+00 0.0000000000000000e+00 0.0000000000000000e+00  -3.3691638282751349e+01 1.0788758559307234e+02 0.0000000000000000e+00 1.0788758559307252e+02 1.5585638588981217e+02 0.0000000000000000e+00 0.0000000000000000e+00 0.0000000000000000e+00 0.0000000000000000e+00  3.2784803959163685e+02 2.1733348333738189e+02 0.0000000000000000e+00 2.1733348333738189e+02 4.1376131284749035e+03 0.0000000000000000e+00 0.0000000000000000e+00 0.0000000000000000e+00 0.0000000000000000e+00  1.7280069885671952e+02 -2.0218452348887348e+02 0.0000000000000000e+00 -2.0218452348887348e+02 3.7834928226909055e+03 0.0000000000000000e+00 0.0000000000000000e+00 0.0000000000000000e+00 0.0000000000000000e+00  -4.4758140831411104e+01 -2.3436366349076883e+00 0.0000000000000000e+00 -2.3436366349075808e+00 -5.6842906538529199e+01 0.0000000000000000e+00 0.0000000000000000e+00 0.0000000000000000e+00 0.0000000000000000e+00  -4.5165348396791755e-01 -1.1844962890990058e+01 0.0000000000000000e+00 -1.1844962890990056e+01 -8.0366827708606845e+00 0.0000000000000000e+00 0.0000000000000000e+00 0.0000000000000000e+00 0.0000000000000000e+00  8.2502650354401084e+01 2.0344263974596487e+02 0.0000000000000000e+00 2.0344263974596512e+02 2.1424251384946192e+03 0.0000000000000000e+00 0.0000000000000000e+00 0.0000000000000000e+00 0.0000000000000000e+00  -1.8446335968479318e+01 4.5644555782752711e+01 0.0000000000000000e+00 4.5644555782752711e+01 4.9021638470662210e+03 0.0000000000000000e+00 0.0000000000000000e+00 0.0000000000000000e+00 0.0000000000000000e+00  3.9439195855104494e+01 3.9787394792234011e+01 0.0000000000000000e+00 3.9787394792234011e+01 3.9125136632612207e+03 0.0000000000000000e+00 0.0000000000000000e+00 0.0000000000000000e+00 0.0000000000000000e+00  -3.1779174956664605e+01 -1.0196945014251142e+02 0.0000000000000000e+00 -1.0196945014251173e+02 -4.6110246665195768e+02 0.0000000000000000e+00 0.0000000000000000e+00 0.0000000000000000e+00 0.0000000000000000e+00  -4.7387872910139194e+01 -8.1192684468416942e+01 0.0000000000000000e+00 -8.1192684468416800e+01 -1.1306366918924454e+02 0.0000000000000000e+00 0.0000000000000000e+00 0.0000000000000000e+00 0.0000000000000000e+00  2.8086048276819202e+01 -9.5498376868317649e+01 0.0000000000000000e+00 -9.5498376868317735e+01 2.4710180551488411e+03 0.0000000000000000e+00 0.0000000000000000e+00 0.0000000000000000e+00 0.0000000000000000e+00  9.1542563260605817e+01 6.6626380885718063e+01 0.0000000000000000e+00 6.6626380885717964e+01 2.9497948397803802e+03 0.0000000000000000e+00 0.0000000000000000e+00 0.0000000000000000e+00 0.0000000000000000e+00  8.1831664642531621e+02 7.5257237028127281e+02 0.0000000000000000e+00 7.5257237028127281e+02 9.0699604244760503e+03 0.0000000000000000e+00 0.0000000000000000e+00 0.0000000000000000e+00 0.0000000000000000e+00  1.3647960527040539e+02 -1.2576225917833874e+02 0.0000000000000000e+00 -1.2576225917833874e+02 4.6406595499590039e+03 0.0000000000000000e+00 0.0000000000000000e+00 0.0000000000000000e+00 0.0000000000000000e+00  3.0442429013837081e+01 7.2948546726024389e+01 0.0000000000000000e+00 7.2948546726024375e+01 2.8938375540476723e+03 0.0000000000000000e+00 0.0000000000000000e+00 0.0000000000000000e+00 0.0000000000000000e+00  7.4533131539133819e+01 -3.4549410958416071e-01 0.0000000000000000e+00 -3.4549410958416071e-01 1.5838698564066026e+03 0.0000000000000000e+00 0.0000000000000000e+00 0.0000000000000000e+00 0.0000000000000000e+00  1.6222646408784061e+02 -4.3153364969090592e+02 0.0000000000000000e+00 -4.3153364969090592e+02 2.4213716690815331e+03 0.0000000000000000e+00 0.0000000000000000e+00 0.0000000000000000e+00 0.0000000000000000e+00  -1.3750869784291143e+02 -1.2520937309005433e+02 0.0000000000000000e+00 -1.2520937309005433e+02 7.1882353542643045e+02 0.0000000000000000e+00 0.0000000000000000e+00 0.0000000000000000e+00 0.0000000000000000e+00  -7.8072717414545320e+02 4.6624796752322993e+02 0.0000000000000000e+00 4.6624796752322993e+02 -2.7039470926585199e+02 0.0000000000000000e+00 0.0000000000000000e+00 0.0000000000000000e+00 0.0000000000000000e+00  -1.3998073459103500e+03 4.9285155938862511e+02 0.0000000000000000e+00 4.9285155938862511e+02 -3.2661067366801342e+02 0.0000000000000000e+00 0.0000000000000000e+00 0.0000000000000000e+00 0.0000000000000000e+00  -1.1390004026009858e+03 3.5548741653895968e+02 0.0000000000000000e+00 3.5548741653895968e+02 -1.8240845084544279e+02 0.0000000000000000e+00 0.0000000000000000e+00 0.0000000000000000e+00 0.0000000000000000e+00  5.4373559813195345e+02 8.1420977605486905e+02 0.0000000000000000e+00 8.1420977605486905e+02 5.0425297706423862e+02 0.0000000000000000e+00 0.0000000000000000e+00 0.0000000000000000e+00 0.0000000000000000e+00  2.3840706615303188e+03 1.5821588935686530e+03 0.0000000000000000e+00 1.5821588935686530e+03 9.8735853235492607e+02 0.0000000000000000e+00 0.0000000000000000e+00 0.0000000000000000e+00 0.0000000000000000e+00  2.4234560060764502e+03 1.9002960959058596e+03 0.0000000000000000e+00 1.9002960959058596e+03 1.7731536022444041e+03 0.0000000000000000e+00 0.0000000000000000e+00 0.0000000000000000e+00 0.0000000000000000e+00  1.1932313141577902e+03 1.4817438862975234e+03 0.0000000000000000e+00 1.4817438862975234e+03 2.0411955914839775e+03 0.0000000000000000e+00 0.0000000000000000e+00 0.0000000000000000e+00 0.0000000000000000e+00  4.5285903267628834e+02 6.7553688119983838e+02 0.0000000000000000e+00 6.7553688119983838e+02 1.7214539698799274e+03 0.0000000000000000e+00 0.0000000000000000e+00 0.0000000000000000e+00 0.0000000000000000e+00  6.8787712678841629e+01 1.2989061779660557e+02 0.0000000000000000e+00 1.2989061779660560e+02 1.4869853948319139e+03 0.0000000000000000e+00 0.0000000000000000e+00 0.0000000000000000e+00 0.0000000000000000e+00  6.4023914796876369e+01 -1.1344514704985752e+02 0.0000000000000000e+00 -1.1344514704985751e+02 7.5820471521506522e+02 0.0000000000000000e+00 0.0000000000000000e+00 0.0000000000000000e+00 0.0000000000000000e+00  -6.5726195294422126e+01 4.5239168969015068e+01 0.0000000000000000e+00 4.5239168969015040e+01 1.0985610408636011e+02 0.0000000000000000e+00 0.0000000000000000e+00 0.0000000000000000e+00 0.0000000000000000e+00  -4.9031182677207568e+02 3.2387258211359432e+02 0.0000000000000000e+00 3.2387258211359421e+02 -2.1931981280473761e+02 0.0000000000000000e+00 0.0000000000000000e+00 0.0000000000000000e+00 0.0000000000000000e+00  -9.1097099660060235e+02 3.4299957480696503e+02 0.0000000000000000e+00 3.4299957480696503e+02 -2.1886508593397713e+02 0.0000000000000000e+00 0.0000000000000000e+00 0.0000000000000000e+00 0.0000000000000000e+00  -9.3777284395392144e+02 2.0522398939603212e+02 0.0000000000000000e+00 2.0522398939603212e+02 -1.4323191724439721e+02 0.0000000000000000e+00 0.0000000000000000e+00 0.0000000000000000e+00 0.0000000000000000e+00  -4.2542336238416209e+02 4.6648944015899488e+01 0.0000000000000000e+00 4.6648944015899488e+01 2.8703642012858886e+01 0.0000000000000000e+00 0.0000000000000000e+00 0.0000000000000000e+00 0.0000000000000000e+00  4.5669084006509269e+02 3.7120438311926131e+02 0.0000000000000000e+00 3.7120438311926131e+02 2.4918334294955895e+02 0.0000000000000000e+00 0.0000000000000000e+00 0.0000000000000000e+00 0.0000000000000000e+00  9.6319370076951100e+02 8.8411454476241988e+02 0.0000000000000000e+00 8.8411454476241988e+02 1.1026103857320556e+03 0.0000000000000000e+00 0.0000000000000000e+00 0.0000000000000000e+00 0.0000000000000000e+00  8.5189917611572719e+02 1.3527116045543503e+03 0.0000000000000000e+00 1.3527116045543503e+03 2.3876512899249205e+03 0.0000000000000000e+00 0.0000000000000000e+00 0.0000000000000000e+00 0.0000000000000000e+00  5.8693556475067066e+02 8.3479402739462409e+02 0.0000000000000000e+00 8.3479402739462409e+02 3.4385798610632919e+03 0.0000000000000000e+00 0.0000000000000000e+00 0.0000000000000000e+00 0.0000000000000000e+00  1.8501189089545628e+02 -1.0292684864439663e+02 0.0000000000000000e+00 -1.0292684864439659e+02 1.6009913083391079e+03 0.0000000000000000e+00 0.0000000000000000e+00 0.0000000000000000e+00 0.0000000000000000e+00  -3.9786205091900584e+01 9.2892490109564694e+00 0.0000000000000000e+00 9.2892490109564694e+00 1.3932457288149715e+03 0.0000000000000000e+00 0.0000000000000000e+00 0.0000000000000000e+00 0.0000000000000000e+00  8.3625830683680419e+01 6.6716389869690698e+00 0.0000000000000000e+00 6.6716389869690742e+00 1.0837032760512045e+03 0.0000000000000000e+00 0.0000000000000000e+00 0.0000000000000000e+00 0.0000000000000000e+00  1.0371835143475282e+01 1.1604611145373584e+01 0.0000000000000000e+00 1.1604611145373577e+01 9.1812017052489603e+02 0.0000000000000000e+00 0.0000000000000000e+00 0.0000000000000000e+00 0.0000000000000000e+00  2.9790316392930389e+01 1.6654465184843161e+01 0.0000000000000000e+00 1.6654465184843165e+01 7.2351484893524832e+02 0.0000000000000000e+00 0.0000000000000000e+00 0.0000000000000000e+00 0.0000000000000000e+00  -1.1381552443852947e+01 1.0940752586324834e+01 0.0000000000000000e+00 1.0940752586324841e+01 5.4791798851995861e+02 0.0000000000000000e+00 0.0000000000000000e+00 0.0000000000000000e+00 0.0000000000000000e+00  -2.8430432182586866e+01 5.5569826987045836e+00 0.0000000000000000e+00 5.5569826987045827e+00 3.9572205302391728e+02 0.0000000000000000e+00 0.0000000000000000e+00 0.0000000000000000e+00 0.0000000000000000e+00  -5.5331360718187263e+01 4.4113436943718343e+00 0.0000000000000000e+00 4.4113436943718343e+00 2.5352983759257944e+02 0.0000000000000000e+00 0.0000000000000000e+00 0.0000000000000000e+00 0.0000000000000000e+00  -5.4071246637139488e+01 4.8572320286990935e+00 0.0000000000000000e+00 4.8572320286990935e+00 1.0696204044546764e+02 0.0000000000000000e+00 0.0000000000000000e+00 0.0000000000000000e+00 0.0000000000000000e+00  -6.4744777150361571e+01 6.8784873305485243e+00 0.0000000000000000e+00 6.8784873305485279e+00 -1.1668197241014031e+01 0.0000000000000000e+00 0.0000000000000000e+00 0.0000000000000000e+00 0.0000000000000000e+00  -9.3912664411968521e+01 5.3255251295189288e+00 0.0000000000000000e+00 5.3255251295189252e+00 -5.6184076566433603e+01 0.0000000000000000e+00 0.0000000000000000e+00 0.0000000000000000e+00 0.0000000000000000e+00  -1.1752282880279540e+02 2.5129561921201571e-01 0.0000000000000000e+00 2.5129561921201848e-01 -5.6455575528328730e+01 0.0000000000000000e+00 0.0000000000000000e+00 0.0000000000000000e+00 0.0000000000000000e+00  -1.3717197862629359e+02 9.8161601063026171e-01 0.0000000000000000e+00 9.8161601063026216e-01 -2.7600454158234356e+01 0.0000000000000000e+00 0.0000000000000000e+00 0.0000000000000000e+00 0.0000000000000000e+00  -1.4825485916921244e+02 -2.4817502287909456e+00 0.0000000000000000e+00 -2.4817502287909443e+00 2.6016602758235429e+01 0.0000000000000000e+00 0.0000000000000000e+00 0.0000000000000000e+00 0.0000000000000000e+00  -1.9042106961633769e+02 3.5636671590926352e+00 0.0000000000000000e+00 3.5636671590926277e+00 1.5270367835799885e+02 0.0000000000000000e+00 0.0000000000000000e+00 0.0000000000000000e+00 0.0000000000000000e+00  -2.7942223438848850e+02 1.2894410086158814e+01 0.0000000000000000e+00 1.2894410086158803e+01 3.2569294977546537e+02 0.0000000000000000e+00 0.0000000000000000e+00 0.0000000000000000e+00 0.0000000000000000e+00  -4.4355037633735549e+02 2.2973835038221132e+01 0.0000000000000000e+00 2.2973835038221129e+01 4.6951944735801982e+02 0.0000000000000000e+00 0.0000000000000000e+00 0.0000000000000000e+00 0.0000000000000000e+00  -5.0397192203245845e+02 -2.2046782182550245e+01 0.0000000000000000e+00 -2.2046782182550238e+01 3.1450729669862136e+02 0.0000000000000000e+00 0.0000000000000000e+00 0.0000000000000000e+00 0.0000000000000000e+00  -3.8149820871945343e+02 3.0960042287512640e-01 0.0000000000000000e+00 3.0960042287512440e-01 -3.0874104335802858e+01 0.0000000000000000e+00 0.0000000000000000e+00 0.0000000000000000e+00 0.0000000000000000e+00  -4.4421522233589167e+02 1.8826561820284386e+01 0.0000000000000000e+00 1.8826561820284397e+01 2.0704211160605661e+02 0.0000000000000000e+00 0.0000000000000000e+00 0.0000000000000000e+00 0.0000000000000000e+00  -3.6669071603931019e+02 -1.4629515736954115e+01 0.0000000000000000e+00 -1.4629515736954140e+01 4.1655843243770420e+02 0.0000000000000000e+00 0.0000000000000000e+00 0.0000000000000000e+00 0.0000000000000000e+00  -1.6047293490386977e+02 -2.2702212413679423e+01 0.0000000000000000e+00 -2.2702212413679405e+01 2.5170834207484978e+02 0.0000000000000000e+00 0.0000000000000000e+00 0.0000000000000000e+00 0.0000000000000000e+00  4.8807129082374175e+01 -1.1732807707294619e+01 0.0000000000000000e+00 -1.1732807707294638e+01 1.8965628226077916e+02 0.0000000000000000e+00 0.0000000000000000e+00 0.0000000000000000e+00 0.0000000000000000e+00  9.1110894829436575e+01 -9.8242336274963300e+00 0.0000000000000000e+00 -9.8242336274963193e+00 2.6958621445535351e+02 0.0000000000000000e+00 0.0000000000000000e+00 0.0000000000000000e+00 0.0000000000000000e+00  1.0211871733885657e+02 -7.3328948671917340e+00 0.0000000000000000e+00 -7.3328948671917376e+00 4.8598581578298973e+02 0.0000000000000000e+00 0.0000000000000000e+00 0.0000000000000000e+00 0.0000000000000000e+00  8.1730041378441385e+01 -1.5102889336656352e+01 0.0000000000000000e+00 -1.5102889336656354e+01 7.6171723787728035e+02 0.0000000000000000e+00 0.0000000000000000e+00 0.0000000000000000e+00 0.0000000000000000e+00  7.9909591890899961e+01 -1.1445132489475633e+01 0.0000000000000000e+00 -1.1445132489475629e+01 1.0812018079942397e+03 0.0000000000000000e+00 0.0000000000000000e+00 0.0000000000000000e+00 0.0000000000000000e+00  2.1353956989076526e+01 -7.8225964633053575e+00 0.0000000000000000e+00 -7.8225964633053611e+00 1.4445634434845106e+03 0.0000000000000000e+00 0.0000000000000000e+00 0.0000000000000000e+00 0.0000000000000000e+00  3.0627894069356955e+01 -1.0603518990382842e+01 0.0000000000000000e+00 -1.0603518990382840e+01 1.7393107541870418e+03 0.0000000000000000e+00 0.0000000000000000e+00 0.0000000000000000e+00 0.0000000000000000e+00  -1.4715949615779749e+00 1.7482601720812806e+01 0.0000000000000000e+00 1.7482601720812802e+01 1.9906743996389250e+03 0.0000000000000000e+00 0.0000000000000000e+00 0.0000000000000000e+00 0.0000000000000000e+00  1.4467751691929605e+00 3.4546972164954393e+00 0.0000000000000000e+00 3.4546972164954406e+00 2.0518216707583547e+03 0.0000000000000000e+00 0.0000000000000000e+00 0.0000000000000000e+00 0.0000000000000000e+00  -2.7406370705090439e+00 1.6606680549809472e+01 0.0000000000000000e+00 1.6606680549809465e+01 2.0937281642733792e+03 0.0000000000000000e+00 0.0000000000000000e+00 0.0000000000000000e+00 0.0000000000000000e+00  -1.4394786244836697e+00 4.7330591969818627e+00 0.0000000000000000e+00 4.7330591969818636e+00 2.1560255564632321e+03 0.0000000000000000e+00 0.0000000000000000e+00 0.0000000000000000e+00 0.0000000000000000e+00  3.4199626025819625e+00 6.7732682964751225e+00 0.0000000000000000e+00 6.7732682964751163e+00 2.2296345993089753e+03 0.0000000000000000e+00 0.0000000000000000e+00 0.0000000000000000e+00 0.0000000000000000e+00  -1.8531002064557578e-01 1.9657733003874981e+01 0.0000000000000000e+00 1.9657733003874927e+01 2.2567412440883791e+03 0.0000000000000000e+00 0.0000000000000000e+00 0.0000000000000000e+00 0.0000000000000000e+00  -1.1496898579798810e+01 2.9731537160788285e+01 0.0000000000000000e+00 2.9731537160788299e+01 2.4317684642523482e+03 0.0000000000000000e+00 0.0000000000000000e+00 0.0000000000000000e+00 0.0000000000000000e+00  4.0417407388302945e-01 5.2210806054122180e+01 0.0000000000000000e+00 5.2210806054122180e+01 2.6386080819303247e+03 0.0000000000000000e+00 0.0000000000000000e+00 0.0000000000000000e+00 0.0000000000000000e+00  -1.6813635694694320e+01 2.0484265364010902e+01 0.0000000000000000e+00 2.0484265364010916e+01 2.9275705098626195e+03 0.0000000000000000e+00 0.0000000000000000e+00 0.0000000000000000e+00 0.0000000000000000e+00  -3.8963168335936217e+01 -4.4725171904124707e+01 0.0000000000000000e+00 -4.4725171904124679e+01 2.8729199693758105e+03 0.0000000000000000e+00 0.0000000000000000e+00 0.0000000000000000e+00 0.0000000000000000e+00  -5.2080485220907541e+01 -1.8502325852257550e+02 0.0000000000000000e+00 -1.8502325852257550e+02 2.4528272277461042e+03 0.0000000000000000e+00 0.0000000000000000e+00 0.0000000000000000e+00 0.0000000000000000e+00  -1.6469495588213690e+01 -2.2999134332031170e+02 0.0000000000000000e+00 -2.2999134332031170e+02 1.7961503423926929e+03 0.0000000000000000e+00 0.0000000000000000e+00 0.0000000000000000e+00 0.0000000000000000e+00  9.5727737460812151e+01 3.5921139918488294e+01 0.0000000000000000e+00 3.5921139918488294e+01 9.7292894561323851e+02 0.0000000000000000e+00 0.0000000000000000e+00 0.0000000000000000e+00 0.0000000000000000e+00  6.7284958559100986e+01 1.4315402188722192e+02 0.0000000000000000e+00 1.4315402188722192e+02 1.0624034778819903e+03 0.0000000000000000e+00 0.0000000000000000e+00 0.0000000000000000e+00 0.0000000000000000e+00  2.5014915086450596e+01 2.0695430081431152e+02 0.0000000000000000e+00 2.0695430081431152e+02 2.2757529376965326e+03 0.0000000000000000e+00 0.0000000000000000e+00 0.0000000000000000e+00 0.0000000000000000e+00  -8.6799472843227505e+00 1.5971566541694440e+02 0.0000000000000000e+00 1.5971566541694440e+02 3.3875518086063207e+03 0.0000000000000000e+00 0.0000000000000000e+00 0.0000000000000000e+00 0.0000000000000000e+00  -2.4611796230726480e+01 -1.7609714994254807e+02 0.0000000000000000e+00 -1.7609714994254807e+02 3.6255799524333888e+03 0.0000000000000000e+00 0.0000000000000000e+00 0.0000000000000000e+00 0.0000000000000000e+00  7.0912893748460618e+01 -5.6109982833946141e+01 0.0000000000000000e+00 -5.6109982833946141e+01 2.5169287474405751e+03 0.0000000000000000e+00 0.0000000000000000e+00 0.0000000000000000e+00 0.0000000000000000e+00  -8.7172379382588673e+01 1.1219979462846960e+02 0.0000000000000000e+00 1.1219979462846960e+02 3.0683460468264025e+03 0.0000000000000000e+00 0.0000000000000000e+00 0.0000000000000000e+00 0.0000000000000000e+00  -4.7944213632066788e+00 -8.5781849613176860e+01 0.0000000000000000e+00 -8.5781849613176860e+01 2.9752821650306169e+03 0.0000000000000000e+00 0.0000000000000000e+00 0.0000000000000000e+00 0.0000000000000000e+00  -7.7378625288742802e+00 -1.0322527123325281e+02 0.0000000000000000e+00 -1.0322527123325280e+02 2.2996103487700170e+03 0.0000000000000000e+00 0.0000000000000000e+00 0.0000000000000000e+00 0.0000000000000000e+00  2.3011139174139423e+01 -7.0648364237223360e+00 0.0000000000000000e+00 -7.0648364237223378e+00 2.1315535354026565e+03 0.0000000000000000e+00 0.0000000000000000e+00 0.0000000000000000e+00 0.0000000000000000e+00  -1.0674013432141308e+01 -8.0562021031197661e-01 0.0000000000000000e+00 -8.0562021031200048e-01 2.0822168870323981e+03 0.0000000000000000e+00 0.0000000000000000e+00 0.0000000000000000e+00 0.00000000000000