<?xml version="1.0"?>
<VTKFile type="UnstructuredGrid"  version="0.1"  >
<UnstructuredGrid>
<Piece  NumberOfPoints="3879" NumberOfCells="6881">
<Points>
<DataArray  type="Float64"  NumberOfComponents="3"  format="ascii">0.207524190028372 0.2122422770132111 0  0 0 0  1 0 0  0 1 0  1 1 0  0.6249674373315121 0.2590146544375328 0  0.204663578893616 0.322657230836866 0  0.09605577522599912 0.4018360776629776 0  0.671351124618251 0.08738059142081528 0  0.7842102907526436 0.1666439122351055 0  0.8512483166984784 0.1985391006160637 0  0.6418797837909295 0.4423157172830166 0  0.9292488447973215 0.3869277868069776 0  0.3197896119137055 0.5509935221980964 0  0.3979283685568406 0.5079871620336583 0  0.1572503457993085 0.7345153245035532 0  0.3032914287999163 0.7872981443735918 0  0.3549464687598876 0.8870324161721976 0  0.9691791685505482 0.5159450047798622 0  0.9447564590470373 0.6146164845729313 0  0.7687603548175107 0.7176858127488035 0  0.8926159261971183 0.7422924070424508 0  0.2061587782631535 0.2217389244366831 0  0.2021731605082994 0.2304662099646423 0  0.1958902278109265 0.2377171008267789 0  0.1878189860121365 0.2429041729681512 0  0.1786133191209442 0.2456072006525708 0  0.1690190155206647 0.2456072006525708 0  0.1598133486294724 0.2429041729681512 0  0.1517421068306824 0.2377171008267789 0  0.1454591741333096 0.2304662099646422 0  0.1414735563784554 0.221738924436683 0  0.1401081446132369 0.212242277013211 0  0.1414735563784555 0.202745629589739 0  0.1454591741333096 0.1940183440617798 0  0.1517421068306825 0.1867674531996431 0  0.1598133486294725 0.1815803810582709 0  0.1690190155206649 0.1788773533738513 0  0.1786133191209443 0.1788773533738514 0  0.1878189860121367 0.181580381058271 0  0.1958902278109266 0.1867674531996433 0  0.2021731605082994 0.19401834406178 0  0.2061587782631535 0.2027456295897391 0  0.03333333333333333 0 0  0.06666666666666667 0 0  0.1 0 0  0.1333333333333333 0 0  0.1666666666666667 0 0  0.2 0 0  0.2333333333333333 0 0  0.2666666666666667 0 0  0.3 0 0  0.3333333333333333 0 0  0.3666666666666666 0 0  0.4 0 0  0.4333333333333333 0 0  0.4666666666666667 0 0  0.5 0 0  0.5333333333333333 0 0  0.5666666666666667 0 0  0.6 0 0  0.6333333333333333 0 0  0.6666666666666666 0 0  0.7 0 0  0.7333333333333333 0 0  0.7666666666666667 0 0  0.8 0 0  0.8333333333333334 0 0  0.8666666666666667 0 0  0.9 0 0  0.9333333333333333 0 0  0.9666666666666667 0 0  0 0.9666666666666667 0  0 0.9333333333333333 0  0 0.9 0  0 0.8666666666666667 0  0 0.8333333333333334 0  0 0.8 0  0 0.7666666666666666 0  0 0.7333333333333334 0  0 0.7 0  0 0.6666666666666667 0  0 0.6333333333333333 0  0 0.6 0  0 0.5666666666666667 0  0 0.5333333333333333 0  0 0.5 0  0 0.4666666666666667 0  0 0.4333333333333333 0  0 0.4 0  0 0.3666666666666667 0  0 0.3333333333333334 0  0 0.3 0  0 0.2666666666666667 0  0 0.2333333333333333 0  0 0.2 0  0 0.1666666666666666 0  0 0.1333333333333333 0  0 0.09999999999999998 0  0 0.06666666666666665 0  0 0.03333333333333333 0  1 0.03333333333333333 0  1 0.06666666666666667 0  1 0.1 0  1 0.1333333333333333 0  1 0.1666666666666667 0  1 0.2 0  1 0.2333333333333333 0  1 0.2666666666666667 0  1 0.3 0  1 0.3333333333333333 0  1 0.3666666666666666 0  1 0.4 0  1 0.4333333333333333 0  1 0.4666666666666667 0  1 0.5 0  1 0.5333333333333333 0  1 0.5666666666666667 0  1 0.6 0  1 0.6333333333333333 0  1 0.6666666666666666 0  1 0.7 0  1 0.7333333333333333 0  1 0.7666666666666667 0  1 0.8 0  1 0.8333333333333334 0  1 0.8666666666666667 0  1 0.9 0  1 0.9333333333333333 0  1 0.9666666666666667 0  0.9666666666666667 1 0  0.9333333333333333 1 0  0.9 1 0  0.8666666666666667 1 0  0.8333333333333334 1 0  0.8 1 0  0.7666666666666666 1 0  0.7333333333333334 1 0  0.7 1 0  0.6666666666666667 1 0  0.6333333333333333 1 0  0.6 1 0  0.5666666666666667 1 0  0.5333333333333333 1 0  0.5 1 0  0.4666666666666667 1 0  0.4333333333333333 1 0  0.4 1 0  0.3666666666666667 1 0  0.3333333333333334 1 0  0.3 1 0  0.2666666666666667 1 0  0.2333333333333333 1 0  0.2 1 0  0.1666666666666666 1 0  0.1333333333333333 1 0  0.09999999999999998 1 0  0.06666666666666665 1 0  0.03333333333333333 1 0  0.6247072676344306 0.2689501343248463 0  0.6239274716502419 0.2788583817523955 0  0.6226301867455355 0.2887122389026952 0  0.6208189686880621 0.2984846970382296 0  0.6184987819006211 0.3081489705305245 0  0.6156759858539226 0.317678570277693 0  0.6123583176357204 0.3270473763092224 0  0.6085548707439923 0.3362297093789981 0  0.6042760701622942 0.3452004013503318 0  0.5995336437856049 0.3539348641800754 0  0.5943405902749808 0.3624091573127375 0  0.5887111434291297 0.3706000532998825 0  0.582660733170558 0.3784851014649517 0  0.5762059432532257 0.3860426894390078 0  0.5693644658076293 0.3932521023987353 0  0.5621550528479018 0.4000935798443317 0  0.5545974648738458 0.4065483697616639 0  0.5467124167087765 0.4125987800202355 0  0.5385215207216315 0.4182282268660866 0  0.5300472275889694 0.4234212803767108 0  0.5213127647592257 0.4281637067534002 0  0.512342072787892 0.4324425073350981 0  0.5031597397181163 0.4362459542268262 0  0.493790933686587 0.4395636224450283 0  0.4842613339394185 0.4423864184917269 0  0.4745970604471235 0.4447066052791678 0  0.4648246023115891 0.4465178233366412 0  0.4549707451612894 0.4478151082413475 0  0.4450624977337403 0.4485949042255363 0  0.4351270178464268 0.4488550739226177 0  0.4251915379591132 0.4485949042255363 0  0.4152832905315641 0.4478151082413475 0  0.4054294333812644 0.4465178233366411 0  0.39565697524573 0.4447066052791677 0  0.385992701753435 0.4423864184917267 0  0.3764631020062665 0.4395636224450281 0  0.3670942959747371 0.4362459542268259 0  0.3579119629049616 0.4324425073350978 0  0.3489412709336278 0.4281637067533998 0  0.3402068081038843 0.4234212803767103 0  0.3317325149712221 0.4182282268660862 0  0.3235416189840771 0.412598780020235 0  0.3156565708190078 0.4065483697616634 0  0.3080989828449519 0.4000935798443311 0  0.3008895698852244 0.3932521023987346 0  0.2940480924396279 0.3860426894390071 0  0.2875933025222958 0.3784851014649511 0  0.2815428922637242 0.3706000532998818 0  0.2759134454178731 0.3624091573127368 0  0.2707203919072489 0.3539348641800746 0  0.2659779655305596 0.3452004013503309 0  0.2616991649488616 0.3362297093789972 0  0.2578957180571336 0.3270473763092215 0  0.2545780498389315 0.3176785702776921 0  0.251755253792233 0.3081489705305236 0  0.249435067004792 0.2984846970382286 0  0.2476238489473186 0.2887122389026941 0  0.2463265640426123 0.2788583817523945 0  0.2455467680584236 0.2689501343248454 0  0.2452865983613423 0.2590146544375318 0  0.2455467680584237 0.2490791745502182 0  0.2463265640426126 0.2391709271226692 0  0.247623848947319 0.2293170699723696 0  0.2494350670047924 0.2195446118368351 0  0.2517552537922335 0.2098803383445402 0  0.2545780498389321 0.2003507385973717 0  0.2578957180571343 0.1909819325658423 0  0.2616991649488624 0.1817995994960667 0  0.2659779655305604 0.172828907524733 0  0.2707203919072498 0.1640944446949895 0  0.2759134454178741 0.1556201515623273 0  0.2815428922637251 0.1474292555751825 0  0.2875933025222969 0.1395442074101132 0  0.2940480924396291 0.1319866194360571 0  0.3008895698852256 0.1247772064763297 0  0.3080989828449531 0.1179357290307334 0  0.3156565708190092 0.1114809391134012 0  0.3235416189840785 0.1054305288548295 0  0.3317325149712236 0.09980108200897844 0  0.3402068081038856 0.0946080284983544 0  0.3489412709336291 0.08986560212166514 0  0.357911962904963 0.08558680153996717 0  0.3670942959747386 0.08178335464823916 0  0.3764631020062678 0.07846568643003712 0  0.3859927017534364 0.0756428903833386 0  0.3956569752457313 0.0733227035958976 0  0.4054294333812659 0.07151148553842429 0  0.4152832905315654 0.07021420063371797 0  0.4251915379591144 0.0694344046495293 0  0.435127017846428 0.0691742349524479 0  0.4450624977337415 0.06943440464952938 0  0.4549707451612905 0.07021420063371814 0  0.4648246023115901 0.07151148553842454 0  0.4745970604471245 0.07332270359589793 0  0.4842613339394195 0.07564289038333902 0  0.4937909336865879 0.07846568643003757 0  0.5031597397181173 0.0817833546482398 0  0.5123420727878929 0.08558680153996781 0  0.5213127647592265 0.08986560212166581 0  0.53004722758897 0.0946080284983552 0  0.5385215207216321 0.09980108200897933 0  0.5467124167087771 0.1054305288548305 0  0.5545974648738462 0.1114809391134021 0  0.5621550528479023 0.1179357290307343 0  0.5693644658076298 0.1247772064763308 0  0.576205943253226 0.1319866194360582 0  0.5826607331705582 0.1395442074101142 0  0.5887111434291299 0.1474292555751835 0  0.594340590274981 0.1556201515623285 0  0.5995336437856051 0.1640944446949906 0  0.6042760701622945 0.172828907524734 0  0.6085548707439925 0.1817995994960678 0  0.6123583176357205 0.1909819325658435 0  0.6156759858539227 0.2003507385973728 0  0.6184987819006211 0.2098803383445412 0  0.6208189686880622 0.2195446118368362 0  0.6226301867455355 0.2293170699723706 0  0.6239274716502419 0.2391709271226702 0  0.6247072676344306 0.2490791745502192 0  0.203885768735257 0.3325402459548524 0  0.2015714905276826 0.3421799084407872 0  0.1977777294810124 0.3513388578120612 0  0.1925979005829864 0.3597915703383434 0  0.1861595484119405 0.3673299121842922 0  0.1786212065659918 0.373768264355338 0  0.1701684940397096 0.378948093253364 0  0.1610095446684356 0.3827418543000342 0  0.1513698821825007 0.3850561325076086 0  0.1414868670645144 0.3858339426659677 0  0.1316038519465281 0.3850561325076086 0  0.1219641894605933 0.3827418543000343 0  0.1128052400893193 0.378948093253364 0  0.1043525275630371 0.3737682643553381 0  0.09681418571708833 0.3673299121842922 0  0.09037583354604248 0.3597915703383434 0  0.08519600464801645 0.3513388578120612 0  0.08140224360134621 0.3421799084407872 0  0.07908796539377183 0.3325402459548523 0  0.07831015523541281 0.3226572308368659 0  0.07908796539377186 0.3127742157188796 0  0.08140224360134626 0.3031345532329447 0  0.08519600464801655 0.2939756038616707 0  0.0903758335460426 0.2855228913353884 0  0.0968141857
[...]
<PointData  Tensors="$\sigma$"> 
<DataArray  type="Float64"  Name="$\sigma$"  NumberOfComponents="9" format="ascii">1.4150511208237640e+02 3.5442981769646792e+01 0.0000000000000000e+00 3.5442981769646607e+01 1.0098217843755980e+04 0.0000000000000000e+00 0.0000000000000000e+00 0.0000000000000000e+00 0.0000000000000000e+00  1.2100002371894823e+03 1.0293234800583625e+02 0.0000000000000000e+00 1.0293234800583640e+02 5.0137876268034915e+03 0.0000000000000000e+00 0.0000000000000000e+00 0.0000000000000000e+00 0.0000000000000000e+00  -2.4119314342677757e+01 -2.0882345846259565e+01 0.0000000000000000e+00 -2.0882345846259518e+01 5.3178236203712486e+03 0.0000000000000000e+00 0.0000000000000000e+00 0.0000000000000000e+00 0.0000000000000000e+00  7.4644262156405050e+00 -4.5770348735260464e+00 0.0000000000000000e+00 -4.5770348735260953e+00 5.1948483547389305e+03 0.0000000000000000e+00 0.0000000000000000e+00 0.0000000000000000e+00 0.0000000000000000e+00  8.4172111871223265e+00 1.0591990394534907e+01 0.0000000000000000e+00 1.0591990394534912e+01 4.8478479879887609e+03 0.0000000000000000e+00 0.0000000000000000e+00 0.0000000000000000e+00 0.0000000000000000e+00  8.2200730878124475e+01 8.3853684782248934e+01 0.0000000000000000e+00 8.3853684782250141e+01 1.0109059754929967e+04 0.0000000000000000e+00 0.0000000000000000e+00 0.0000000000000000e+00 0.0000000000000000e+00  -8.5526860130124575e+01 2.4801001560533496e+02 0.0000000000000000e+00 2.4801001560533518e+02 2.2943433420945047e+02 0.0000000000000000e+00 0.0000000000000000e+00 0.0000000000000000e+00 0.0000000000000000e+00  6.2209386107379146e+02 3.9028818001358673e+02 0.0000000000000000e+00 3.9028818001358695e+02 1.0756943006537313e+04 0.0000000000000000e+00 0.0000000000000000e+00 0.0000000000000000e+00 0.0000000000000000e+00  2.1757497790881953e+02 -3.1413012369745155e+02 0.0000000000000000e+00 -3.1413012369745132e+02 1.0116724512807252e+04 0.0000000000000000e+00 0.0000000000000000e+00 0.0000000000000000e+00 0.0000000000000000e+00  -2.7615726788396717e+02 9.5976521421335889e+01 0.0000000000000000e+00 9.5976521421336443e+01 -1.6648257265234872e+02 0.0000000000000000e+00 0.0000000000000000e+00 0.0000000000000000e+00 0.0000000000000000e+00  -6.9977408431751109e-01 -4.1366252430277981e+01 0.0000000000000000e+00 -4.1366252430277925e+01 -1.6691552670889047e+02 0.0000000000000000e+00 0.0000000000000000e+00 0.0000000000000000e+00 0.0000000000000000e+00  1.1928722268530358e+02 4.1224423303059120e+02 0.0000000000000000e+00 4.1224423303059228e+02 5.6085619003988859e+03 0.0000000000000000e+00 0.0000000000000000e+00 0.0000000000000000e+00 0.0000000000000000e+00  1.7898169368325989e+02 3.8822976565217097e+01 0.0000000000000000e+00 3.8822976565216727e+01 1.2365048570654495e+04 0.0000000000000000e+00 0.0000000000000000e+00 0.0000000000000000e+00 0.0000000000000000e+00  6.0109357386607549e+01 1.1711632351157303e+02 0.0000000000000000e+00 1.1711632351157293e+02 1.0374457275188663e+04 0.0000000000000000e+00 0.0000000000000000e+00 0.0000000000000000e+00 0.0000000000000000e+00  -9.3266641348026155e+01 -2.0560557533314275e+02 0.0000000000000000e+00 -2.0560557533314204e+02 -1.2271120972818123e+03 0.0000000000000000e+00 0.0000000000000000e+00 0.0000000000000000e+00 0.0000000000000000e+00  -2.1996683504605312e+02 -1.8675938871474486e+02 0.0000000000000000e+00 -1.8675938871474546e+02 -8.0495941239715830e+02 0.0000000000000000e+00 0.0000000000000000e+00 0.0000000000000000e+00 0.0000000000000000e+00  5.2685790683308895e+01 -1.2569517129461427e+02 0.0000000000000000e+00 -1.2569517129461462e+02 6.5106955495126222e+03 0.0000000000000000e+00 0.0000000000000000e+00 0.0000000000000000e+00 0.0000000000000000e+00  1.2378914209437235e+02 9.7998758461269404e+01 0.0000000000000000e+00 9.7998758461269404e+01 7.8351133535637027e+03 0.0000000000000000e+00 0.0000000000000000e+00 0.0000000000000000e+00 0.0000000000000000e+00  5.0788535179493183e+03 4.5236188218683549e+02 0.0000000000000000e+00 4.5236188218683566e+02 1.7699612836730324e+04 0.0000000000000000e+00 0.0000000000000000e+00 0.0000000000000000e+00 0.0000000000000000e+00  2.8330833845193740e+02 -3.2110726997055747e+02 0.0000000000000000e+00 -3.2110726997055764e+02 1.2101647582651509e+04 0.0000000000000000e+00 0.0000000000000000e+00 0.0000000000000000e+00 0.0000000000000000e+00  4.3027818866640679e+01 1.6083846111557733e+02 0.0000000000000000e+00 1.6083846111557619e+02 7.7406477431290223e+03 0.0000000000000000e+00 0.0000000000000000e+00 0.0000000000000000e+00 0.0000000000000000e+00  1.2502054197636983e+02 1.8816954020061324e+01 0.0000000000000000e+00 1.8816954020061118e+01 4.0486410417011621e+03 0.0000000000000000e+00 0.0000000000000000e+00 0.0000000000000000e+00 0.0000000000000000e+00  4.9989774959488801e+02 -1.3701585022923339e+03 0.0000000000000000e+00 -1.3701585022923339e+03 6.3403415844125893e+03 0.0000000000000000e+00 0.0000000000000000e+00 0.0000000000000000e+00 0.0000000000000000e+00  -2.4737013605446145e+02 -4.3791840175349563e+02 0.0000000000000000e+00 -4.3791840175349563e+02 1.7052159368921764e+03 0.0000000000000000e+00 0.0000000000000000e+00 0.0000000000000000e+00 0.0000000000000000e+00  -1.8453643162920785e+03 1.1916558108550480e+03 0.0000000000000000e+00 1.1916558108550491e+03 -8.1371400592288694e+02 0.0000000000000000e+00 0.0000000000000000e+00 0.0000000000000000e+00 0.0000000000000000e+00  -3.9265982868587316e+03 1.4175063755793460e+03 0.0000000000000000e+00 1.4175063755793483e+03 -7.9147163397967768e+02 0.0000000000000000e+00 0.0000000000000000e+00 0.0000000000000000e+00 0.0000000000000000e+00  -2.9859699674003878e+03 8.0444920206320910e+02 0.0000000000000000e+00 8.0444920206320762e+02 -5.0361499527517327e+02 0.0000000000000000e+00 0.0000000000000000e+00 0.0000000000000000e+00 0.0000000000000000e+00  1.3113147936567391e+03 2.0808912647034226e+03 0.0000000000000000e+00 2.0808912647034213e+03 1.3193868335645404e+03 0.0000000000000000e+00 0.0000000000000000e+00 0.0000000000000000e+00 0.0000000000000000e+00  6.6444289331129548e+03 4.2844069293786879e+03 0.0000000000000000e+00 4.2844069293786824e+03 2.4113676875562705e+03 0.0000000000000000e+00 0.0000000000000000e+00 0.0000000000000000e+00 0.0000000000000000e+00  6.5959282480180564e+03 5.1878943159855535e+03 0.0000000000000000e+00 5.1878943159855580e+03 4.8133156309690594e+03 0.0000000000000000e+00 0.0000000000000000e+00 0.0000000000000000e+00 0.0000000000000000e+00  2.9486818999126449e+03 3.9675362009086084e+03 0.0000000000000000e+00 3.9675362009086134e+03 5.5497840023646368e+03 0.0000000000000000e+00 0.0000000000000000e+00 0.0000000000000000e+00 0.0000000000000000e+00  1.0541053470011234e+03 1.7460305747450807e+03 0.0000000000000000e+00 1.7460305747450827e+03 4.6329873210720016e+03 0.0000000000000000e+00 0.0000000000000000e+00 0.0000000000000000e+00 0.0000000000000000e+00  6.9836415176418768e+01 2.7804369714589399e+02 0.0000000000000000e+00 2.7804369714589444e+02 3.9519659571986845e+03 0.0000000000000000e+00 0.0000000000000000e+00 0.0000000000000000e+00 0.0000000000000000e+00  1.7792376772684409e+02 -3.2620053078537683e+02 0.0000000000000000e+00 -3.2620053078537632e+02 1.8982281059658956e+03 0.0000000000000000e+00 0.0000000000000000e+00 0.0000000000000000e+00 0.0000000000000000e+00  -1.6852832190833928e+02 1.2605499651647230e+02 0.0000000000000000e+00 1.2605499651647180e+02 1.8288023289047410e+02 0.0000000000000000e+00 0.0000000000000000e+00 0.0000000000000000e+00 0.0000000000000000e+00  -1.2482494658906121e+03 9.0698065218837723e+02 0.0000000000000000e+00 9.0698065218837985e+02 -6.7159010362747404e+02 0.0000000000000000e+00 0.0000000000000000e+00 0.0000000000000000e+00 0.0000000000000000e+00  -2.4418412473735762e+03 9.7534994688668439e+02 0.0000000000000000e+00 9.7534994688668269e+02 -6.1595677811645942e+02 0.0000000000000000e+00 0.0000000000000000e+00 0.0000000000000000e+00 0.0000000000000000e+00  -2.5362488909407912e+03 5.2235350165534942e+02 0.0000000000000000e+00 5.2235350165534885e+02 -3.3005738981774448e+02 0.0000000000000000e+00 0.0000000000000000e+00 0.0000000000000000e+00 0.0000000000000000e+00  -1.1520346128993301e+03 2.4143591147738256e+01 0.0000000000000000e+00 2.4143591147738306e+01 7.6637813485889467e+01 0.0000000000000000e+00 0.0000000000000000e+00 0.0000000000000000e+00 0.0000000000000000e+00  1.3101413844885101e+03 9.1915270710061520e+02 0.0000000000000000e+00 9.1915270710061554e+02 5.2465315486273369e+02 0.0000000000000000e+00 0.0000000000000000e+00 0.0000000000000000e+00 0.0000000000000000e+00  2.6867613560967829e+03 2.3746813454475168e+03 0.0000000000000000e+00 2.3746813454475196e+03 2.7290694386368232e+03 0.0000000000000000e+00 0.0000000000000000e+00 0.0000000000000000e+00 0.0000000000000000e+00  2.2782024956466221e+03 3.6523159888008836e+03 0.0000000000000000e+00 3.6523159888008890e+03 6.1536258861040469e+03 0.0000000000000000e+00 0.0000000000000000e+00 0.0000000000000000e+00 0.0000000000000000e+00  1.4010701070988816e+03 2.3289761315648543e+03 0.0000000000000000e+00 2.3289761315648566e+03 9.2458829626220213e+03 0.0000000000000000e+00 0.0000000000000000e+00 0.0000000000000000e+00 0.0000000000000000e+00  4.1880871149948416e+02 -2.9575078067547196e+02 0.0000000000000000e+00 -2.9575078067547219e+02 4.2129307340940832e+03 0.0000000000000000e+00 0.0000000000000000e+00 0.0000000000000000e+00 0.0000000000000000e+00  -8.3299661687717872e+01 4.4818729515798090e+01 0.0000000000000000e+00 4.4818729515798026e+01 3.6915320418004685e+03 0.0000000000000000e+00 0.0000000000000000e+00 0.0000000000000000e+00 0.0000000000000000e+00  2.5045855976472035e+02 -4.2636479045833031e+00 0.0000000000000000e+00 -4.2636479045832729e+00 2.8365077470298684e+03 0.0000000000000000e+00 0.0000000000000000e+00 0.0000000000000000e+00 0.0000000000000000e+00  -1.0034104628943670e+01 3.8203966135885914e+01 0.0000000000000000e+00 3.8203966135885921e+01 2.3896930972769164e+03 0.0000000000000000e+00 0.0000000000000000e+00 0.0000000000000000e+00 0.0000000000000000e+00  8.6106842098828153e+01 3.6072606274738909e+01 0.0000000000000000e+00 3.6072606274738895e+01 1.8902311039020797e+03 0.0000000000000000e+00 0.0000000000000000e+00 0.0000000000000000e+00 0.0000000000000000e+00  -5.2075854543709070e+01 2.4590896411781863e+01 0.0000000000000000e+00 2.4590896411781905e+01 1.4376640023312682e+03 0.0000000000000000e+00 0.0000000000000000e+00 0.0000000000000000e+00 0.0000000000000000e+00  -8.5823091554950835e+01 1.0397367103361935e+01 0.0000000000000000e+00 1.0397367103361972e+01 1.0429719674356772e+03 0.0000000000000000e+00 0.0000000000000000e+00 0.0000000000000000e+00 0.0000000000000000e+00  -1.6381518682345146e+02 7.9646385138994349e+00 0.0000000000000000e+00 7.9646385138994233e+00 6.5588276704437715e+02 0.0000000000000000e+00 0.0000000000000000e+00 0.0000000000000000e+00 0.0000000000000000e+00  -1.5903636411505821e+02 8.8154461249116629e+00 0.0000000000000000e+00 8.8154461249116487e+00 2.7117281530543090e+02 0.0000000000000000e+00 0.0000000000000000e+00 0.0000000000000000e+00 0.0000000000000000e+00  -1.9078102971018086e+02 1.3912409794713888e+01 0.0000000000000000e+00 1.3912409794713827e+01 -3.1785753376757928e+01 0.0000000000000000e+00 0.0000000000000000e+00 0.0000000000000000e+00 0.0000000000000000e+00  -2.6752272733697527e+02 1.1264067501488238e+01 0.0000000000000000e+00 1.1264067501488181e+01 -1.5266214553686240e+02 0.0000000000000000e+00 0.0000000000000000e+00 0.0000000000000000e+00 0.0000000000000000e+00  -3.3139003016009383e+02 1.3732124701782281e-01 0.0000000000000000e+00 1.3732124701785065e-01 -1.5347433867945739e+02 0.0000000000000000e+00 0.0000000000000000e+00 0.0000000000000000e+00 0.0000000000000000e+00  -3.8228657359537249e+02 3.4281081292453206e+00 0.0000000000000000e+00 3.4281081292453250e+00 -7.8168903471402430e+01 0.0000000000000000e+00 0.0000000000000000e+00 0.0000000000000000e+00 0.0000000000000000e+00  -4.1831583470782300e+02 -6.9032498370660722e+00 0.0000000000000000e+00 -6.9032498370660180e+00 6.9513338368409279e+01 0.0000000000000000e+00 0.0000000000000000e+00 0.0000000000000000e+00 0.0000000000000000e+00  -5.2105462279245103e+02 5.6916128116948572e+00 0.0000000000000000e+00 5.6916128116946503e+00 4.0137505016911933e+02 0.0000000000000000e+00 0.0000000000000000e+00 0.0000000000000000e+00 0.0000000000000000e+00  -7.8279882729762994e+02 2.1745911308195598e+01 0.0000000000000000e+00 2.1745911308195730e+01 8.6931310860362123e+02 0.0000000000000000e+00 0.0000000000000000e+00 0.0000000000000000e+00 0.0000000000000000e+00  -1.2028584790221155e+03 5.6400526572937324e+01 0.0000000000000000e+00 5.6400526572937302e+01 1.2693302077266976e+03 0.0000000000000000e+00 0.0000000000000000e+00 0.0000000000000000e+00 0.0000000000000000e+00  -1.3793227586982919e+03 -5.9374346332456042e+01 0.0000000000000000e+00 -5.9374346332456113e+01 8.3986266025049474e+02 0.0000000000000000e+00 0.0000000000000000e+00 0.0000000000000000e+00 0.0000000000000000e+00  -1.0551135093382893e+03 9.3717520865559276e+00 0.0000000000000000e+00 9.3717520865559099e+00 -1.0905772388444623e+02 0.0000000000000000e+00 0.0000000000000000e+00 0.0000000000000000e+00 0.0000000000000000e+00  -1.2163688556193811e+03 4.9871250782317993e+01 0.0000000000000000e+00 4.9871250782318114e+01 5.3328247529217720e+02 0.0000000000000000e+00 0.0000000000000000e+00 0.0000000000000000e+00 0.0000000000000000e+00  -1.0042097518748368e+03 -3.8856163512011747e+01 0.0000000000000000e+00 -3.8856163512011712e+01 1.1181907017013391e+03 0.0000000000000000e+00 0.0000000000000000e+00 0.0000000000000000e+00 0.0000000000000000e+00  -4.5690218967577226e+02 -4.8161076590351854e+01 0.0000000000000000e+00 -4.8161076590352110e+01 6.7460856347225968e+02 0.0000000000000000e+00 0.0000000000000000e+00 0.0000000000000000e+00 0.0000000000000000e+00  1.1237434494501858e+02 -2.5843601107797639e+01 0.0000000000000000e+00 -2.5843601107797287e+01 5.0270251972014950e+02 0.0000000000000000e+00 0.0000000000000000e+00 0.0000000000000000e+00 0.0000000000000000e+00  2.2106777312712569e+02 -1.6008630147455314e+01 0.0000000000000000e+00 -1.6008630147455406e+01 6.8577538772610035e+02 0.0000000000000000e+00 0.0000000000000000e+00 0.0000000000000000e+00 0.0000000000000000e+00  2.5873097800268710e+02 -1.2608397140216718e+01 0.0000000000000000e+00 -1.2608397140216695e+01 1.2498568217852603e+03 0.0000000000000000e+00 0.0000000000000000e+00 0.0000000000000000e+00 0.0000000000000000e+00  2.0168305704936498e+02 -2.7312914692904865e+01 0.0000000000000000e+00 -2.7312914692904862e+01 1.9604191637224064e+03 0.0000000000000000e+00 0.0000000000000000e+00 0.0000000000000000e+00 0.0000000000000000e+00  2.1307874050971790e+02 -2.4021907382343322e+01 0.0000000000000000e+00 -2.4021907382343247e+01 2.7965832618690692e+03 0.0000000000000000e+00 0.0000000000000000e+00 0.0000000000000000e+00 0.0000000000000000e+00  4.7348580846600328e+01 -1.6422619828327250e+01 0.0000000000000000e+00 -1.6422619828327338e+01 3.7274096536518500e+03 0.0000000000000000e+00 0.0000000000000000e+00 0.0000000000000000e+00 0.0000000000000000e+00  7.9993088441667055e+01 -2.5897086760387037e+01 0.0000000000000000e+00 -2.5897086760387058e+01 4.5419476002122419e+03 0.0000000000000000e+00 0.0000000000000000e+00 0.0000000000000000e+00 0.0000000000000000e+00  3.7024676628373823e+00 3.6682603757369300e+01 0.0000000000000000e+00 3.6682603757369350e+01 5.2397743091155271e+03 0.0000000000000000e+00 0.0000000000000000e+00 0.0000000000000000e+00 0.0000000000000000e+00  1.7608325091770356e+00 1.4357271574548490e+01 0.0000000000000000e+00 1.4357271574548523e+01 5.4227756557626572e+03 0.0000000000000000e+00 0.0000000000000000e+00 0.0000000000000000e+00 0.0000000000000000e+00  -3.6383437722189944e+00 3.0519094229518778e+01 0.0000000000000000e+00 3.0519094229519030e+01 5.5304308233070469e+03 0.0000000000000000e+00 0.0000000000000000e+00 0.0000000000000000e+00 0.0000000000000000e+00  -9.3631827835664332e+00 1.3192389563601028e+01 0.0000000000000000e+00 1.3192389563601081e+01 5.6962150111127921e+03 0.0000000000000000e+00 0.0000000000000000e+00 0.0000000000000000e+00 0.0000000000000000e+00  1.7904681284568188e+01 8.8752573623256446e+00 0.0000000000000000e+00 8.8752573623256197e+00 5.9125388945487821e+03 0.0000000000000000e+00 0.0000000000000000e+00 0.0000000000000000e+00 0.0000000000000000e+00  -4.8020239580646455e+00 5.2938256305477623e+01 0.0000000000000000e+00 5.2938256305477552e+01 5.9915495949911556e+03 0.0000000000000000e+00 0.0000000000000000e+00 0.0000000000000000e+00 0.0000000000000000e+00  -3.3891467613385934e+01 6.6234203697647644e+01 0.0000000000000000e+00 6.6234203697647416e+01 6.4777224935272789e+03 0.0000000000000000e+00 0.0000000000000000e+00 0.0000000000000000e+00 0.0000000000000000e+00  -1.9418381136391230e+00 1.2651866589816962e+02 0.0000000000000000e+00 1.2651866589816963e+02 7.0737694525397146e+03 0.0000000000000000e+00 0.0000000000000000e+00 0.0000000000000000e+00 0.0000000000000000e+00  -2.4590861225075287e+01 4.8459797101941312e+01 0.0000000000000000e+00 4.8459797101941199e+01 7.9061069460453273e+03 0.0000000000000000e+00 0.0000000000000000e+00 0.0000000000000000e+00 0.0000000000000000e+00  -4.6795558467933652e+01 -8.5567316159575157e+01 0.0000000000000000e+00 -8.5567316159575228e+01 7.8847321904625805e+03 0.0000000000000000e+00 0.0000000000000000e+00 0.0000000000000000e+00 0.0000000000000000e+00  -1.4598717005848241e+02 -3.7847685062764305e+02 0.0000000000000000e+00 -3.7847685062764248e+02 6.8843171827540509e+03 0.0000000000000000e+00 0.0000000000000000e+00 0.0000000000000000e+00 0.0000000000000000e+00  -8.7321756383384084e+01 -7.1089079125743353e+02 0.0000000000000000e+00 -7.1089079125743331e+02 4.9696895211545416e+03 0.0000000000000000e+00 0.0000000000000000e+00 0.0000000000000000e+00 0.0000000000000000e+00  1.8070087708402770e+02 5.5475496077540647e+01 0.0000000000000000e+00 5.5475496077540882e+01 2.3234750797418192e+03 0.0000000000000000e+00 0.0000000000000000e+00 0.0000000000000000e+00 0.0000000000000000e+00  2.1418677952536618e+02 5.2624859097304818e+02 0.0000000000000000e+00 5.2624859097304761e+02 2.5496103206885746e+03 0.0000000000000000e+00 0.0000000000000000e+00 0.0000000000000000e+00 0.0000000000000000e+00  2.8242714011208065e+01 4.9086752068517058e+02 0.0000000000000000e+00 4.9086752068516932e+02 6.4485937609477487e+03 0.0000000000000000e+00 0.0000000000000000e+00 0.0000000000000000e+00 0.0000000000000000e+00  1.9341669911666803e+00 3.0274022999216783e+02 0.0000000000000000e+00 3.0274022999216663e+02 9.4070816130883741e+03 0.0000000000000000e+00 0.0000000000000000e+00 0.0000000000000000e+00 0.0000000000000000e+00  5.0489967303584748e+01 -4.4783062336278692e+02 0.0000000000000000e+00 -4.4783062336278732e+02 1.0002584150710762e+04 0.0000000000000000e+00 0.0000000000000000e+00 0.0000000000000000e+00 0.0000000000000000e+00  -2.4196140556504761e+02 -1.9968340093086928e+02 0.0000000000000000e+00 -1.9968340093086994e+02 6.3884471534002496e+03 0.0000000000000000e+00 0.0000000000000000e+00 0.0000000000000000e+00 0.0000000000000000e+00  -2.4825439812950063e+02 2.9330051765178530e+02 0.0000000000000000e+00 2.9330051765178490e+02 8.2905347972428845e+03 0.0000000000000000e+00 0.0000000000000000e+00 0.0000000000000000e+00 0.0000000000000000e+00  1.7419163691247405e+01 -2.0640357962930727e+02 0.0000000000000000e+00 -2.0640357962930696e+02 7.9618167593553362e+03 0.0000000000000000e+00 0.0000000000000000e+00 0.0000000000000000e+00 0.0000000000000000e+00  -6.1617200209867860e+01 -2.5028311986912499e+02 0.0000000000000000e+00 -2.5028311986912462e+02 6.0686904682765571e+03 0.0000000000000000e+00 0.0000000000000000e+00 0.0000000000000000e+00 0.0000000000000000e+00  6.2633023335954732e+01 -5.2988998728599794e+00 0.0000000000000000e+00 -5.2988998728602192e+00 5.6220192606499222e+03 0.0000000000000000e+00 0.0000000000000000e+00 0.0000000000000000e+00 0.0000000000000000e+00  -4.5565119539959639e+01 -1.2336180355425869e+01 0.0000000000000000e+00 -1.2336180355425862e+01 5.4587649162385487e+03 0.0000000000000000e+00 0.0000000000000000e+00 0.0000000000000000e+00 0.0000000000000000e+