<?xml version="1.0"?>
<VTKFile type="UnstructuredGrid"  version="0.1"  >
<UnstructuredGrid>
<Piece  NumberOfPoints="3879" NumberOfCells="6881">
<Points>
<DataArray  type="Float64"  NumberOfComponents="3"  format="ascii">0.207524190028372 0.2122422770132111 0  0 0 0  1 0 0  0 1 0  1 1 0  0.6249674373315121 0.2590146544375328 0  0.204663578893616 0.322657230836866 0  0.09605577522599912 0.4018360776629776 0  0.671351124618251 0.08738059142081528 0  0.7842102907526436 0.1666439122351055 0  0.8512483166984784 0.1985391006160637 0  0.6418797837909295 0.4423157172830166 0  0.9292488447973215 0.3869277868069776 0  0.3197896119137055 0.5509935221980964 0  0.3979283685568406 0.5079871620336583 0  0.1572503457993085 0.7345153245035532 0  0.3032914287999163 0.7872981443735918 0  0.3549464687598876 0.8870324161721976 0  0.9691791685505482 0.5159450047798622 0  0.9447564590470373 0.6146164845729313 0  0.7687603548175107 0.7176858127488035 0  0.8926159261971183 0.7422924070424508 0  0.2061587782631535 0.2217389244366831 0  0.2021731605082994 0.2304662099646423 0  0.1958902278109265 0.2377171008267789 0  0.1878189860121365 0.2429041729681512 0  0.1786133191209442 0.2456072006525708 0  0.1690190155206647 0.2456072006525708 0  0.1598133486294724 0.2429041729681512 0  0.1517421068306824 0.2377171008267789 0  0.1454591741333096 0.2304662099646422 0  0.1414735563784554 0.221738924436683 0  0.1401081446132369 0.212242277013211 0  0.1414735563784555 0.202745629589739 0  0.1454591741333096 0.1940183440617798 0  0.1517421068306825 0.1867674531996431 0  0.1598133486294725 0.1815803810582709 0  0.1690190155206649 0.1788773533738513 0  0.1786133191209443 0.1788773533738514 0  0.1878189860121367 0.181580381058271 0  0.1958902278109266 0.1867674531996433 0  0.2021731605082994 0.19401834406178 0  0.2061587782631535 0.2027456295897391 0  0.03333333333333333 0 0  0.06666666666666667 0 0  0.1 0 0  0.1333333333333333 0 0  0.1666666666666667 0 0  0.2 0 0  0.2333333333333333 0 0  0.2666666666666667 0 0  0.3 0 0  0.3333333333333333 0 0  0.3666666666666666 0 0  0.4 0 0  0.4333333333333333 0 0  0.4666666666666667 0 0  0.5 0 0  0.5333333333333333 0 0  0.5666666666666667 0 0  0.6 0 0  0.6333333333333333 0 0  0.6666666666666666 0 0  0.7 0 0  0.7333333333333333 0 0  0.7666666666666667 0 0  0.8 0 0  0.8333333333333334 0 0  0.8666666666666667 0 0  0.9 0 0  0.9333333333333333 0 0  0.9666666666666667 0 0  0 0.9666666666666667 0  0 0.9333333333333333 0  0 0.9 0  0 0.8666666666666667 0  0 0.8333333333333334 0  0 0.8 0  0 0.7666666666666666 0  0 0.7333333333333334 0  0 0.7 0  0 0.6666666666666667 0  0 0.6333333333333333 0  0 0.6 0  0 0.5666666666666667 0  0 0.5333333333333333 0  0 0.5 0  0 0.4666666666666667 0  0 0.4333333333333333 0  0 0.4 0  0 0.3666666666666667 0  0 0.3333333333333334 0  0 0.3 0  0 0.2666666666666667 0  0 0.2333333333333333 0  0 0.2 0  0 0.1666666666666666 0  0 0.1333333333333333 0  0 0.09999999999999998 0  0 0.06666666666666665 0  0 0.03333333333333333 0  1 0.03333333333333333 0  1 0.06666666666666667 0  1 0.1 0  1 0.1333333333333333 0  1 0.1666666666666667 0  1 0.2 0  1 0.2333333333333333 0  1 0.2666666666666667 0  1 0.3 0  1 0.3333333333333333 0  1 0.3666666666666666 0  1 0.4 0  1 0.4333333333333333 0  1 0.4666666666666667 0  1 0.5 0  1 0.5333333333333333 0  1 0.5666666666666667 0  1 0.6 0  1 0.6333333333333333 0  1 0.6666666666666666 0  1 0.7 0  1 0.7333333333333333 0  1 0.7666666666666667 0  1 0.8 0  1 0.8333333333333334 0  1 0.8666666666666667 0  1 0.9 0  1 0.9333333333333333 0  1 0.9666666666666667 0  0.9666666666666667 1 0  0.9333333333333333 1 0  0.9 1 0  0.8666666666666667 1 0  0.8333333333333334 1 0  0.8 1 0  0.7666666666666666 1 0  0.7333333333333334 1 0  0.7 1 0  0.6666666666666667 1 0  0.6333333333333333 1 0  0.6 1 0  0.5666666666666667 1 0  0.5333333333333333 1 0  0.5 1 0  0.4666666666666667 1 0  0.4333333333333333 1 0  0.4 1 0  0.3666666666666667 1 0  0.3333333333333334 1 0  0.3 1 0  0.2666666666666667 1 0  0.2333333333333333 1 0  0.2 1 0  0.1666666666666666 1 0  0.1333333333333333 1 0  0.09999999999999998 1 0  0.06666666666666665 1 0  0.03333333333333333 1 0  0.6247072676344306 0.2689501343248463 0  0.6239274716502419 0.2788583817523955 0  0.6226301867455355 0.2887122389026952 0  0.6208189686880621 0.2984846970382296 0  0.6184987819006211 0.3081489705305245 0  0.6156759858539226 0.317678570277693 0  0.6123583176357204 0.3270473763092224 0  0.6085548707439923 0.3362297093789981 0  0.6042760701622942 0.3452004013503318 0  0.5995336437856049 0.3539348641800754 0  0.5943405902749808 0.3624091573127375 0  0.5887111434291297 0.3706000532998825 0  0.582660733170558 0.3784851014649517 0  0.5762059432532257 0.3860426894390078 0  0.5693644658076293 0.3932521023987353 0  0.5621550528479018 0.4000935798443317 0  0.5545974648738458 0.4065483697616639 0  0.5467124167087765 0.4125987800202355 0  0.5385215207216315 0.4182282268660866 0  0.5300472275889694 0.4234212803767108 0  0.5213127647592257 0.4281637067534002 0  0.512342072787892 0.4324425073350981 0  0.5031597397181163 0.4362459542268262 0  0.493790933686587 0.4395636224450283 0  0.4842613339394185 0.4423864184917269 0  0.4745970604471235 0.4447066052791678 0  0.4648246023115891 0.4465178233366412 0  0.4549707451612894 0.4478151082413475 0  0.4450624977337403 0.4485949042255363 0  0.4351270178464268 0.4488550739226177 0  0.4251915379591132 0.4485949042255363 0  0.4152832905315641 0.4478151082413475 0  0.4054294333812644 0.4465178233366411 0  0.39565697524573 0.4447066052791677 0  0.385992701753435 0.4423864184917267 0  0.3764631020062665 0.4395636224450281 0  0.3670942959747371 0.4362459542268259 0  0.3579119629049616 0.4324425073350978 0  0.3489412709336278 0.4281637067533998 0  0.3402068081038843 0.4234212803767103 0  0.3317325149712221 0.4182282268660862 0  0.3235416189840771 0.412598780020235 0  0.3156565708190078 0.4065483697616634 0  0.3080989828449519 0.4000935798443311 0  0.3008895698852244 0.3932521023987346 0  0.2940480924396279 0.3860426894390071 0  0.2875933025222958 0.3784851014649511 0  0.2815428922637242 0.3706000532998818 0  0.2759134454178731 0.3624091573127368 0  0.2707203919072489 0.3539348641800746 0  0.2659779655305596 0.3452004013503309 0  0.2616991649488616 0.3362297093789972 0  0.2578957180571336 0.3270473763092215 0  0.2545780498389315 0.3176785702776921 0  0.251755253792233 0.3081489705305236 0  0.249435067004792 0.2984846970382286 0  0.2476238489473186 0.2887122389026941 0  0.2463265640426123 0.2788583817523945 0  0.2455467680584236 0.2689501343248454 0  0.2452865983613423 0.2590146544375318 0  0.2455467680584237 0.2490791745502182 0  0.2463265640426126 0.2391709271226692 0  0.247623848947319 0.2293170699723696 0  0.2494350670047924 0.2195446118368351 0  0.2517552537922335 0.2098803383445402 0  0.2545780498389321 0.2003507385973717 0  0.2578957180571343 0.1909819325658423 0  0.2616991649488624 0.1817995994960667 0  0.2659779655305604 0.172828907524733 0  0.2707203919072498 0.1640944446949895 0  0.2759134454178741 0.1556201515623273 0  0.2815428922637251 0.1474292555751825 0  0.2875933025222969 0.1395442074101132 0  0.2940480924396291 0.1319866194360571 0  0.3008895698852256 0.1247772064763297 0  0.3080989828449531 0.1179357290307334 0  0.3156565708190092 0.1114809391134012 0  0.3235416189840785 0.1054305288548295 0  0.3317325149712236 0.09980108200897844 0  0.3402068081038856 0.0946080284983544 0  0.3489412709336291 0.08986560212166514 0  0.357911962904963 0.08558680153996717 0  0.3670942959747386 0.08178335464823916 0  0.3764631020062678 0.07846568643003712 0  0.3859927017534364 0.0756428903833386 0  0.3956569752457313 0.0733227035958976 0  0.4054294333812659 0.07151148553842429 0  0.4152832905315654 0.07021420063371797 0  0.4251915379591144 0.0694344046495293 0  0.435127017846428 0.0691742349524479 0  0.4450624977337415 0.06943440464952938 0  0.4549707451612905 0.07021420063371814 0  0.4648246023115901 0.07151148553842454 0  0.4745970604471245 0.07332270359589793 0  0.4842613339394195 0.07564289038333902 0  0.4937909336865879 0.07846568643003757 0  0.5031597397181173 0.0817833546482398 0  0.5123420727878929 0.08558680153996781 0  0.5213127647592265 0.08986560212166581 0  0.53004722758897 0.0946080284983552 0  0.5385215207216321 0.09980108200897933 0  0.5467124167087771 0.1054305288548305 0  0.5545974648738462 0.1114809391134021 0  0.5621550528479023 0.1179357290307343 0  0.5693644658076298 0.1247772064763308 0  0.576205943253226 0.1319866194360582 0  0.5826607331705582 0.1395442074101142 0  0.5887111434291299 0.1474292555751835 0  0.594340590274981 0.1556201515623285 0  0.5995336437856051 0.1640944446949906 0  0.6042760701622945 0.172828907524734 0  0.6085548707439925 0.1817995994960678 0  0.6123583176357205 0.1909819325658435 0  0.6156759858539227 0.2003507385973728 0  0.6184987819006211 0.2098803383445412 0  0.6208189686880622 0.2195446118368362 0  0.6226301867455355 0.2293170699723706 0  0.6239274716502419 0.2391709271226702 0  0.6247072676344306 0.2490791745502192 0  0.203885768735257 0.3325402459548524 0  0.2015714905276826 0.3421799084407872 0  0.1977777294810124 0.3513388578120612 0  0.1925979005829864 0.3597915703383434 0  0.1861595484119405 0.3673299121842922 0  0.1786212065659918 0.373768264355338 0  0.1701684940397096 0.378948093253364 0  0.1610095446684356 0.3827418543000342 0  0.1513698821825007 0.3850561325076086 0  0.1414868670645144 0.3858339426659677 0  0.1316038519465281 0.3850561325076086 0  0.1219641894605933 0.3827418543000343 0  0.1128052400893193 0.378948093253364 0  0.1043525275630371 0.3737682643553381 0  0.09681418571708833 0.3673299121842922 0  0.09037583354604248 0.3597915703383434 0  0.08519600464801645 0.3513388578120612 0  0.08140224360134621 0.3421799084407872 0  0.07908796539377183 0.3325402459548523 0  0.07831015523541281 0.3226572308368659 0  0.07908796539377186 0.3127742157188796 0  0.08140224360134626 0.3031345532329447 0  0.08519600464801655 0.2939756038616707 0  0.0903758335460426 0.2855228913353884 0  0.0968141857
[...]
<PointData  Tensors="$\sigma$"> 
<DataArray  type="Float64"  Name="$\sigma$"  NumberOfComponents="9" format="ascii">8.8454974846652746e+01 3.5451661218419652e+01 0.0000000000000000e+00 3.5451661218419652e+01 4.2210893891044470e+03 0.0000000000000000e+00 0.0000000000000000e+00 0.0000000000000000e+00 0.0000000000000000e+00  5.2041981443462794e+02 6.0678271262621614e+01 0.0000000000000000e+00 6.0678271262621614e+01 2.1220249512376836e+03 0.0000000000000000e+00 0.0000000000000000e+00 0.0000000000000000e+00 0.0000000000000000e+00  -6.1376279036149048e+00 -7.9866090781763353e+00 0.0000000000000000e+00 -7.9866090781763424e+00 2.2667085602763404e+03 0.0000000000000000e+00 0.0000000000000000e+00 0.0000000000000000e+00 0.0000000000000000e+00  6.5673816826182501e+00 -3.1136366255097232e+00 0.0000000000000000e+00 -3.1136366255097254e+00 2.1809768669295590e+03 0.0000000000000000e+00 0.0000000000000000e+00 0.0000000000000000e+00 0.0000000000000000e+00  6.2510220970524051e+00 4.5149069506492712e+00 0.0000000000000000e+00 4.5149069506492738e+00 2.0756681832368508e+03 0.0000000000000000e+00 0.0000000000000000e+00 0.0000000000000000e+00 0.0000000000000000e+00  5.1336350704450489e+01 4.9442936918786927e+01 0.0000000000000000e+00 4.9442936918787076e+01 4.2013423909797330e+03 0.0000000000000000e+00 0.0000000000000000e+00 0.0000000000000000e+00 0.0000000000000000e+00  -3.7357700306526844e+01 1.1703033395568153e+02 0.0000000000000000e+00 1.1703033395568166e+02 1.6783833463159039e+02 0.0000000000000000e+00 0.0000000000000000e+00 0.0000000000000000e+00 0.0000000000000000e+00  3.5315990908203031e+02 2.3533932534566756e+02 0.0000000000000000e+00 2.3533932534566756e+02 4.6003523482010605e+03 0.0000000000000000e+00 0.0000000000000000e+00 0.0000000000000000e+00 0.0000000000000000e+00  1.8058063345349231e+02 -2.1378361063137672e+02 0.0000000000000000e+00 -2.1378361063137672e+02 4.2079932247825473e+03 0.0000000000000000e+00 0.0000000000000000e+00 0.0000000000000000e+00 0.0000000000000000e+00  -5.7242699781937887e+01 1.6700210559280639e+00 0.0000000000000000e+00 1.6700210559282791e+00 -6.5390616895675123e+01 0.0000000000000000e+00 0.0000000000000000e+00 0.0000000000000000e+00 0.0000000000000000e+00  -4.2857771067750144e-01 -1.2783794088023530e+01 0.0000000000000000e+00 -1.2783794088023523e+01 -1.1640623686182034e+01 0.0000000000000000e+00 0.0000000000000000e+00 0.0000000000000000e+00 0.0000000000000000e+00  8.6396059185318279e+01 2.1918513637000828e+02 0.0000000000000000e+00 2.1918513637000845e+02 2.3764870131061375e+03 0.0000000000000000e+00 0.0000000000000000e+00 0.0000000000000000e+00 0.0000000000000000e+00  -2.2849100091035226e+01 4.8683534699573677e+01 0.0000000000000000e+00 4.8683534699573677e+01 5.4450574803005566e+03 0.0000000000000000e+00 0.0000000000000000e+00 0.0000000000000000e+00 0.0000000000000000e+00  4.0778545800746677e+01 4.4757870029882859e+01 0.0000000000000000e+00 4.4757870029882859e+01 4.3461497247479501e+03 0.0000000000000000e+00 0.0000000000000000e+00 0.0000000000000000e+00 0.0000000000000000e+00  -3.5845751854303572e+01 -1.0946778467238173e+02 0.0000000000000000e+00 -1.0946778467238198e+02 -5.1452707487889279e+02 0.0000000000000000e+00 0.0000000000000000e+00 0.0000000000000000e+00 0.0000000000000000e+00  -5.7455023970963936e+01 -8.8097460621464379e+01 0.0000000000000000e+00 -8.8097460621464052e+01 -1.3935025255611902e+02 0.0000000000000000e+00 0.0000000000000000e+00 0.0000000000000000e+00 0.0000000000000000e+00  2.9809480824073017e+01 -9.9893648802833056e+01 0.0000000000000000e+00 -9.9893648802833141e+01 2.7434346783252654e+03 0.0000000000000000e+00 0.0000000000000000e+00 0.0000000000000000e+00 0.0000000000000000e+00  9.5395149464669927e+01 6.9665291021174369e+01 0.0000000000000000e+00 6.9665291021174127e+01 3.2752823967207787e+03 0.0000000000000000e+00 0.0000000000000000e+00 0.0000000000000000e+00 0.0000000000000000e+00  8.8536653608194968e+02 8.2721894015123496e+02 0.0000000000000000e+00 8.2721894015123496e+02 1.0131258035242943e+04 0.0000000000000000e+00 0.0000000000000000e+00 0.0000000000000000e+00 0.0000000000000000e+00  1.4705397576110764e+02 -1.3969688432285662e+02 0.0000000000000000e+00 -1.3969688432285662e+02 5.1537612582099018e+03 0.0000000000000000e+00 0.0000000000000000e+00 0.0000000000000000e+00 0.0000000000000000e+00  3.2169309132758571e+01 7.9324471128735865e+01 0.0000000000000000e+00 7.9324471128735851e+01 3.2144027016444115e+03 0.0000000000000000e+00 0.0000000000000000e+00 0.0000000000000000e+00 0.0000000000000000e+00  7.9850690618441718e+01 3.5337205187654658e-01 0.0000000000000000e+00 3.5337205187654619e-01 1.7575274830276949e+03 0.0000000000000000e+00 0.0000000000000000e+00 0.0000000000000000e+00 0.0000000000000000e+00  1.8334315869395701e+02 -4.9107054168709760e+02 0.0000000000000000e+00 -4.9107054168709760e+02 2.6855047019751019e+03 0.0000000000000000e+00 0.0000000000000000e+00 0.0000000000000000e+00 0.0000000000000000e+00  -1.4617327910037642e+02 -1.4459798414295611e+02 0.0000000000000000e+00 -1.4459798414295611e+02 7.8658612250652141e+02 0.0000000000000000e+00 0.0000000000000000e+00 0.0000000000000000e+00 0.0000000000000000e+00  -8.5623999298669742e+02 5.1767971350749167e+02 0.0000000000000000e+00 5.1767971350749167e+02 -3.0805265045710928e+02 0.0000000000000000e+00 0.0000000000000000e+00 0.0000000000000000e+00 0.0000000000000000e+00  -1.5668510948729579e+03 5.5258898378847846e+02 0.0000000000000000e+00 5.5258898378847846e+02 -3.6076786226778154e+02 0.0000000000000000e+00 0.0000000000000000e+00 0.0000000000000000e+00 0.0000000000000000e+00  -1.2681501128418545e+03 3.8731680707460146e+02 0.0000000000000000e+00 3.8731680707460146e+02 -2.0396516261375936e+02 0.0000000000000000e+00 0.0000000000000000e+00 0.0000000000000000e+00 0.0000000000000000e+00  5.9523411250174354e+02 8.9885844113373741e+02 0.0000000000000000e+00 8.9885844113373741e+02 5.5889699318150713e+02 0.0000000000000000e+00 0.0000000000000000e+00 0.0000000000000000e+00 0.0000000000000000e+00  2.6627637839246586e+03 1.7619182690596597e+03 0.0000000000000000e+00 1.7619182690596597e+03 1.0869998258365847e+03 0.0000000000000000e+00 0.0000000000000000e+00 0.0000000000000000e+00 0.0000000000000000e+00  2.6981185811886853e+03 2.1155019103285317e+03 0.0000000000000000e+00 2.1155019103285317e+03 1.9714194151175275e+03 0.0000000000000000e+00 0.0000000000000000e+00 0.0000000000000000e+00 0.0000000000000000e+00  1.3140160806759704e+03 1.6477095583406744e+03 0.0000000000000000e+00 1.6477095583406744e+03 2.2732761004763797e+03 0.0000000000000000e+00 0.0000000000000000e+00 0.0000000000000000e+00 0.0000000000000000e+00  4.9358307607476991e+02 7.4692169188847754e+02 0.0000000000000000e+00 7.4692169188847754e+02 1.9134456246574662e+03 0.0000000000000000e+00 0.0000000000000000e+00 0.0000000000000000e+00 0.0000000000000000e+00  7.1175508749994847e+01 1.4048838987294914e+02 0.0000000000000000e+00 1.4048838987294920e+02 1.6517071906968802e+03 0.0000000000000000e+00 0.0000000000000000e+00 0.0000000000000000e+00 0.0000000000000000e+00  7.1653982509011257e+01 -1.2879808347631891e+02 0.0000000000000000e+00 -1.2879808347631894e+02 8.3702457385678667e+02 0.0000000000000000e+00 0.0000000000000000e+00 0.0000000000000000e+00 0.0000000000000000e+00  -7.1060540416122478e+01 4.9738172495723930e+01 0.0000000000000000e+00 4.9738172495723930e+01 1.1687854402309483e+02 0.0000000000000000e+00 0.0000000000000000e+00 0.0000000000000000e+00 0.0000000000000000e+00  -5.4151474008932200e+02 3.6174845362155912e+02 0.0000000000000000e+00 3.6174845362155895e+02 -2.4769461168326487e+02 0.0000000000000000e+00 0.0000000000000000e+00 0.0000000000000000e+00 0.0000000000000000e+00  -1.0125717289529772e+03 3.8406617953593667e+02 0.0000000000000000e+00 3.8406617953593650e+02 -2.4515193859001209e+02 0.0000000000000000e+00 0.0000000000000000e+00 0.0000000000000000e+00 0.0000000000000000e+00  -1.0451531244852915e+03 2.2652630800895378e+02 0.0000000000000000e+00 2.2652630800895378e+02 -1.5661608705189369e+02 0.0000000000000000e+00 0.0000000000000000e+00 0.0000000000000000e+00 0.0000000000000000e+00  -4.7374691649965666e+02 4.5900428375896475e+01 0.0000000000000000e+00 4.5900428375896475e+01 3.1411733600645192e+01 0.0000000000000000e+00 0.0000000000000000e+00 0.0000000000000000e+00 0.0000000000000000e+00  5.1192288025032667e+02 4.0802005871920932e+02 0.0000000000000000e+00 4.0802005871920932e+02 2.6872481014504183e+02 0.0000000000000000e+00 0.0000000000000000e+00 0.0000000000000000e+00 0.0000000000000000e+00  1.0771999481685532e+03 9.8372483551802725e+02 0.0000000000000000e+00 9.8372483551802725e+02 1.2145450974860310e+03 0.0000000000000000e+00 0.0000000000000000e+00 0.0000000000000000e+00 0.0000000000000000e+00  9.4786601332804287e+02 1.5067954986652435e+03 0.0000000000000000e+00 1.5067954986652435e+03 2.6429222840586804e+03 0.0000000000000000e+00 0.0000000000000000e+00 0.0000000000000000e+00 0.0000000000000000e+00  6.4499103737021881e+02 9.3326409444778983e+02 0.0000000000000000e+00 9.3326409444778983e+02 3.8271251606727328e+03 0.0000000000000000e+00 0.0000000000000000e+00 0.0000000000000000e+00 0.0000000000000000e+00  2.0211386514279300e+02 -1.1607704751612052e+02 0.0000000000000000e+00 -1.1607704751612049e+02 1.7787916877768243e+03 0.0000000000000000e+00 0.0000000000000000e+00 0.0000000000000000e+00 0.0000000000000000e+00  -4.3043530499422076e+01 1.1306426288726954e+01 0.0000000000000000e+00 1.1306426288726943e+01 1.5494855787153599e+03 0.0000000000000000e+00 0.0000000000000000e+00 0.0000000000000000e+00 0.0000000000000000e+00  9.4858879771858412e+01 6.5607530793428719e+00 0.0000000000000000e+00 6.5607530793428808e+00 1.2034811514500157e+03 0.0000000000000000e+00 0.0000000000000000e+00 0.0000000000000000e+00 0.0000000000000000e+00  1.0180007271790380e+01 1.2975292744914139e+01 0.0000000000000000e+00 1.2975292744914128e+01 1.0187830032269163e+03 0.0000000000000000e+00 0.0000000000000000e+00 0.0000000000000000e+00 0.0000000000000000e+00  3.3864817928552768e+01 1.8129254326184856e+01 0.0000000000000000e+00 1.8129254326184860e+01 8.0317218997276416e+02 0.0000000000000000e+00 0.0000000000000000e+00 0.0000000000000000e+00 0.0000000000000000e+00  -1.2905546028599044e+01 1.1821828914408387e+01 0.0000000000000000e+00 1.1821828914408400e+01 6.0849358252719981e+02 0.0000000000000000e+00 0.0000000000000000e+00 0.0000000000000000e+00 0.0000000000000000e+00  -3.1471668489288870e+01 5.9445688603892766e+00 0.0000000000000000e+00 5.9445688603892730e+00 4.3962839690416007e+02 0.0000000000000000e+00 0.0000000000000000e+00 0.0000000000000000e+00 0.0000000000000000e+00  -6.1609360084924596e+01 4.7113487581215860e+00 0.0000000000000000e+00 4.7113487581215878e+00 2.8105217638318931e+02 0.0000000000000000e+00 0.0000000000000000e+00 0.0000000000000000e+00 0.0000000000000000e+00  -5.9966325715258876e+01 5.1381545837769069e+00 0.0000000000000000e+00 5.1381545837769069e+00 1.1839176195692323e+02 0.0000000000000000e+00 0.0000000000000000e+00 0.0000000000000000e+00 0.0000000000000000e+00  -7.1942029385727750e+01 7.3756844285898451e+00 0.0000000000000000e+00 7.3756844285898451e+00 -1.2878734312487241e+01 0.0000000000000000e+00 0.0000000000000000e+00 0.0000000000000000e+00 0.0000000000000000e+00  -1.0424940513055499e+02 5.7474649116828500e+00 0.0000000000000000e+00 5.7474649116828482e+00 -6.2450666538627551e+01 0.0000000000000000e+00 0.0000000000000000e+00 0.0000000000000000e+00 0.0000000000000000e+00  -1.3050487594538399e+02 2.4219739861358033e-01 0.0000000000000000e+00 2.4219739861358314e-01 -6.2735054951370209e+01 0.0000000000000000e+00 0.0000000000000000e+00 0.0000000000000000e+00 0.0000000000000000e+00  -1.5219471531039810e+02 1.1474221468814536e+00 0.0000000000000000e+00 1.1474221468814534e+00 -3.0736171084324432e+01 0.0000000000000000e+00 0.0000000000000000e+00 0.0000000000000000e+00 0.0000000000000000e+00  -1.6489057305134753e+02 -2.7904762935465137e+00 0.0000000000000000e+00 -2.7904762935465066e+00 2.8958424928945888e+01 0.0000000000000000e+00 0.0000000000000000e+00 0.0000000000000000e+00 0.0000000000000000e+00  -2.1126288815803312e+02 3.7313983737697773e+00 0.0000000000000000e+00 3.7313983737697609e+00 1.6926981040463963e+02 0.0000000000000000e+00 0.0000000000000000e+00 0.0000000000000000e+00 0.0000000000000000e+00  -3.1117914587980300e+02 1.3708215935878851e+01 0.0000000000000000e+00 1.3708215935878806e+01 3.6172445267239351e+02 0.0000000000000000e+00 0.0000000000000000e+00 0.0000000000000000e+00 0.0000000000000000e+00  -4.9272918250905025e+02 2.5223366202657644e+01 0.0000000000000000e+00 2.5223366202657637e+01 5.2212931393395229e+02 0.0000000000000000e+00 0.0000000000000000e+00 0.0000000000000000e+00 0.0000000000000000e+00  -5.6064082736832211e+02 -2.4670802607885513e+01 0.0000000000000000e+00 -2.4670802607885520e+01 3.4920493921311851e+02 0.0000000000000000e+00 0.0000000000000000e+00 0.0000000000000000e+00 0.0000000000000000e+00  -4.2446409991232213e+02 7.8549471989890296e-01 0.0000000000000000e+00 7.8549471989890163e-01 -3.5627368462680202e+01 0.0000000000000000e+00 0.0000000000000000e+00 0.0000000000000000e+00 0.0000000000000000e+00  -4.9405346267426017e+02 2.1106491821499613e+01 0.0000000000000000e+00 2.1106491821499635e+01 2.2916551516699118e+02 0.0000000000000000e+00 0.0000000000000000e+00 0.0000000000000000e+00 0.0000000000000000e+00  -4.0795604679202211e+02 -1.5870176985855760e+01 0.0000000000000000e+00 -1.5870176985855780e+01 4.6274208848855540e+02 0.0000000000000000e+00 0.0000000000000000e+00 0.0000000000000000e+00 0.0000000000000000e+00  -1.7871779588519192e+02 -2.4524217189387095e+01 0.0000000000000000e+00 -2.4524217189387066e+01 2.7961498942803314e+02 0.0000000000000000e+00 0.0000000000000000e+00 0.0000000000000000e+00 0.0000000000000000e+00  5.4319374067859528e+01 -1.2744487975856590e+01 0.0000000000000000e+00 -1.2744487975856604e+01 2.1110345665975700e+02 0.0000000000000000e+00 0.0000000000000000e+00 0.0000000000000000e+00 0.0000000000000000e+00  1.0103818380831113e+02 -1.0413278928946024e+01 0.0000000000000000e+00 -1.0413278928946008e+01 2.9915534386549632e+02 0.0000000000000000e+00 0.0000000000000000e+00 0.0000000000000000e+00 0.0000000000000000e+00  1.1345931860924945e+02 -7.7264408762097831e+00 0.0000000000000000e+00 -7.7264408762097894e+00 5.3962468431008881e+02 0.0000000000000000e+00 0.0000000000000000e+00 0.0000000000000000e+00 0.0000000000000000e+00  9.0459474437207007e+01 -1.6122402645916072e+01 0.0000000000000000e+00 -1.6122402645916061e+01 8.4559638277017643e+02 0.0000000000000000e+00 0.0000000000000000e+00 0.0000000000000000e+00 0.0000000000000000e+00  8.9106490722158085e+01 -1.2377909736474116e+01 0.0000000000000000e+00 -1.2377909736474109e+01 1.2004905943241024e+03 0.0000000000000000e+00 0.0000000000000000e+00 0.0000000000000000e+00 0.0000000000000000e+00  2.3325840003573951e+01 -8.4616433114995981e+00 0.0000000000000000e+00 -8.4616433114996017e+00 1.6030797724621850e+03 0.0000000000000000e+00 0.0000000000000000e+00 0.0000000000000000e+00 0.0000000000000000e+00  3.4063558986802796e+01 -1.1671791916604322e+01 0.0000000000000000e+00 -1.1671791916604327e+01 1.9329637091985312e+03 0.0000000000000000e+00 0.0000000000000000e+00 0.0000000000000000e+00 0.0000000000000000e+00  -1.2489046460457573e+00 1.8801508315872422e+01 0.0000000000000000e+00 1.8801508315872422e+01 2.2109251995337963e+03 0.0000000000000000e+00 0.0000000000000000e+00 0.0000000000000000e+00 0.0000000000000000e+00  1.6537270993054458e+00 4.0422759731180200e+00 0.0000000000000000e+00 4.0422759731180200e+00 2.2800028894600259e+03 0.0000000000000000e+00 0.0000000000000000e+00 0.0000000000000000e+00 0.0000000000000000e+00  -2.9899662569711536e+00 1.7779287909155254e+01 0.0000000000000000e+00 1.7779287909155258e+01 2.3259990176759857e+03 0.0000000000000000e+00 0.0000000000000000e+00 0.0000000000000000e+00 0.0000000000000000e+00  -1.7344556768879567e+00 5.1907373394818199e+00 0.0000000000000000e+00 5.1907373394818261e+00 2.3955300392455374e+03 0.0000000000000000e+00 0.0000000000000000e+00 0.0000000000000000e+00 0.0000000000000000e+00  4.1796168107501215e+00 7.0902838110415880e+00 0.0000000000000000e+00 7.0902838110415818e+00 2.4776152816969989e+03 0.0000000000000000e+00 0.0000000000000000e+00 0.0000000000000000e+00 0.0000000000000000e+00  -5.1181993916141622e-01 2.1517703949213907e+01 0.0000000000000000e+00 2.1517703949213839e+01 2.5074395561629008e+03 0.0000000000000000e+00 0.0000000000000000e+00 0.0000000000000000e+00 0.0000000000000000e+00  -1.2738484482572273e+01 3.1916130464504402e+01 0.0000000000000000e+00 3.1916130464504413e+01 2.7018386199394449e+03 0.0000000000000000e+00 0.0000000000000000e+00 0.0000000000000000e+00 0.0000000000000000e+00  4.3654341439326289e-01 5.7158809410689983e+01 0.0000000000000000e+00 5.7158809410689990e+01 2.9317596081962533e+03 0.0000000000000000e+00 0.0000000000000000e+00 0.0000000000000000e+00 0.0000000000000000e+00  -1.7909083519311746e+01 2.1562016000282981e+01 0.0000000000000000e+00 2.1562016000283005e+01 3.2552127913958234e+03 0.0000000000000000e+00 0.0000000000000000e+00 0.0000000000000000e+00 0.0000000000000000e+00  -4.0837175382773182e+01 -4.9409405028373662e+01 0.0000000000000000e+00 -4.9409405028373662e+01 3.1945178445884771e+03 0.0000000000000000e+00 0.0000000000000000e+00 0.0000000000000000e+00 0.0000000000000000e+00  -5.6977119690293598e+01 -2.0233242517055436e+02 0.0000000000000000e+00 -2.0233242517055433e+02 2.7257702795815221e+03 0.0000000000000000e+00 0.0000000000000000e+00 0.0000000000000000e+00 0.0000000000000000e+00  -2.0733970422921828e+01 -2.5663940044336300e+02 0.0000000000000000e+00 -2.5663940044336306e+02 1.9905254387350692e+03 0.0000000000000000e+00 0.0000000000000000e+00 0.0000000000000000e+00 0.0000000000000000e+00  1.0116725425123987e+02 4.2373557540687884e+01 0.0000000000000000e+00 4.2373557540687884e+01 1.0818904241198211e+03 0.0000000000000000e+00 0.0000000000000000e+00 0.0000000000000000e+00 0.0000000000000000e+00  7.2365765757631294e+01 1.5793063665262108e+02 0.0000000000000000e+00 1.5793063665262108e+02 1.1699236488001245e+03 0.0000000000000000e+00 0.0000000000000000e+00 0.0000000000000000e+00 0.0000000000000000e+00  2.6714865713831720e+01 2.2519143868574187e+02 0.0000000000000000e+00 2.2519143868574187e+02 2.5308216208375347e+03 0.0000000000000000e+00 0.0000000000000000e+00 0.0000000000000000e+00 0.0000000000000000e+00  -7.6573597299134644e+00 1.7309435300029571e+02 0.0000000000000000e+00 1.7309435300029571e+02 3.7707412930725359e+03 0.0000000000000000e+00 0.0000000000000000e+00 0.0000000000000000e+00 0.0000000000000000e+00  -2.1987121387238876e+01 -1.9228469256128835e+02 0.0000000000000000e+00 -1.9228469256128835e+02 4.0365384139364814e+03 0.0000000000000000e+00 0.0000000000000000e+00 0.0000000000000000e+00 0.0000000000000000e+00  7.2716501453193089e+01 -6.2274317317096838e+01 0.0000000000000000e+00 -6.2274317317096838e+01 2.7812538482996092e+03 0.0000000000000000e+00 0.0000000000000000e+00 0.0000000000000000e+00 0.0000000000000000e+00  -9.4758950376362748e+01 1.2341464115482708e+02 0.0000000000000000e+00 1.2341464115482708e+02 3.4106893220510119e+03 0.0000000000000000e+00 0.0000000000000000e+00 0.0000000000000000e+00 0.0000000000000000e+00  -5.2464545241630889e+00 -9.3705854984498345e+01 0.0000000000000000e+00 -9.3705854984498416e+01 3.3100356182920141e+03 0.0000000000000000e+00 0.0000000000000000e+00 0.0000000000000000e+00 0.0000000000000000e+00  -1.0177046430363694e+01 -1.1293841586643494e+02 0.0000000000000000e+00 -1.1293841586643480e+02 2.5534778793352893e+03 0.0000000000000000e+00 0.0000000000000000e+00 0.0000000000000000e+00 0.0000000000000000e+00  2.5324927147859487e+01 -6.9079291075475178e+00 0.0000000000000000e+00 -6.9079291075475222e+00 2.3688310079450353e+03 0.0000000000000000e+00 0.0000000000000000e+00 0.0000000000000000e+00 0.0000000000000000e+00  -1.2581636410120149e+01 -1.1632420319861732e+00 0.0000000000000000e+00 -1.1632420319862016e+00 2.3137653930421075e+03 0.0000000000000000e+00 0.0000000000000000e+00 0.0000000000000000e+00 0.0000000000000000e+