<?xml version="1.0"?>
<VTKFile type="UnstructuredGrid"  version="0.1"  >
<UnstructuredGrid>
<Piece  NumberOfPoints="3879" NumberOfCells="6881">
<Points>
<DataArray  type="Float64"  NumberOfComponents="3"  format="ascii">0.207524190028372 0.2122422770132111 0  0 0 0  1 0 0  0 1 0  1 1 0  0.6249674373315121 0.2590146544375328 0  0.204663578893616 0.322657230836866 0  0.09605577522599912 0.4018360776629776 0  0.671351124618251 0.08738059142081528 0  0.7842102907526436 0.1666439122351055 0  0.8512483166984784 0.1985391006160637 0  0.6418797837909295 0.4423157172830166 0  0.9292488447973215 0.3869277868069776 0  0.3197896119137055 0.5509935221980964 0  0.3979283685568406 0.5079871620336583 0  0.1572503457993085 0.7345153245035532 0  0.3032914287999163 0.7872981443735918 0  0.3549464687598876 0.8870324161721976 0  0.9691791685505482 0.5159450047798622 0  0.9447564590470373 0.6146164845729313 0  0.7687603548175107 0.7176858127488035 0  0.8926159261971183 0.7422924070424508 0  0.2061587782631535 0.2217389244366831 0  0.2021731605082994 0.2304662099646423 0  0.1958902278109265 0.2377171008267789 0  0.1878189860121365 0.2429041729681512 0  0.1786133191209442 0.2456072006525708 0  0.1690190155206647 0.2456072006525708 0  0.1598133486294724 0.2429041729681512 0  0.1517421068306824 0.2377171008267789 0  0.1454591741333096 0.2304662099646422 0  0.1414735563784554 0.221738924436683 0  0.1401081446132369 0.212242277013211 0  0.1414735563784555 0.202745629589739 0  0.1454591741333096 0.1940183440617798 0  0.1517421068306825 0.1867674531996431 0  0.1598133486294725 0.1815803810582709 0  0.1690190155206649 0.1788773533738513 0  0.1786133191209443 0.1788773533738514 0  0.1878189860121367 0.181580381058271 0  0.1958902278109266 0.1867674531996433 0  0.2021731605082994 0.19401834406178 0  0.2061587782631535 0.2027456295897391 0  0.03333333333333333 0 0  0.06666666666666667 0 0  0.1 0 0  0.1333333333333333 0 0  0.1666666666666667 0 0  0.2 0 0  0.2333333333333333 0 0  0.2666666666666667 0 0  0.3 0 0  0.3333333333333333 0 0  0.3666666666666666 0 0  0.4 0 0  0.4333333333333333 0 0  0.4666666666666667 0 0  0.5 0 0  0.5333333333333333 0 0  0.5666666666666667 0 0  0.6 0 0  0.6333333333333333 0 0  0.6666666666666666 0 0  0.7 0 0  0.7333333333333333 0 0  0.7666666666666667 0 0  0.8 0 0  0.8333333333333334 0 0  0.8666666666666667 0 0  0.9 0 0  0.9333333333333333 0 0  0.9666666666666667 0 0  0 0.9666666666666667 0  0 0.9333333333333333 0  0 0.9 0  0 0.8666666666666667 0  0 0.8333333333333334 0  0 0.8 0  0 0.7666666666666666 0  0 0.7333333333333334 0  0 0.7 0  0 0.6666666666666667 0  0 0.6333333333333333 0  0 0.6 0  0 0.5666666666666667 0  0 0.5333333333333333 0  0 0.5 0  0 0.4666666666666667 0  0 0.4333333333333333 0  0 0.4 0  0 0.3666666666666667 0  0 0.3333333333333334 0  0 0.3 0  0 0.2666666666666667 0  0 0.2333333333333333 0  0 0.2 0  0 0.1666666666666666 0  0 0.1333333333333333 0  0 0.09999999999999998 0  0 0.06666666666666665 0  0 0.03333333333333333 0  1 0.03333333333333333 0  1 0.06666666666666667 0  1 0.1 0  1 0.1333333333333333 0  1 0.1666666666666667 0  1 0.2 0  1 0.2333333333333333 0  1 0.2666666666666667 0  1 0.3 0  1 0.3333333333333333 0  1 0.3666666666666666 0  1 0.4 0  1 0.4333333333333333 0  1 0.4666666666666667 0  1 0.5 0  1 0.5333333333333333 0  1 0.5666666666666667 0  1 0.6 0  1 0.6333333333333333 0  1 0.6666666666666666 0  1 0.7 0  1 0.7333333333333333 0  1 0.7666666666666667 0  1 0.8 0  1 0.8333333333333334 0  1 0.8666666666666667 0  1 0.9 0  1 0.9333333333333333 0  1 0.9666666666666667 0  0.9666666666666667 1 0  0.9333333333333333 1 0  0.9 1 0  0.8666666666666667 1 0  0.8333333333333334 1 0  0.8 1 0  0.7666666666666666 1 0  0.7333333333333334 1 0  0.7 1 0  0.6666666666666667 1 0  0.6333333333333333 1 0  0.6 1 0  0.5666666666666667 1 0  0.5333333333333333 1 0  0.5 1 0  0.4666666666666667 1 0  0.4333333333333333 1 0  0.4 1 0  0.3666666666666667 1 0  0.3333333333333334 1 0  0.3 1 0  0.2666666666666667 1 0  0.2333333333333333 1 0  0.2 1 0  0.1666666666666666 1 0  0.1333333333333333 1 0  0.09999999999999998 1 0  0.06666666666666665 1 0  0.03333333333333333 1 0  0.6247072676344306 0.2689501343248463 0  0.6239274716502419 0.2788583817523955 0  0.6226301867455355 0.2887122389026952 0  0.6208189686880621 0.2984846970382296 0  0.6184987819006211 0.3081489705305245 0  0.6156759858539226 0.317678570277693 0  0.6123583176357204 0.3270473763092224 0  0.6085548707439923 0.3362297093789981 0  0.6042760701622942 0.3452004013503318 0  0.5995336437856049 0.3539348641800754 0  0.5943405902749808 0.3624091573127375 0  0.5887111434291297 0.3706000532998825 0  0.582660733170558 0.3784851014649517 0  0.5762059432532257 0.3860426894390078 0  0.5693644658076293 0.3932521023987353 0  0.5621550528479018 0.4000935798443317 0  0.5545974648738458 0.4065483697616639 0  0.5467124167087765 0.4125987800202355 0  0.5385215207216315 0.4182282268660866 0  0.5300472275889694 0.4234212803767108 0  0.5213127647592257 0.4281637067534002 0  0.512342072787892 0.4324425073350981 0  0.5031597397181163 0.4362459542268262 0  0.493790933686587 0.4395636224450283 0  0.4842613339394185 0.4423864184917269 0  0.4745970604471235 0.4447066052791678 0  0.4648246023115891 0.4465178233366412 0  0.4549707451612894 0.4478151082413475 0  0.4450624977337403 0.4485949042255363 0  0.4351270178464268 0.4488550739226177 0  0.4251915379591132 0.4485949042255363 0  0.4152832905315641 0.4478151082413475 0  0.4054294333812644 0.4465178233366411 0  0.39565697524573 0.4447066052791677 0  0.385992701753435 0.4423864184917267 0  0.3764631020062665 0.4395636224450281 0  0.3670942959747371 0.4362459542268259 0  0.3579119629049616 0.4324425073350978 0  0.3489412709336278 0.4281637067533998 0  0.3402068081038843 0.4234212803767103 0  0.3317325149712221 0.4182282268660862 0  0.3235416189840771 0.412598780020235 0  0.3156565708190078 0.4065483697616634 0  0.3080989828449519 0.4000935798443311 0  0.3008895698852244 0.3932521023987346 0  0.2940480924396279 0.3860426894390071 0  0.2875933025222958 0.3784851014649511 0  0.2815428922637242 0.3706000532998818 0  0.2759134454178731 0.3624091573127368 0  0.2707203919072489 0.3539348641800746 0  0.2659779655305596 0.3452004013503309 0  0.2616991649488616 0.3362297093789972 0  0.2578957180571336 0.3270473763092215 0  0.2545780498389315 0.3176785702776921 0  0.251755253792233 0.3081489705305236 0  0.249435067004792 0.2984846970382286 0  0.2476238489473186 0.2887122389026941 0  0.2463265640426123 0.2788583817523945 0  0.2455467680584236 0.2689501343248454 0  0.2452865983613423 0.2590146544375318 0  0.2455467680584237 0.2490791745502182 0  0.2463265640426126 0.2391709271226692 0  0.247623848947319 0.2293170699723696 0  0.2494350670047924 0.2195446118368351 0  0.2517552537922335 0.2098803383445402 0  0.2545780498389321 0.2003507385973717 0  0.2578957180571343 0.1909819325658423 0  0.2616991649488624 0.1817995994960667 0  0.2659779655305604 0.172828907524733 0  0.2707203919072498 0.1640944446949895 0  0.2759134454178741 0.1556201515623273 0  0.2815428922637251 0.1474292555751825 0  0.2875933025222969 0.1395442074101132 0  0.2940480924396291 0.1319866194360571 0  0.3008895698852256 0.1247772064763297 0  0.3080989828449531 0.1179357290307334 0  0.3156565708190092 0.1114809391134012 0  0.3235416189840785 0.1054305288548295 0  0.3317325149712236 0.09980108200897844 0  0.3402068081038856 0.0946080284983544 0  0.3489412709336291 0.08986560212166514 0  0.357911962904963 0.08558680153996717 0  0.3670942959747386 0.08178335464823916 0  0.3764631020062678 0.07846568643003712 0  0.3859927017534364 0.0756428903833386 0  0.3956569752457313 0.0733227035958976 0  0.4054294333812659 0.07151148553842429 0  0.4152832905315654 0.07021420063371797 0  0.4251915379591144 0.0694344046495293 0  0.435127017846428 0.0691742349524479 0  0.4450624977337415 0.06943440464952938 0  0.4549707451612905 0.07021420063371814 0  0.4648246023115901 0.07151148553842454 0  0.4745970604471245 0.07332270359589793 0  0.4842613339394195 0.07564289038333902 0  0.4937909336865879 0.07846568643003757 0  0.5031597397181173 0.0817833546482398 0  0.5123420727878929 0.08558680153996781 0  0.5213127647592265 0.08986560212166581 0  0.53004722758897 0.0946080284983552 0  0.5385215207216321 0.09980108200897933 0  0.5467124167087771 0.1054305288548305 0  0.5545974648738462 0.1114809391134021 0  0.5621550528479023 0.1179357290307343 0  0.5693644658076298 0.1247772064763308 0  0.576205943253226 0.1319866194360582 0  0.5826607331705582 0.1395442074101142 0  0.5887111434291299 0.1474292555751835 0  0.594340590274981 0.1556201515623285 0  0.5995336437856051 0.1640944446949906 0  0.6042760701622945 0.172828907524734 0  0.6085548707439925 0.1817995994960678 0  0.6123583176357205 0.1909819325658435 0  0.6156759858539227 0.2003507385973728 0  0.6184987819006211 0.2098803383445412 0  0.6208189686880622 0.2195446118368362 0  0.6226301867455355 0.2293170699723706 0  0.6239274716502419 0.2391709271226702 0  0.6247072676344306 0.2490791745502192 0  0.203885768735257 0.3325402459548524 0  0.2015714905276826 0.3421799084407872 0  0.1977777294810124 0.3513388578120612 0  0.1925979005829864 0.3597915703383434 0  0.1861595484119405 0.3673299121842922 0  0.1786212065659918 0.373768264355338 0  0.1701684940397096 0.378948093253364 0  0.1610095446684356 0.3827418543000342 0  0.1513698821825007 0.3850561325076086 0  0.1414868670645144 0.3858339426659677 0  0.1316038519465281 0.3850561325076086 0  0.1219641894605933 0.3827418543000343 0  0.1128052400893193 0.378948093253364 0  0.1043525275630371 0.3737682643553381 0  0.09681418571708833 0.3673299121842922 0  0.09037583354604248 0.3597915703383434 0  0.08519600464801645 0.3513388578120612 0  0.08140224360134621 0.3421799084407872 0  0.07908796539377183 0.3325402459548523 0  0.07831015523541281 0.3226572308368659 0  0.07908796539377186 0.3127742157188796 0  0.08140224360134626 0.3031345532329447 0  0.08519600464801655 0.2939756038616707 0  0.0903758335460426 0.2855228913353884 0  0.0968141857
[...]
<PointData  Tensors="$\sigma$"> 
<DataArray  type="Float64"  Name="$\sigma$"  NumberOfComponents="9" format="ascii">4.4468688445094266e+01 3.5709336556892126e+01 0.0000000000000000e+00 3.5709336556892126e+01 1.2470633734535716e+03 0.0000000000000000e+00 0.0000000000000000e+00 0.0000000000000000e+00 0.0000000000000000e+00  1.6281386467909923e+02 2.5416050465712143e+01 0.0000000000000000e+00 2.5416050465712143e+01 6.3940338696356412e+02 0.0000000000000000e+00 0.0000000000000000e+00 0.0000000000000000e+00 0.0000000000000000e+00  1.1219560141220428e+00 -2.3214833894402362e+00 0.0000000000000000e+00 -2.3214833894402362e+00 6.8231430561779496e+02 0.0000000000000000e+00 0.0000000000000000e+00 0.0000000000000000e+00 0.0000000000000000e+00  5.0948297981641337e+00 -1.9259387185180654e+00 0.0000000000000000e+00 -1.9259387185180654e+00 6.5293087125093712e+02 0.0000000000000000e+00 0.0000000000000000e+00 0.0000000000000000e+00 0.0000000000000000e+00  3.6270063073764574e+00 2.0646317125706828e+00 0.0000000000000000e+00 2.0646317125706828e+00 6.2468045603020096e+02 0.0000000000000000e+00 0.0000000000000000e+00 0.0000000000000000e+00 0.0000000000000000e+00  2.5891431536570735e+01 2.1985807420232625e+01 0.0000000000000000e+00 2.1985807420232625e+01 1.2618504384216064e+03 0.0000000000000000e+00 0.0000000000000000e+00 0.0000000000000000e+00 0.0000000000000000e+00  -7.7755824681947798e+00 4.7925574818686769e+01 0.0000000000000000e+00 4.7925574818686769e+01 7.9068319890726997e+01 0.0000000000000000e+00 0.0000000000000000e+00 0.0000000000000000e+00 0.0000000000000000e+00  1.4626289185103442e+02 8.5989337350095241e+01 0.0000000000000000e+00 8.5989337350095241e+01 1.3458541204389458e+03 0.0000000000000000e+00 0.0000000000000000e+00 0.0000000000000000e+00 0.0000000000000000e+00  9.0626970285592250e+01 -1.0215758239255253e+02 0.0000000000000000e+00 -1.0215758239255253e+02 1.2341938639171128e+03 0.0000000000000000e+00 0.0000000000000000e+00 0.0000000000000000e+00 0.0000000000000000e+00  9.6378445544151496e+00 -1.5893711278713258e+01 0.0000000000000000e+00 -1.5893711278713258e+01 5.8564965187710225e+00 0.0000000000000000e+00 0.0000000000000000e+00 0.0000000000000000e+00 0.0000000000000000e+00  9.9352251542816947e-02 -7.8794367178684857e+00 0.0000000000000000e+00 -7.8794367178684857e+00 8.9737237048010066e+00 0.0000000000000000e+00 0.0000000000000000e+00 0.0000000000000000e+00 0.0000000000000000e+00  4.8619816304146163e+01 9.1400862074836809e+01 0.0000000000000000e+00 9.1400862074836809e+01 7.2261618047753359e+02 0.0000000000000000e+00 0.0000000000000000e+00 0.0000000000000000e+00 0.0000000000000000e+00  6.9362442392477508e+00 1.8290101658117830e+01 0.0000000000000000e+00 1.8290101658117830e+01 1.6381872028558287e+03 0.0000000000000000e+00 0.0000000000000000e+00 0.0000000000000000e+00 0.0000000000000000e+00  2.7869415690821508e+01 1.3827355133354683e+01 0.0000000000000000e+00 1.3827355133354683e+01 1.3078464697349393e+03 0.0000000000000000e+00 0.0000000000000000e+00 0.0000000000000000e+00 0.0000000000000000e+00  -5.9775372621744127e+00 -5.0647576457401605e+01 0.0000000000000000e+00 -5.0647576457401605e+01 -1.3277067872755197e+02 0.0000000000000000e+00 0.0000000000000000e+00 0.0000000000000000e+00 0.0000000000000000e+00  1.0116095205026827e+01 -3.4858620368586905e+01 0.0000000000000000e+00 -3.4858620368586905e+01 1.4408974807479424e+01 0.0000000000000000e+00 0.0000000000000000e+00 0.0000000000000000e+00 0.0000000000000000e+00  1.7325242467365598e+01 -5.5373484389795706e+01 0.0000000000000000e+00 -5.5373484389795706e+01 8.3598656896595617e+02 0.0000000000000000e+00 0.0000000000000000e+00 0.0000000000000000e+00 0.0000000000000000e+00  5.3489216475024485e+01 3.8959221820306560e+01 0.0000000000000000e+00 3.8959221820306560e+01 9.8665918713304438e+02 0.0000000000000000e+00 0.0000000000000000e+00 0.0000000000000000e+00 0.0000000000000000e+00  3.5492982242240669e+02 2.7094866373011143e+02 0.0000000000000000e+00 2.7094866373011143e+02 2.8057265238584578e+03 0.0000000000000000e+00 0.0000000000000000e+00 0.0000000000000000e+00 0.0000000000000000e+00  6.1506476045972029e+01 -4.7144278840442780e+01 0.0000000000000000e+00 -4.7144278840442780e+01 1.5538274546745629e+03 0.0000000000000000e+00 0.0000000000000000e+00 0.0000000000000000e+00 0.0000000000000000e+00  1.3422640236895010e+01 3.3563198184715446e+01 0.0000000000000000e+00 3.3563198184715446e+01 9.6838903083282105e+02 0.0000000000000000e+00 0.0000000000000000e+00 0.0000000000000000e+00 0.0000000000000000e+00  3.6739099584727683e+01 -6.9849519375153302e-01 0.0000000000000000e+00 -6.9849519375153302e-01 5.3713587690564043e+02 0.0000000000000000e+00 0.0000000000000000e+00 0.0000000000000000e+00 0.0000000000000000e+00  4.0902495451423931e+01 -9.8210894570623793e+01 0.0000000000000000e+00 -9.8210894570623793e+01 8.1872170372137111e+02 0.0000000000000000e+00 0.0000000000000000e+00 0.0000000000000000e+00 0.0000000000000000e+00  -7.3013343163551653e+01 -2.0376884223258976e+01 0.0000000000000000e+00 -2.0376884223258976e+01 2.8697877144811542e+02 0.0000000000000000e+00 0.0000000000000000e+00 0.0000000000000000e+00 0.0000000000000000e+00  -2.9352404926613343e+02 1.5047047970607380e+02 0.0000000000000000e+00 1.5047047970607380e+02 -5.2622885567735807e+01 0.0000000000000000e+00 0.0000000000000000e+00 0.0000000000000000e+00 0.0000000000000000e+00  -4.1632897631724990e+02 1.4930148393999309e+02 0.0000000000000000e+00 1.4930148393999309e+02 -1.0434553229524619e+02 0.0000000000000000e+00 0.0000000000000000e+00 0.0000000000000000e+00 0.0000000000000000e+00  -3.3859341824866419e+02 1.4911222769231978e+02 0.0000000000000000e+00 1.4911222769231978e+02 -5.1796387250363921e+01 0.0000000000000000e+00 0.0000000000000000e+00 0.0000000000000000e+00 0.0000000000000000e+00  2.1385705918238514e+02 2.9383722699004267e+02 0.0000000000000000e+00 2.9383722699004267e+02 1.7377811992496609e+02 0.0000000000000000e+00 0.0000000000000000e+00 0.0000000000000000e+00 0.0000000000000000e+00  7.3109887717830532e+02 5.0365747218213988e+02 0.0000000000000000e+00 5.0365747218213988e+02 3.4864493810999784e+02 0.0000000000000000e+00 0.0000000000000000e+00 0.0000000000000000e+00 0.0000000000000000e+00  7.8048574123348999e+02 6.1487208216802264e+02 0.0000000000000000e+00 6.1487208216802264e+02 5.8737249958776601e+02 0.0000000000000000e+00 0.0000000000000000e+00 0.0000000000000000e+00 0.0000000000000000e+00  4.3080626640705981e+02 4.8266150762413145e+02 0.0000000000000000e+00 4.8266150762413145e+02 6.6090977078986828e+02 0.0000000000000000e+00 0.0000000000000000e+00 0.0000000000000000e+00 0.0000000000000000e+00  1.8710155483978403e+02 2.3496691976714999e+02 0.0000000000000000e+00 2.3496691976714999e+02 5.7054420377275403e+02 0.0000000000000000e+00 0.0000000000000000e+00 0.0000000000000000e+00 0.0000000000000000e+00  4.0655364739926775e+01 5.8036736403724206e+01 0.0000000000000000e+00 5.8036736403724206e+01 5.0080941898905894e+02 0.0000000000000000e+00 0.0000000000000000e+00 0.0000000000000000e+00 0.0000000000000000e+00  1.8595631364223657e+01 -2.3556101409403638e+01 0.0000000000000000e+00 -2.3556101409403638e+01 2.7551188538586013e+02 0.0000000000000000e+00 0.0000000000000000e+00 0.0000000000000000e+00 0.0000000000000000e+00  -3.1782015770149759e+01 1.6408008660037048e+01 0.0000000000000000e+00 1.6408008660037048e+01 6.3553753313167618e+01 0.0000000000000000e+00 0.0000000000000000e+00 0.0000000000000000e+00 0.0000000000000000e+00  -1.7201761266615236e+02 9.7760785125615030e+01 0.0000000000000000e+00 9.7760785125615030e+01 -5.3340234330318651e+01 0.0000000000000000e+00 0.0000000000000000e+00 0.0000000000000000e+00 0.0000000000000000e+00  -2.9658611292316584e+02 1.0267888476295070e+02 0.0000000000000000e+00 1.0267888476295070e+02 -6.2484543737430712e+01 0.0000000000000000e+00 0.0000000000000000e+00 0.0000000000000000e+00 0.0000000000000000e+00  -2.9253404818489287e+02 7.4919418281921224e+01 0.0000000000000000e+00 7.4919418281921224e+01 -5.2980850057680392e+01 0.0000000000000000e+00 0.0000000000000000e+00 0.0000000000000000e+00 0.0000000000000000e+00  -1.3522752532198214e+02 4.0166017304562054e+01 0.0000000000000000e+00 4.0166017304562054e+01 1.5483199286143520e+01 0.0000000000000000e+00 0.0000000000000000e+00 0.0000000000000000e+00 0.0000000000000000e+00  1.3628937845122647e+02 1.4440216027160105e+02 0.0000000000000000e+00 1.4440216027160105e+02 1.1852067664254557e+02 0.0000000000000000e+00 0.0000000000000000e+00 0.0000000000000000e+00 0.0000000000000000e+00  2.9155102700129186e+02 2.8982441104165389e+02 0.0000000000000000e+00 2.8982441104165389e+02 4.0743405783405780e+02 0.0000000000000000e+00 0.0000000000000000e+00 0.0000000000000000e+00 0.0000000000000000e+00  2.7747669879695241e+02 4.3104437487829028e+02 0.0000000000000000e+00 4.3104437487829028e+02 8.3100802594077186e+02 0.0000000000000000e+00 0.0000000000000000e+00 0.0000000000000000e+00 0.0000000000000000e+00  2.1413009227846564e+02 2.5814699872431521e+02 0.0000000000000000e+00 2.5814699872431521e+02 1.1136838229062337e+03 0.0000000000000000e+00 0.0000000000000000e+00 0.0000000000000000e+00 0.0000000000000000e+00  7.4043218363438655e+01 -2.6268260689243810e+01 0.0000000000000000e+00 -2.6268260689243810e+01 5.3432219182078313e+02 0.0000000000000000e+00 0.0000000000000000e+00 0.0000000000000000e+00 0.0000000000000000e+00  -1.6228404263447263e+01 2.7649633418350328e-01 0.0000000000000000e+00 2.7649633418350328e-01 4.5970205596344255e+02 0.0000000000000000e+00 0.0000000000000000e+00 0.0000000000000000e+00 0.0000000000000000e+00  2.0268944477053772e+01 3.8672137114172065e+00 0.0000000000000000e+00 3.8672137114172065e+00 3.6324604039388714e+02 0.0000000000000000e+00 0.0000000000000000e+00 0.0000000000000000e+00 0.0000000000000000e+00  6.0451110912221813e+00 4.4180553596339101e+00 0.0000000000000000e+00 4.4180553596339101e+00 3.1154955699804134e+02 0.0000000000000000e+00 0.0000000000000000e+00 0.0000000000000000e+00 0.0000000000000000e+00  7.4062691921345598e+00 7.0181422950926375e+00 0.0000000000000000e+00 7.0181422950926375e+00 2.4451643349290515e+02 0.0000000000000000e+00 0.0000000000000000e+00 0.0000000000000000e+00 0.0000000000000000e+00  -3.7999392791183531e+00 5.0921336529287524e+00 0.0000000000000000e+00 5.0921336529287524e+00 1.8433959384430395e+02 0.0000000000000000e+00 0.0000000000000000e+00 0.0000000000000000e+00 0.0000000000000000e+00  -9.8614813905258494e+00 2.9309149824504885e+00 0.0000000000000000e+00 2.9309149824504885e+00 1.3274563166951859e+02 0.0000000000000000e+00 0.0000000000000000e+00 0.0000000000000000e+00 0.0000000000000000e+00  -1.8103504516994921e+01 2.3246580436927435e+00 0.0000000000000000e+00 2.3246580436927435e+00 8.7009480714509252e+01 0.0000000000000000e+00 0.0000000000000000e+00 0.0000000000000000e+00 0.0000000000000000e+00  -1.8552658018051503e+01 2.6773264900140292e+00 0.0000000000000000e+00 2.6773264900140292e+00 3.7306256698038197e+01 0.0000000000000000e+00 0.0000000000000000e+00 0.0000000000000000e+00 0.0000000000000000e+00  -2.1760489317158374e+01 3.3531581831508475e+00 0.0000000000000000e+00 3.3531581831508475e+00 -4.0481719127215738e+00 0.0000000000000000e+00 0.0000000000000000e+00 0.0000000000000000e+00 0.0000000000000000e+00  -3.1859557842469954e+01 2.4531621577225335e+00 0.0000000000000000e+00 2.4531621577225335e+00 -1.8713955002764479e+01 0.0000000000000000e+00 0.0000000000000000e+00 0.0000000000000000e+00 0.0000000000000000e+00  -3.9517648056189039e+01 2.8367498831052340e-01 0.0000000000000000e+00 2.8367498831052340e-01 -1.8816236227668227e+01 0.0000000000000000e+00 0.0000000000000000e+00 0.0000000000000000e+00 0.0000000000000000e+00  -4.6724760051865935e+01 1.2041930721845864e-01 0.0000000000000000e+00 1.2041930721845862e-01 -9.1493297843267776e+00 0.0000000000000000e+00 0.0000000000000000e+00 0.0000000000000000e+00 0.0000000000000000e+00  -4.9217774014495014e+01 -6.3610491163379668e-01 0.0000000000000000e+00 -6.3610491163379668e-01 8.5239214052111674e+00 0.0000000000000000e+00 0.0000000000000000e+00 0.0000000000000000e+00 0.0000000000000000e+00  -6.4255374205438102e+01 1.9849119003947102e+00 0.0000000000000000e+00 1.9849119003947102e+00 5.1914270147752781e+01 0.0000000000000000e+00 0.0000000000000000e+00 0.0000000000000000e+00 0.0000000000000000e+00  -9.1676836924723233e+01 6.4122705209891873e+00 0.0000000000000000e+00 6.4122705209891873e+00 1.0855853146970379e+02 0.0000000000000000e+00 0.0000000000000000e+00 0.0000000000000000e+00 0.0000000000000000e+00  -1.4650933611336276e+02 9.0085292740532221e+00 0.0000000000000000e+00 9.0085292740532221e+00 1.5450734786023648e+02 0.0000000000000000e+00 0.0000000000000000e+00 0.0000000000000000e+00 0.0000000000000000e+00  -1.6465070384626881e+02 -6.3796595343307834e+00 0.0000000000000000e+00 -6.3796595343307834e+00 1.0587069560746419e+02 0.0000000000000000e+00 0.0000000000000000e+00 0.0000000000000000e+00 0.0000000000000000e+00  -1.2582910363569603e+02 -1.2606165709524424e+00 0.0000000000000000e+00 -1.2606165709524424e+00 -3.2580307998468911e+00 0.0000000000000000e+00 0.0000000000000000e+00 0.0000000000000000e+00 0.0000000000000000e+00  -1.4548109310129888e+02 4.8601305719827943e+00 0.0000000000000000e+00 4.8601305719827943e+00 7.3334489500277456e+01 0.0000000000000000e+00 0.0000000000000000e+00 0.0000000000000000e+00 0.0000000000000000e+00  -1.1910176271460894e+02 -7.0682568718614638e+00 0.0000000000000000e+00 -7.0682568718614638e+00 1.3925793721606144e+02 0.0000000000000000e+00 0.0000000000000000e+00 0.0000000000000000e+00 0.0000000000000000e+00  -5.1562323727218342e+01 -1.0319656449269635e+01 0.0000000000000000e+00 -1.0319656449269635e+01 8.5054266519697620e+01 0.0000000000000000e+00 0.0000000000000000e+00 0.0000000000000000e+00 0.0000000000000000e+00  1.6173981885636348e+01 -5.3497534365510218e+00 0.0000000000000000e+00 -5.3497534365510218e+00 6.2788453817117436e+01 0.0000000000000000e+00 0.0000000000000000e+00 0.0000000000000000e+00 0.0000000000000000e+00  3.0987040213967884e+01 -5.1058814765830620e+00 0.0000000000000000e+00 -5.1058814765830620e+00 9.1223931099187936e+01 0.0000000000000000e+00 0.0000000000000000e+00 0.0000000000000000e+00 0.0000000000000000e+00  3.3977079968938227e+01 -4.2142752297961232e+00 0.0000000000000000e+00 -4.2142752297961232e+00 1.6370315045962900e+02 0.0000000000000000e+00 0.0000000000000000e+00 0.0000000000000000e+00 0.0000000000000000e+00  2.8292544424944946e+01 -7.5904561040929677e+00 0.0000000000000000e+00 -7.5904561040929677e+00 2.5727848967817209e+02 0.0000000000000000e+00 0.0000000000000000e+00 0.0000000000000000e+00 0.0000000000000000e+00  2.5424920936592514e+01 -5.1623416383929133e+00 0.0000000000000000e+00 -5.1623416383929133e+00 3.6429127604730451e+02 0.0000000000000000e+00 0.0000000000000000e+00 0.0000000000000000e+00 0.0000000000000000e+00  8.5678484565547723e+00 -3.5416204742803452e+00 0.0000000000000000e+00 -3.5416204742803452e+00 4.8962614191406743e+02 0.0000000000000000e+00 0.0000000000000000e+00 0.0000000000000000e+00 0.0000000000000000e+00  9.9613382417776677e+00 -4.0327060080282733e+00 0.0000000000000000e+00 -4.0327060080282733e+00 5.7864998881358883e+02 0.0000000000000000e+00 0.0000000000000000e+00 0.0000000000000000e+00 0.0000000000000000e+00  -1.8715518428506843e+00 8.4046437500454640e+00 0.0000000000000000e+00 8.4046437500454640e+00 6.6722082054348789e+02 0.0000000000000000e+00 0.0000000000000000e+00 0.0000000000000000e+00 0.0000000000000000e+00  -1.7022545884823589e-01 1.0809699961509218e+00 0.0000000000000000e+00 1.0809699961509218e+00 6.8309303911372558e+02 0.0000000000000000e+00 0.0000000000000000e+00 0.0000000000000000e+00 0.0000000000000000e+00  -8.4676918718451955e-01 7.7152477686439180e+00 0.0000000000000000e+00 7.7152477686439180e+00 6.9981040328749134e+02 0.0000000000000000e+00 0.0000000000000000e+00 0.0000000000000000e+00 0.0000000000000000e+00  -5.5411220108331660e-01 2.0568447288306522e+00 0.0000000000000000e+00 2.0568447288306522e+00 7.1794299101318870e+02 0.0000000000000000e+00 0.0000000000000000e+00 0.0000000000000000e+00 0.0000000000000000e+00  -3.2577593176087555e-01 3.4998543144885623e+00 0.0000000000000000e+00 3.4998543144885623e+00 7.4296824780727832e+02 0.0000000000000000e+00 0.0000000000000000e+00 0.0000000000000000e+00 0.0000000000000000e+00  1.6353888381758039e+00 8.1781796464736303e+00 0.0000000000000000e+00 8.1781796464736303e+00 7.5234264084509039e+02 0.0000000000000000e+00 0.0000000000000000e+00 0.0000000000000000e+00 0.0000000000000000e+00  -3.6889903108905711e+00 1.3990685998288461e+01 0.0000000000000000e+00 1.3990685998288461e+01 8.1039849881838222e+02 0.0000000000000000e+00 0.0000000000000000e+00 0.0000000000000000e+00 0.0000000000000000e+00  -7.0554738274930884e-01 2.0920629651150474e+01 0.0000000000000000e+00 2.0920629651150474e+01 8.8039476116227343e+02 0.0000000000000000e+00 0.0000000000000000e+00 0.0000000000000000e+00 0.0000000000000000e+00  -8.8410321598467689e+00 1.0229095838076198e+01 0.0000000000000000e+00 1.0229095838076198e+01 9.6341305757689770e+02 0.0000000000000000e+00 0.0000000000000000e+00 0.0000000000000000e+00 0.0000000000000000e+00  -2.2665395820075400e+01 -1.7754876585982057e+01 0.0000000000000000e+00 -1.7754876585982057e+01 9.4593427108951425e+02 0.0000000000000000e+00 0.0000000000000000e+00 0.0000000000000000e+00 0.0000000000000000e+00  -1.8931038606094351e+01 -7.2049876830896267e+01 0.0000000000000000e+00 -7.2049876830896267e+01 8.1435514038911037e+02 0.0000000000000000e+00 0.0000000000000000e+00 0.0000000000000000e+00 0.0000000000000000e+00  6.8408903533120802e-01 -7.3849328805841594e+01 0.0000000000000000e+00 -7.3849328805841594e+01 6.1738759201564415e+02 0.0000000000000000e+00 0.0000000000000000e+00 0.0000000000000000e+00 0.0000000000000000e+00  5.5189711542633290e+01 5.4013933969298300e+00 0.0000000000000000e+00 5.4013933969298300e+00 3.3184954237004666e+02 0.0000000000000000e+00 0.0000000000000000e+00 0.0000000000000000e+00 0.0000000000000000e+00  3.2972070383993845e+01 5.5684483931241694e+01 0.0000000000000000e+00 5.5684483931241694e+01 3.9824837069176715e+02 0.0000000000000000e+00 0.0000000000000000e+00 0.0000000000000000e+00 0.0000000000000000e+00  1.3682173488235444e+01 8.9450125962455132e+01 0.0000000000000000e+00 8.9450125962455132e+01 7.5129797252178059e+02 0.0000000000000000e+00 0.0000000000000000e+00 0.0000000000000000e+00 0.0000000000000000e+00  -1.4221124115731861e+01 6.8640788861932677e+01 0.0000000000000000e+00 6.8640788861932677e+01 1.0919116908583549e+03 0.0000000000000000e+00 0.0000000000000000e+00 0.0000000000000000e+00 0.0000000000000000e+00  -2.3100936982528470e+01 -6.5637385270317125e+01 0.0000000000000000e+00 -6.5637385270317125e+01 1.1774239426312029e+03 0.0000000000000000e+00 0.0000000000000000e+00 0.0000000000000000e+00 0.0000000000000000e+00  4.6870421088985779e+01 -2.0951515629690096e+01 0.0000000000000000e+00 -2.0951515629690096e+01 9.0256384348554582e+02 0.0000000000000000e+00 0.0000000000000000e+00 0.0000000000000000e+00 0.0000000000000000e+00  -3.2692290653307587e+01 3.8989562463436705e+01 0.0000000000000000e+00 3.8989562463436705e+01 1.0211206887566077e+03 0.0000000000000000e+00 0.0000000000000000e+00 0.0000000000000000e+00 0.0000000000000000e+00  -1.9849228011966025e+00 -3.3921411380109504e+01 0.0000000000000000e+00 -3.3921411380109504e+01 9.6971642022459457e+02 0.0000000000000000e+00 0.0000000000000000e+00 0.0000000000000000e+00 0.0000000000000000e+00  2.3959742028818845e+00 -4.0695921648008351e+01 0.0000000000000000e+00 -4.0695921648008351e+01 7.7226749727625190e+02 0.0000000000000000e+00 0.0000000000000000e+00 0.0000000000000000e+00 0.0000000000000000e+00  9.5457418988606051e+00 -5.7384219253576854e+00 0.0000000000000000e+00 -5.7384219253576854e+00 7.0856149590773771e+02 0.0000000000000000e+00 0.0000000000000000e+00 0.0000000000000000e+00 0.0000000000000000e+00  -2.0590149170943941e+00 2.3230823089399752e-01 0.0000000000000000e+00 2.3230823089399752e-01 6.9189007583325872e+02 0.0000000000000000e+00 0.0000000000000000e+00 0.0000000000000000e+00 0.0000000000000000e+00  