<?xml version="1.0"?>
<VTKFile type="UnstructuredGrid"  version="0.1"  >
<UnstructuredGrid>
<Piece  NumberOfPoints="3879" NumberOfCells="6881">
<Points>
<DataArray  type="Float64"  NumberOfComponents="3"  format="ascii">0.207524190028372 0.2122422770132111 0  0 0 0  1 0 0  0 1 0  1 1 0  0.6249674373315121 0.2590146544375328 0  0.204663578893616 0.322657230836866 0  0.09605577522599912 0.4018360776629776 0  0.671351124618251 0.08738059142081528 0  0.7842102907526436 0.1666439122351055 0  0.8512483166984784 0.1985391006160637 0  0.6418797837909295 0.4423157172830166 0  0.9292488447973215 0.3869277868069776 0  0.3197896119137055 0.5509935221980964 0  0.3979283685568406 0.5079871620336583 0  0.1572503457993085 0.7345153245035532 0  0.3032914287999163 0.7872981443735918 0  0.3549464687598876 0.8870324161721976 0  0.9691791685505482 0.5159450047798622 0  0.9447564590470373 0.6146164845729313 0  0.7687603548175107 0.7176858127488035 0  0.8926159261971183 0.7422924070424508 0  0.2061587782631535 0.2217389244366831 0  0.2021731605082994 0.2304662099646423 0  0.1958902278109265 0.2377171008267789 0  0.1878189860121365 0.2429041729681512 0  0.1786133191209442 0.2456072006525708 0  0.1690190155206647 0.2456072006525708 0  0.1598133486294724 0.2429041729681512 0  0.1517421068306824 0.2377171008267789 0  0.1454591741333096 0.2304662099646422 0  0.1414735563784554 0.221738924436683 0  0.1401081446132369 0.212242277013211 0  0.1414735563784555 0.202745629589739 0  0.1454591741333096 0.1940183440617798 0  0.1517421068306825 0.1867674531996431 0  0.1598133486294725 0.1815803810582709 0  0.1690190155206649 0.1788773533738513 0  0.1786133191209443 0.1788773533738514 0  0.1878189860121367 0.181580381058271 0  0.1958902278109266 0.1867674531996433 0  0.2021731605082994 0.19401834406178 0  0.2061587782631535 0.2027456295897391 0  0.03333333333333333 0 0  0.06666666666666667 0 0  0.1 0 0  0.1333333333333333 0 0  0.1666666666666667 0 0  0.2 0 0  0.2333333333333333 0 0  0.2666666666666667 0 0  0.3 0 0  0.3333333333333333 0 0  0.3666666666666666 0 0  0.4 0 0  0.4333333333333333 0 0  0.4666666666666667 0 0  0.5 0 0  0.5333333333333333 0 0  0.5666666666666667 0 0  0.6 0 0  0.6333333333333333 0 0  0.6666666666666666 0 0  0.7 0 0  0.7333333333333333 0 0  0.7666666666666667 0 0  0.8 0 0  0.8333333333333334 0 0  0.8666666666666667 0 0  0.9 0 0  0.9333333333333333 0 0  0.9666666666666667 0 0  0 0.9666666666666667 0  0 0.9333333333333333 0  0 0.9 0  0 0.8666666666666667 0  0 0.8333333333333334 0  0 0.8 0  0 0.7666666666666666 0  0 0.7333333333333334 0  0 0.7 0  0 0.6666666666666667 0  0 0.6333333333333333 0  0 0.6 0  0 0.5666666666666667 0  0 0.5333333333333333 0  0 0.5 0  0 0.4666666666666667 0  0 0.4333333333333333 0  0 0.4 0  0 0.3666666666666667 0  0 0.3333333333333334 0  0 0.3 0  0 0.2666666666666667 0  0 0.2333333333333333 0  0 0.2 0  0 0.1666666666666666 0  0 0.1333333333333333 0  0 0.09999999999999998 0  0 0.06666666666666665 0  0 0.03333333333333333 0  1 0.03333333333333333 0  1 0.06666666666666667 0  1 0.1 0  1 0.1333333333333333 0  1 0.1666666666666667 0  1 0.2 0  1 0.2333333333333333 0  1 0.2666666666666667 0  1 0.3 0  1 0.3333333333333333 0  1 0.3666666666666666 0  1 0.4 0  1 0.4333333333333333 0  1 0.4666666666666667 0  1 0.5 0  1 0.5333333333333333 0  1 0.5666666666666667 0  1 0.6 0  1 0.6333333333333333 0  1 0.6666666666666666 0  1 0.7 0  1 0.7333333333333333 0  1 0.7666666666666667 0  1 0.8 0  1 0.8333333333333334 0  1 0.8666666666666667 0  1 0.9 0  1 0.9333333333333333 0  1 0.9666666666666667 0  0.9666666666666667 1 0  0.9333333333333333 1 0  0.9 1 0  0.8666666666666667 1 0  0.8333333333333334 1 0  0.8 1 0  0.7666666666666666 1 0  0.7333333333333334 1 0  0.7 1 0  0.6666666666666667 1 0  0.6333333333333333 1 0  0.6 1 0  0.5666666666666667 1 0  0.5333333333333333 1 0  0.5 1 0  0.4666666666666667 1 0  0.4333333333333333 1 0  0.4 1 0  0.3666666666666667 1 0  0.3333333333333334 1 0  0.3 1 0  0.2666666666666667 1 0  0.2333333333333333 1 0  0.2 1 0  0.1666666666666666 1 0  0.1333333333333333 1 0  0.09999999999999998 1 0  0.06666666666666665 1 0  0.03333333333333333 1 0  0.6247072676344306 0.2689501343248463 0  0.6239274716502419 0.2788583817523955 0  0.6226301867455355 0.2887122389026952 0  0.6208189686880621 0.2984846970382296 0  0.6184987819006211 0.3081489705305245 0  0.6156759858539226 0.317678570277693 0  0.6123583176357204 0.3270473763092224 0  0.6085548707439923 0.3362297093789981 0  0.6042760701622942 0.3452004013503318 0  0.5995336437856049 0.3539348641800754 0  0.5943405902749808 0.3624091573127375 0  0.5887111434291297 0.3706000532998825 0  0.582660733170558 0.3784851014649517 0  0.5762059432532257 0.3860426894390078 0  0.5693644658076293 0.3932521023987353 0  0.5621550528479018 0.4000935798443317 0  0.5545974648738458 0.4065483697616639 0  0.5467124167087765 0.4125987800202355 0  0.5385215207216315 0.4182282268660866 0  0.5300472275889694 0.4234212803767108 0  0.5213127647592257 0.4281637067534002 0  0.512342072787892 0.4324425073350981 0  0.5031597397181163 0.4362459542268262 0  0.493790933686587 0.4395636224450283 0  0.4842613339394185 0.4423864184917269 0  0.4745970604471235 0.4447066052791678 0  0.4648246023115891 0.4465178233366412 0  0.4549707451612894 0.4478151082413475 0  0.4450624977337403 0.4485949042255363 0  0.4351270178464268 0.4488550739226177 0  0.4251915379591132 0.4485949042255363 0  0.4152832905315641 0.4478151082413475 0  0.4054294333812644 0.4465178233366411 0  0.39565697524573 0.4447066052791677 0  0.385992701753435 0.4423864184917267 0  0.3764631020062665 0.4395636224450281 0  0.3670942959747371 0.4362459542268259 0  0.3579119629049616 0.4324425073350978 0  0.3489412709336278 0.4281637067533998 0  0.3402068081038843 0.4234212803767103 0  0.3317325149712221 0.4182282268660862 0  0.3235416189840771 0.412598780020235 0  0.3156565708190078 0.4065483697616634 0  0.3080989828449519 0.4000935798443311 0  0.3008895698852244 0.3932521023987346 0  0.2940480924396279 0.3860426894390071 0  0.2875933025222958 0.3784851014649511 0  0.2815428922637242 0.3706000532998818 0  0.2759134454178731 0.3624091573127368 0  0.2707203919072489 0.3539348641800746 0  0.2659779655305596 0.3452004013503309 0  0.2616991649488616 0.3362297093789972 0  0.2578957180571336 0.3270473763092215 0  0.2545780498389315 0.3176785702776921 0  0.251755253792233 0.3081489705305236 0  0.249435067004792 0.2984846970382286 0  0.2476238489473186 0.2887122389026941 0  0.2463265640426123 0.2788583817523945 0  0.2455467680584236 0.2689501343248454 0  0.2452865983613423 0.2590146544375318 0  0.2455467680584237 0.2490791745502182 0  0.2463265640426126 0.2391709271226692 0  0.247623848947319 0.2293170699723696 0  0.2494350670047924 0.2195446118368351 0  0.2517552537922335 0.2098803383445402 0  0.2545780498389321 0.2003507385973717 0  0.2578957180571343 0.1909819325658423 0  0.2616991649488624 0.1817995994960667 0  0.2659779655305604 0.172828907524733 0  0.2707203919072498 0.1640944446949895 0  0.2759134454178741 0.1556201515623273 0  0.2815428922637251 0.1474292555751825 0  0.2875933025222969 0.1395442074101132 0  0.2940480924396291 0.1319866194360571 0  0.3008895698852256 0.1247772064763297 0  0.3080989828449531 0.1179357290307334 0  0.3156565708190092 0.1114809391134012 0  0.3235416189840785 0.1054305288548295 0  0.3317325149712236 0.09980108200897844 0  0.3402068081038856 0.0946080284983544 0  0.3489412709336291 0.08986560212166514 0  0.357911962904963 0.08558680153996717 0  0.3670942959747386 0.08178335464823916 0  0.3764631020062678 0.07846568643003712 0  0.3859927017534364 0.0756428903833386 0  0.3956569752457313 0.0733227035958976 0  0.4054294333812659 0.07151148553842429 0  0.4152832905315654 0.07021420063371797 0  0.4251915379591144 0.0694344046495293 0  0.435127017846428 0.0691742349524479 0  0.4450624977337415 0.06943440464952938 0  0.4549707451612905 0.07021420063371814 0  0.4648246023115901 0.07151148553842454 0  0.4745970604471245 0.07332270359589793 0  0.4842613339394195 0.07564289038333902 0  0.4937909336865879 0.07846568643003757 0  0.5031597397181173 0.0817833546482398 0  0.5123420727878929 0.08558680153996781 0  0.5213127647592265 0.08986560212166581 0  0.53004722758897 0.0946080284983552 0  0.5385215207216321 0.09980108200897933 0  0.5467124167087771 0.1054305288548305 0  0.5545974648738462 0.1114809391134021 0  0.5621550528479023 0.1179357290307343 0  0.5693644658076298 0.1247772064763308 0  0.576205943253226 0.1319866194360582 0  0.5826607331705582 0.1395442074101142 0  0.5887111434291299 0.1474292555751835 0  0.594340590274981 0.1556201515623285 0  0.5995336437856051 0.1640944446949906 0  0.6042760701622945 0.172828907524734 0  0.6085548707439925 0.1817995994960678 0  0.6123583176357205 0.1909819325658435 0  0.6156759858539227 0.2003507385973728 0  0.6184987819006211 0.2098803383445412 0  0.6208189686880622 0.2195446118368362 0  0.6226301867455355 0.2293170699723706 0  0.6239274716502419 0.2391709271226702 0  0.6247072676344306 0.2490791745502192 0  0.203885768735257 0.3325402459548524 0  0.2015714905276826 0.3421799084407872 0  0.1977777294810124 0.3513388578120612 0  0.1925979005829864 0.3597915703383434 0  0.1861595484119405 0.3673299121842922 0  0.1786212065659918 0.373768264355338 0  0.1701684940397096 0.378948093253364 0  0.1610095446684356 0.3827418543000342 0  0.1513698821825007 0.3850561325076086 0  0.1414868670645144 0.3858339426659677 0  0.1316038519465281 0.3850561325076086 0  0.1219641894605933 0.3827418543000343 0  0.1128052400893193 0.378948093253364 0  0.1043525275630371 0.3737682643553381 0  0.09681418571708833 0.3673299121842922 0  0.09037583354604248 0.3597915703383434 0  0.08519600464801645 0.3513388578120612 0  0.08140224360134621 0.3421799084407872 0  0.07908796539377183 0.3325402459548523 0  0.07831015523541281 0.3226572308368659 0  0.07908796539377186 0.3127742157188796 0  0.08140224360134626 0.3031345532329447 0  0.08519600464801655 0.2939756038616707 0  0.0903758335460426 0.2855228913353884 0  0.0968141857
[...]
<PointData  Tensors="$\sigma$"> 
<DataArray  type="Float64"  Name="$\sigma$"  NumberOfComponents="9" format="ascii">8.4462290941132028e+02 -1.3837309022479289e+02 0.0000000000000000e+00 -1.3837309022479209e+02 1.3721692577573302e+04 0.0000000000000000e+00 0.0000000000000000e+00 0.0000000000000000e+00 0.0000000000000000e+00  1.6461322834689797e+03 1.0768140272933034e+02 0.0000000000000000e+00 1.0768140272933053e+02 6.8957797566980380e+03 0.0000000000000000e+00 0.0000000000000000e+00 0.0000000000000000e+00 0.0000000000000000e+00  -3.9780056330173387e+01 -3.2938896172073797e+01 0.0000000000000000e+00 -3.2938896172073861e+01 7.1935493355576436e+03 0.0000000000000000e+00 0.0000000000000000e+00 0.0000000000000000e+00 0.0000000000000000e+00  9.4257078248515391e+00 -6.1249254118307688e+00 0.0000000000000000e+00 -6.1249254118307794e+00 7.6358580770038061e+03 0.0000000000000000e+00 0.0000000000000000e+00 0.0000000000000000e+00 0.0000000000000000e+00  9.9044094267527676e+00 1.5628888707250672e+01 0.0000000000000000e+00 1.5628888707250706e+01 6.3902164391487586e+03 0.0000000000000000e+00 0.0000000000000000e+00 0.0000000000000000e+00 0.0000000000000000e+00  5.4686132775477608e+02 -2.5010097434802233e+02 0.0000000000000000e+00 -2.5010097434802159e+02 1.2094619178551004e+04 0.0000000000000000e+00 0.0000000000000000e+00 0.0000000000000000e+00 0.0000000000000000e+00  -6.1505593787551227e+01 4.1488296195862176e+02 0.0000000000000000e+00 4.1488296195862347e+02 -1.1324160132358702e+02 0.0000000000000000e+00 0.0000000000000000e+00 0.0000000000000000e+00 0.0000000000000000e+00  1.3952220836345184e+03 1.4369699126736444e+02 0.0000000000000000e+00 1.4369699126736501e+02 1.4966778734283784e+04 0.0000000000000000e+00 0.0000000000000000e+00 0.0000000000000000e+00 0.0000000000000000e+00  5.1594514961649838e+02 1.5054570575652897e+02 0.0000000000000000e+00 1.5054570575652855e+02 1.3189988336983673e+04 0.0000000000000000e+00 0.0000000000000000e+00 0.0000000000000000e+00 0.0000000000000000e+00  -5.8049672667175889e+02 2.6943721766840423e+02 0.0000000000000000e+00 2.6943721766840412e+02 -8.4378302599053791e+02 0.0000000000000000e+00 0.0000000000000000e+00 0.0000000000000000e+00 0.0000000000000000e+00  -3.4024921569922981e+01 -1.2830006188797717e+02 0.0000000000000000e+00 -1.2830006188797745e+02 -1.4098880083551628e+03 0.0000000000000000e+00 0.0000000000000000e+00 0.0000000000000000e+00 0.0000000000000000e+00  1.7973615020140759e+01 4.1969504011421640e+02 0.0000000000000000e+00 4.1969504011421384e+02 9.1929913742414192e+03 0.0000000000000000e+00 0.0000000000000000e+00 0.0000000000000000e+00 0.0000000000000000e+00  -5.5288759591904613e+02 -8.9171316075321059e+01 0.0000000000000000e+00 -8.9171316075320846e+01 1.1021337028331352e+04 0.0000000000000000e+00 0.0000000000000000e+00 0.0000000000000000e+00 0.0000000000000000e+00  3.2650583514174434e+02 1.3628347135195975e+02 0.0000000000000000e+00 1.3628347135195997e+02 1.1847497262578279e+04 0.0000000000000000e+00 0.0000000000000000e+00 0.0000000000000000e+00 0.0000000000000000e+00  -1.4130143950357584e+02 -2.6258014651234117e+02 0.0000000000000000e+00 -2.6258014651233884e+02 -1.4468623421455968e+03 0.0000000000000000e+00 0.0000000000000000e+00 0.0000000000000000e+00 0.0000000000000000e+00  -7.3245427249413819e+02 -4.0002383304230881e+02 0.0000000000000000e+00 -4.0002383304230881e+02 -3.9992091834329799e+03 0.0000000000000000e+00 0.0000000000000000e+00 0.0000000000000000e+00 0.0000000000000000e+00  -2.5455184764871901e+00 -9.6357870258468878e+01 0.0000000000000000e+00 -9.6357870258469944e+01 8.4056679628341299e+03 0.0000000000000000e+00 0.0000000000000000e+00 0.0000000000000000e+00 0.0000000000000000e+00  1.6355071476004480e+02 1.0378630675625375e+02 0.0000000000000000e+00 1.0378630675625487e+02 1.2612754218579414e+04 0.0000000000000000e+00 0.0000000000000000e+00 0.0000000000000000e+00 0.0000000000000000e+00  7.0447037235919715e+03 1.1239225915336053e+03 0.0000000000000000e+00 1.1239225915336056e+03 1.9569711410074742e+04 0.0000000000000000e+00 0.0000000000000000e+00 0.0000000000000000e+00 0.0000000000000000e+00  3.1431645430016044e+02 2.6152276593601573e+02 0.0000000000000000e+00 2.6152276593601624e+02 1.1905906212459424e+04 0.0000000000000000e+00 0.0000000000000000e+00 0.0000000000000000e+00 0.0000000000000000e+00  -2.0171490382451638e+00 1.2607998383278020e+02 0.0000000000000000e+00 1.2607998383277945e+02 1.1755810830385904e+04 0.0000000000000000e+00 0.0000000000000000e+00 0.0000000000000000e+00 0.0000000000000000e+00  7.5025150083895610e+01 1.0702549112367338e+02 0.0000000000000000e+00 1.0702549112367217e+02 4.7687976854823073e+03 0.0000000000000000e+00 0.0000000000000000e+00 0.0000000000000000e+00 0.0000000000000000e+00  6.4925478942069662e+02 -2.3636505976740423e+03 0.0000000000000000e+00 -2.3636505976740427e+03 9.5625077652891487e+03 0.0000000000000000e+00 0.0000000000000000e+00 0.0000000000000000e+00 0.0000000000000000e+00  -1.6448417854979144e+02 -8.3503085037443668e+02 0.0000000000000000e+00 -8.3503085037443657e+02 2.5942169147525219e+03 0.0000000000000000e+00 0.0000000000000000e+00 0.0000000000000000e+00 0.0000000000000000e+00  -2.6240779956678243e+03 1.6615770522460093e+03 0.0000000000000000e+00 1.6615770522460143e+03 -1.1763715023454929e+03 0.0000000000000000e+00 0.0000000000000000e+00 0.0000000000000000e+00 0.0000000000000000e+00  -6.4772106375373760e+03 2.3402818255179191e+03 0.0000000000000000e+00 2.3402818255179250e+03 -1.2664745802889115e+03 0.0000000000000000e+00 0.0000000000000000e+00 0.0000000000000000e+00 0.0000000000000000e+00  -5.7159002139566874e+03 1.1009962636095440e+03 0.0000000000000000e+00 1.1009962636095402e+03 -7.6972683316995574e+02 0.0000000000000000e+00 0.0000000000000000e+00 0.0000000000000000e+00 0.0000000000000000e+00  1.3459976410882200e+03 2.9984803261022867e+03 0.0000000000000000e+00 2.9984803261022880e+03 1.8470890322786317e+03 0.0000000000000000e+00 0.0000000000000000e+00 0.0000000000000000e+00 0.0000000000000000e+00  9.8266253789081384e+03 5.5262107766785657e+03 0.0000000000000000e+00 5.5262107766785675e+03 3.3846576638565939e+03 0.0000000000000000e+00 0.0000000000000000e+00 0.0000000000000000e+00 0.0000000000000000e+00  9.0789132641417364e+03 6.1997261113354152e+03 0.0000000000000000e+00 6.1997261113354334e+03 7.3947563972249081e+03 0.0000000000000000e+00 0.0000000000000000e+00 0.0000000000000000e+00 0.0000000000000000e+00  4.0760118871565351e+03 5.8862579698889958e+03 0.0000000000000000e+00 5.8862579698889976e+03 8.4748737390816004e+03 0.0000000000000000e+00 0.0000000000000000e+00 0.0000000000000000e+00 0.0000000000000000e+00  1.4183218024751220e+03 2.6175087475710138e+03 0.0000000000000000e+00 2.6175087475710084e+03 6.8772015267652896e+03 0.0000000000000000e+00 0.0000000000000000e+00 0.0000000000000000e+00 0.0000000000000000e+00  2.8484563896801802e+00 4.1780187792305753e+02 0.0000000000000000e+00 4.1780187792305799e+02 5.4481066626349657e+03 0.0000000000000000e+00 0.0000000000000000e+00 0.0000000000000000e+00 0.0000000000000000e+00  1.6036355399734987e+02 -2.6695156233004747e+02 0.0000000000000000e+00 -2.6695156233004764e+02 2.0340782819636554e+03 0.0000000000000000e+00 0.0000000000000000e+00 0.0000000000000000e+00 0.0000000000000000e+00  -5.5089430666978319e+02 5.7211806171435694e+02 0.0000000000000000e+00 5.7211806171435717e+02 -4.2921290065715675e+02 0.0000000000000000e+00 0.0000000000000000e+00 0.0000000000000000e+00 0.0000000000000000e+00  -2.2224177938503076e+03 1.7365074199476455e+03 0.0000000000000000e+00 1.7365074199476471e+03 -1.4188674047377299e+03 0.0000000000000000e+00 0.0000000000000000e+00 0.0000000000000000e+00 0.0000000000000000e+00  -4.0262426752209703e+03 1.6899258640534213e+03 0.0000000000000000e+00 1.6899258640534176e+03 -1.0539904273156578e+03 0.0000000000000000e+00 0.0000000000000000e+00 0.0000000000000000e+00 0.0000000000000000e+00  -4.0125819077008655e+03 8.2198508482559134e+02 0.0000000000000000e+00 8.2198508482559066e+02 -4.7914186867357881e+02 0.0000000000000000e+00 0.0000000000000000e+00 0.0000000000000000e+00 0.0000000000000000e+00  -1.8340203673911985e+03 -2.4799008207505821e+01 0.0000000000000000e+00 -2.4799008207506134e+01 1.2001048363157568e+02 0.0000000000000000e+00 0.0000000000000000e+00 0.0000000000000000e+00 0.0000000000000000e+00  1.9705978557109966e+03 1.2993586625016217e+03 0.0000000000000000e+00 1.2993586625016246e+03 6.7962857877982947e+02 0.0000000000000000e+00 0.0000000000000000e+00 0.0000000000000000e+00 0.0000000000000000e+00  4.0206353657382210e+03 3.4788982584352666e+03 0.0000000000000000e+00 3.4788982584352702e+03 3.8358372338292838e+03 0.0000000000000000e+00 0.0000000000000000e+00 0.0000000000000000e+00 0.0000000000000000e+00  3.2605343807762529e+03 5.3746476452338820e+03 0.0000000000000000e+00 5.3746476452338957e+03 8.7240296239591335e+03 0.0000000000000000e+00 0.0000000000000000e+00 0.0000000000000000e+00 0.0000000000000000e+00  2.3110917562204518e+03 3.3341081706601294e+03 0.0000000000000000e+00 3.3341081706601308e+03 1.3093735150273331e+04 0.0000000000000000e+00 0.0000000000000000e+00 0.0000000000000000e+00 0.0000000000000000e+00  5.2390212549469027e+02 -4.1510699916115396e+02 0.0000000000000000e+00 -4.1510699916115431e+02 5.7704430560454293e+03 0.0000000000000000e+00 0.0000000000000000e+00 0.0000000000000000e+00 0.0000000000000000e+00  -1.0425623506635243e+02 7.8454260204645607e+01 0.0000000000000000e+00 7.8454260204645479e+01 5.0305798380692431e+03 0.0000000000000000e+00 0.0000000000000000e+00 0.0000000000000000e+00 0.0000000000000000e+00  3.4716961225572123e+02 -2.5498865323540649e+01 0.0000000000000000e+00 -2.5498865323540631e+01 3.8115155631896387e+03 0.0000000000000000e+00 0.0000000000000000e+00 0.0000000000000000e+00 0.0000000000000000e+00  -8.6015934592269033e+01 6.7157615893569158e+01 0.0000000000000000e+00 6.7157615893569101e+01 3.1884030201538753e+03 0.0000000000000000e+00 0.0000000000000000e+00 0.0000000000000000e+00 0.0000000000000000e+00  5.4759944761926683e+01 4.4545155662576519e+01 0.0000000000000000e+00 4.4545155662576441e+01 2.5310060368100567e+03 0.0000000000000000e+00 0.0000000000000000e+00 0.0000000000000000e+00 0.0000000000000000e+00  -2.0344171287125988e+02 3.7127662290344347e+01 0.0000000000000000e+00 3.7127662290344347e+01 1.9430454422049345e+03 0.0000000000000000e+00 0.0000000000000000e+00 0.0000000000000000e+00 0.0000000000000000e+00  -2.6731545302638028e+02 1.1835789163751953e+01 0.0000000000000000e+00 1.1835789163751958e+01 1.4284810024377080e+03 0.0000000000000000e+00 0.0000000000000000e+00 0.0000000000000000e+00 0.0000000000000000e+00  -4.0773985198395417e+02 8.7433763800771800e+00 0.0000000000000000e+00 8.7433763800771800e+00 8.9389483636808109e+02 0.0000000000000000e+00 0.0000000000000000e+00 0.0000000000000000e+00 0.0000000000000000e+00  -4.2386077784648677e+02 1.2181893349838202e+01 0.0000000000000000e+00 1.2181893349838191e+01 3.5689726492858938e+02 0.0000000000000000e+00 0.0000000000000000e+00 0.0000000000000000e+00 0.0000000000000000e+00  -4.8735700365054481e+02 1.9227087285826499e+01 0.0000000000000000e+00 1.9227087285826418e+01 -6.8243121999799286e+01 0.0000000000000000e+00 0.0000000000000000e+00 0.0000000000000000e+00 0.0000000000000000e+00  -6.1173150935971955e+02 1.6576029791817760e+01 0.0000000000000000e+00 1.6576029791817668e+01 -2.5156066659899579e+02 0.0000000000000000e+00 0.0000000000000000e+00 0.0000000000000000e+00 0.0000000000000000e+00  -7.1403134642374857e+02 -4.0651232695327799e-01 0.0000000000000000e+00 -4.0651232695324457e-01 -2.6127272227472884e+02 0.0000000000000000e+00 0.0000000000000000e+00 0.0000000000000000e+00 0.0000000000000000e+00  -7.9462460944074837e+02 5.6057897066056341e+00 0.0000000000000000e+00 5.6057897066055498e+00 -1.4599836552748661e+02 0.0000000000000000e+00 0.0000000000000000e+00 0.0000000000000000e+00 0.0000000000000000e+00  -8.5406757098314552e+02 -1.1271906245669548e+01 0.0000000000000000e+00 -1.1271906245669483e+01 1.0240932736082185e+02 0.0000000000000000e+00 0.0000000000000000e+00 0.0000000000000000e+00 0.0000000000000000e+00  -1.0180448943580097e+03 8.2840158898642287e+00 0.0000000000000000e+00 8.2840158898638823e+00 6.5043611134978551e+02 0.0000000000000000e+00 0.0000000000000000e+00 0.0000000000000000e+00 0.0000000000000000e+00  -1.4635468376517342e+03 2.9173406763128732e+01 0.0000000000000000e+00 2.9173406763128526e+01 1.4205171276428946e+03 0.0000000000000000e+00 0.0000000000000000e+00 0.0000000000000000e+00 0.0000000000000000e+00  -2.1584929078197360e+03 9.3293093146434956e+01 0.0000000000000000e+00 9.3293093146435538e+01 2.0854834209954511e+03 0.0000000000000000e+00 0.0000000000000000e+00 0.0000000000000000e+00 0.0000000000000000e+00  -2.4763593374068564e+03 -8.7446587184044347e+01 0.0000000000000000e+00 -8.7446587184044262e+01 1.3391916061490699e+03 0.0000000000000000e+00 0.0000000000000000e+00 0.0000000000000000e+00 0.0000000000000000e+00  -1.9498395551993351e+03 1.9571782351754269e+01 0.0000000000000000e+00 1.9571782351754297e+01 -3.2917305653402207e+02 0.0000000000000000e+00 0.0000000000000000e+00 0.0000000000000000e+00 0.0000000000000000e+00  -2.1575422269864002e+03 7.0755966346066614e+01 0.0000000000000000e+00 7.0755966346066856e+01 5.5001221743528595e+02 0.0000000000000000e+00 0.0000000000000000e+00 0.0000000000000000e+00 0.0000000000000000e+00  -1.8185707131800330e+03 -6.9825833545396364e+01 0.0000000000000000e+00 -6.9825833545396108e+01 1.5067179409961202e+03 0.0000000000000000e+00 0.0000000000000000e+00 0.0000000000000000e+00 0.0000000000000000e+00  -1.0118167126333580e+03 -6.6862090084125796e+01 0.0000000000000000e+00 -6.6862090084126166e+01 8.8706164932278682e+02 0.0000000000000000e+00 0.0000000000000000e+00 0.0000000000000000e+00 0.0000000000000000e+00  -1.0523867931302684e+02 -3.9416160998342967e+01 0.0000000000000000e+00 -3.9416160998342704e+01 5.9163655589595817e+02 0.0000000000000000e+00 0.0000000000000000e+00 0.0000000000000000e+00 0.0000000000000000e+00  1.0639521956886261e+02 -2.1227425105656529e+01 0.0000000000000000e+00 -2.1227425105656522e+01 7.6606205480257154e+02 0.0000000000000000e+00 0.0000000000000000e+00 0.0000000000000000e+00 0.0000000000000000e+00  2.2963273376961567e+02 -2.2038553298410751e+01 0.0000000000000000e+00 -2.2038553298410658e+01 1.5070811878935651e+03 0.0000000000000000e+00 0.0000000000000000e+00 0.0000000000000000e+00 0.0000000000000000e+00  1.9114405957208814e+02 -3.4741011490814998e+01 0.0000000000000000e+00 -3.4741011490815033e+01 2.4486931281432903e+03 0.0000000000000000e+00 0.0000000000000000e+00 0.0000000000000000e+00 0.0000000000000000e+00  2.6127776676629344e+02 -3.7108510758779801e+01 0.0000000000000000e+00 -3.7108510758779786e+01 3.6046762598323739e+03 0.0000000000000000e+00 0.0000000000000000e+00 0.0000000000000000e+00 0.0000000000000000e+00  3.9719185276316288e+01 -2.3558225740115688e+01 0.0000000000000000e+00 -2.3558225740115791e+01 4.8953819712888817e+03 0.0000000000000000e+00 0.0000000000000000e+00 0.0000000000000000e+00 0.0000000000000000e+00  1.1119022378526995e+02 -3.6857434908505432e+01 0.0000000000000000e+00 -3.6857434908505454e+01 6.0743075264787112e+03 0.0000000000000000e+00 0.0000000000000000e+00 0.0000000000000000e+00 0.0000000000000000e+00  8.5061718682945351e+00 5.3933625883527768e+01 0.0000000000000000e+00 5.3933625883527746e+01 7.6825870829139894e+03 0.0000000000000000e+00 0.0000000000000000e+00 0.0000000000000000e+00 0.0000000000000000e+00  -1.2553041173177375e+00 2.2075493209511585e+01 0.0000000000000000e+00 2.2075493209511698e+01 7.9566338362346505e+03 0.0000000000000000e+00 0.0000000000000000e+00 0.0000000000000000e+00 0.0000000000000000e+00  -1.8344486277523349e+00 3.4512231296067093e+01 0.0000000000000000e+00 3.4512231296067363e+01 8.0991813654968109e+03 0.0000000000000000e+00 0.0000000000000000e+00 0.0000000000000000e+00 0.0000000000000000e+00  -2.0541210189899584e+01 1.6645910110840013e+01 0.0000000000000000e+00 1.6645910110839917e+01 8.3110279405124238e+03 0.0000000000000000e+00 0.0000000000000000e+00 0.0000000000000000e+00 0.0000000000000000e+00  3.4600518158505231e+01 4.6327029040258756e+00 0.0000000000000000e+00 4.6327029040258116e+00 8.6472290566070515e+03 0.0000000000000000e+00 0.0000000000000000e+00 0.0000000000000000e+00 0.0000000000000000e+00  -5.6537456825830175e+00 1.0183287715834166e+02 0.0000000000000000e+00 1.0183287715834122e+02 8.7905757278383007e+03 0.0000000000000000e+00 0.0000000000000000e+00 0.0000000000000000e+00 0.0000000000000000e+00  -6.3726156184223662e+01 1.0218620053601845e+02 0.0000000000000000e+00 1.0218620053601825e+02 9.6211300391733748e+03 0.0000000000000000e+00 0.0000000000000000e+00 0.0000000000000000e+00 0.0000000000000000e+00  -8.5541393896267390e+00 1.6149620921643455e+02 0.0000000000000000e+00 1.6149620921643432e+02 1.0571437321805914e+04 0.0000000000000000e+00 0.0000000000000000e+00 0.0000000000000000e+00 0.0000000000000000e+00  -1.2113252385896553e+01 1.0337555061911003e+02 0.0000000000000000e+00 1.0337555061910975e+02 1.1704294989679092e+04 0.0000000000000000e+00 0.0000000000000000e+00 0.0000000000000000e+00 0.0000000000000000e+00  1.0425923438131902e+02 -2.2753332372427518e+01 0.0000000000000000e+00 -2.2753332372427899e+01 1.2137245868494647e+04 0.0000000000000000e+00 0.0000000000000000e+00 0.0000000000000000e+00 0.0000000000000000e+00  2.9597605157591687e+01 -2.2744922653707738e+02 0.0000000000000000e+00 -2.2744922653707656e+02 1.1992455905789579e+04 0.0000000000000000e+00 0.0000000000000000e+00 0.0000000000000000e+00 0.0000000000000000e+00  -1.8080584056808834e+02 -7.6197242026676327e+02 0.0000000000000000e+00 -7.6197242026676247e+02 9.3981675551823282e+03 0.0000000000000000e+00 0.0000000000000000e+00 0.0000000000000000e+00 0.0000000000000000e+00  1.0112737406026281e+03 1.6383152721820289e+02 0.0000000000000000e+00 1.6383152721820375e+02 3.3235358552475350e+03 0.0000000000000000e+00 0.0000000000000000e+00 0.0000000000000000e+00 0.0000000000000000e+00  9.6704389435029407e+02 1.4264801314388028e+03 0.0000000000000000e+00 1.4264801314388028e+03 3.3404215358707747e+03 0.0000000000000000e+00 0.0000000000000000e+00 0.0000000000000000e+00 0.0000000000000000e+00  3.9568376839970000e+02 5.4052997631725553e+01 0.0000000000000000e+00 5.4052997631725717e+01 1.2085732219560055e+04 0.0000000000000000e+00 0.0000000000000000e+00 0.0000000000000000e+00 0.0000000000000000e+00  1.5641808637777203e+03 -2.3362316939910329e+02 0.0000000000000000e+00 -2.3362316939910394e+02 1.3592733933971205e+04 0.0000000000000000e+00 0.0000000000000000e+00 0.0000000000000000e+00 0.0000000000000000e+00  1.9539164479540646e+03 -8.7872757183611077e+02 0.0000000000000000e+00 -8.7872757183611157e+02 1.3684779937721252e+04 0.0000000000000000e+00 0.0000000000000000e+00 0.0000000000000000e+00 0.0000000000000000e+00  -1.8145931558805316e+03 -2.9554732796248601e+02 0.0000000000000000e+00 -2.9554732796248595e+02 9.3435715349524453e+03 0.0000000000000000e+00 0.0000000000000000e+00 0.0000000000000000e+00 0.0000000000000000e+00  2.6342024662416907e+02 4.7201519355032656e+02 0.0000000000000000e+00 4.7201519355032679e+02 1.2018003178732970e+04 0.0000000000000000e+00 0.0000000000000000e+00 0.0000000000000000e+00 0.0000000000000000e+00  3.0492769689870028e+02 -4.2381951474344334e+02 0.0000000000000000e+00 -4.2381951474344379e+02 1.1575919657955799e+04 0.0000000000000000e+00 0.0000000000000000e+00 0.0000000000000000e+00 0.0000000000000000e+00  -1.6900420271552170e+02 -3.8061197833131973e+02 0.0000000000000000e+00 -3.8061197833131934e+02 8.5346400292144481e+03 0.0000000000000000e+00 0.0000000000000000e+00 0.0000000000000000e+00 0.0000000000000000e+00  1.1721102214517782e+02 4.5064409709484368e+00 0.0000000000000000e+00 4.5064409709480060e+00 7.6997709420624205e+03 0.0000000000000000e+00 0.0000000000000000e+00 0.0000000000000000e+00 0.0000000000000000e+00  -8.5874224801437691e+01 -3.6276667492078865e+01 0.0000000000000000e+00 -3.6276667492078758e+01 7.4653572649924581e+03 0.0000000000000000e+00 0.0000000000000000e+00 0.0000000000000000e+00 0.00000000