<?xml version="1.0"?>
<VTKFile type="UnstructuredGrid"  version="0.1"  >
<UnstructuredGrid>
<Piece  NumberOfPoints="3879" NumberOfCells="6881">
<Points>
<DataArray  type="Float64"  NumberOfComponents="3"  format="ascii">0.207524190028372 0.2122422770132111 0  0 0 0  1 0 0  0 1 0  1 1 0  0.6249674373315121 0.2590146544375328 0  0.204663578893616 0.322657230836866 0  0.09605577522599912 0.4018360776629776 0  0.671351124618251 0.08738059142081528 0  0.7842102907526436 0.1666439122351055 0  0.8512483166984784 0.1985391006160637 0  0.6418797837909295 0.4423157172830166 0  0.9292488447973215 0.3869277868069776 0  0.3197896119137055 0.5509935221980964 0  0.3979283685568406 0.5079871620336583 0  0.1572503457993085 0.7345153245035532 0  0.3032914287999163 0.7872981443735918 0  0.3549464687598876 0.8870324161721976 0  0.9691791685505482 0.5159450047798622 0  0.9447564590470373 0.6146164845729313 0  0.7687603548175107 0.7176858127488035 0  0.8926159261971183 0.7422924070424508 0  0.2061587782631535 0.2217389244366831 0  0.2021731605082994 0.2304662099646423 0  0.1958902278109265 0.2377171008267789 0  0.1878189860121365 0.2429041729681512 0  0.1786133191209442 0.2456072006525708 0  0.1690190155206647 0.2456072006525708 0  0.1598133486294724 0.2429041729681512 0  0.1517421068306824 0.2377171008267789 0  0.1454591741333096 0.2304662099646422 0  0.1414735563784554 0.221738924436683 0  0.1401081446132369 0.212242277013211 0  0.1414735563784555 0.202745629589739 0  0.1454591741333096 0.1940183440617798 0  0.1517421068306825 0.1867674531996431 0  0.1598133486294725 0.1815803810582709 0  0.1690190155206649 0.1788773533738513 0  0.1786133191209443 0.1788773533738514 0  0.1878189860121367 0.181580381058271 0  0.1958902278109266 0.1867674531996433 0  0.2021731605082994 0.19401834406178 0  0.2061587782631535 0.2027456295897391 0  0.03333333333333333 0 0  0.06666666666666667 0 0  0.1 0 0  0.1333333333333333 0 0  0.1666666666666667 0 0  0.2 0 0  0.2333333333333333 0 0  0.2666666666666667 0 0  0.3 0 0  0.3333333333333333 0 0  0.3666666666666666 0 0  0.4 0 0  0.4333333333333333 0 0  0.4666666666666667 0 0  0.5 0 0  0.5333333333333333 0 0  0.5666666666666667 0 0  0.6 0 0  0.6333333333333333 0 0  0.6666666666666666 0 0  0.7 0 0  0.7333333333333333 0 0  0.7666666666666667 0 0  0.8 0 0  0.8333333333333334 0 0  0.8666666666666667 0 0  0.9 0 0  0.9333333333333333 0 0  0.9666666666666667 0 0  0 0.9666666666666667 0  0 0.9333333333333333 0  0 0.9 0  0 0.8666666666666667 0  0 0.8333333333333334 0  0 0.8 0  0 0.7666666666666666 0  0 0.7333333333333334 0  0 0.7 0  0 0.6666666666666667 0  0 0.6333333333333333 0  0 0.6 0  0 0.5666666666666667 0  0 0.5333333333333333 0  0 0.5 0  0 0.4666666666666667 0  0 0.4333333333333333 0  0 0.4 0  0 0.3666666666666667 0  0 0.3333333333333334 0  0 0.3 0  0 0.2666666666666667 0  0 0.2333333333333333 0  0 0.2 0  0 0.1666666666666666 0  0 0.1333333333333333 0  0 0.09999999999999998 0  0 0.06666666666666665 0  0 0.03333333333333333 0  1 0.03333333333333333 0  1 0.06666666666666667 0  1 0.1 0  1 0.1333333333333333 0  1 0.1666666666666667 0  1 0.2 0  1 0.2333333333333333 0  1 0.2666666666666667 0  1 0.3 0  1 0.3333333333333333 0  1 0.3666666666666666 0  1 0.4 0  1 0.4333333333333333 0  1 0.4666666666666667 0  1 0.5 0  1 0.5333333333333333 0  1 0.5666666666666667 0  1 0.6 0  1 0.6333333333333333 0  1 0.6666666666666666 0  1 0.7 0  1 0.7333333333333333 0  1 0.7666666666666667 0  1 0.8 0  1 0.8333333333333334 0  1 0.8666666666666667 0  1 0.9 0  1 0.9333333333333333 0  1 0.9666666666666667 0  0.9666666666666667 1 0  0.9333333333333333 1 0  0.9 1 0  0.8666666666666667 1 0  0.8333333333333334 1 0  0.8 1 0  0.7666666666666666 1 0  0.7333333333333334 1 0  0.7 1 0  0.6666666666666667 1 0  0.6333333333333333 1 0  0.6 1 0  0.5666666666666667 1 0  0.5333333333333333 1 0  0.5 1 0  0.4666666666666667 1 0  0.4333333333333333 1 0  0.4 1 0  0.3666666666666667 1 0  0.3333333333333334 1 0  0.3 1 0  0.2666666666666667 1 0  0.2333333333333333 1 0  0.2 1 0  0.1666666666666666 1 0  0.1333333333333333 1 0  0.09999999999999998 1 0  0.06666666666666665 1 0  0.03333333333333333 1 0  0.6247072676344306 0.2689501343248463 0  0.6239274716502419 0.2788583817523955 0  0.6226301867455355 0.2887122389026952 0  0.6208189686880621 0.2984846970382296 0  0.6184987819006211 0.3081489705305245 0  0.6156759858539226 0.317678570277693 0  0.6123583176357204 0.3270473763092224 0  0.6085548707439923 0.3362297093789981 0  0.6042760701622942 0.3452004013503318 0  0.5995336437856049 0.3539348641800754 0  0.5943405902749808 0.3624091573127375 0  0.5887111434291297 0.3706000532998825 0  0.582660733170558 0.3784851014649517 0  0.5762059432532257 0.3860426894390078 0  0.5693644658076293 0.3932521023987353 0  0.5621550528479018 0.4000935798443317 0  0.5545974648738458 0.4065483697616639 0  0.5467124167087765 0.4125987800202355 0  0.5385215207216315 0.4182282268660866 0  0.5300472275889694 0.4234212803767108 0  0.5213127647592257 0.4281637067534002 0  0.512342072787892 0.4324425073350981 0  0.5031597397181163 0.4362459542268262 0  0.493790933686587 0.4395636224450283 0  0.4842613339394185 0.4423864184917269 0  0.4745970604471235 0.4447066052791678 0  0.4648246023115891 0.4465178233366412 0  0.4549707451612894 0.4478151082413475 0  0.4450624977337403 0.4485949042255363 0  0.4351270178464268 0.4488550739226177 0  0.4251915379591132 0.4485949042255363 0  0.4152832905315641 0.4478151082413475 0  0.4054294333812644 0.4465178233366411 0  0.39565697524573 0.4447066052791677 0  0.385992701753435 0.4423864184917267 0  0.3764631020062665 0.4395636224450281 0  0.3670942959747371 0.4362459542268259 0  0.3579119629049616 0.4324425073350978 0  0.3489412709336278 0.4281637067533998 0  0.3402068081038843 0.4234212803767103 0  0.3317325149712221 0.4182282268660862 0  0.3235416189840771 0.412598780020235 0  0.3156565708190078 0.4065483697616634 0  0.3080989828449519 0.4000935798443311 0  0.3008895698852244 0.3932521023987346 0  0.2940480924396279 0.3860426894390071 0  0.2875933025222958 0.3784851014649511 0  0.2815428922637242 0.3706000532998818 0  0.2759134454178731 0.3624091573127368 0  0.2707203919072489 0.3539348641800746 0  0.2659779655305596 0.3452004013503309 0  0.2616991649488616 0.3362297093789972 0  0.2578957180571336 0.3270473763092215 0  0.2545780498389315 0.3176785702776921 0  0.251755253792233 0.3081489705305236 0  0.249435067004792 0.2984846970382286 0  0.2476238489473186 0.2887122389026941 0  0.2463265640426123 0.2788583817523945 0  0.2455467680584236 0.2689501343248454 0  0.2452865983613423 0.2590146544375318 0  0.2455467680584237 0.2490791745502182 0  0.2463265640426126 0.2391709271226692 0  0.247623848947319 0.2293170699723696 0  0.2494350670047924 0.2195446118368351 0  0.2517552537922335 0.2098803383445402 0  0.2545780498389321 0.2003507385973717 0  0.2578957180571343 0.1909819325658423 0  0.2616991649488624 0.1817995994960667 0  0.2659779655305604 0.172828907524733 0  0.2707203919072498 0.1640944446949895 0  0.2759134454178741 0.1556201515623273 0  0.2815428922637251 0.1474292555751825 0  0.2875933025222969 0.1395442074101132 0  0.2940480924396291 0.1319866194360571 0  0.3008895698852256 0.1247772064763297 0  0.3080989828449531 0.1179357290307334 0  0.3156565708190092 0.1114809391134012 0  0.3235416189840785 0.1054305288548295 0  0.3317325149712236 0.09980108200897844 0  0.3402068081038856 0.0946080284983544 0  0.3489412709336291 0.08986560212166514 0  0.357911962904963 0.08558680153996717 0  0.3670942959747386 0.08178335464823916 0  0.3764631020062678 0.07846568643003712 0  0.3859927017534364 0.0756428903833386 0  0.3956569752457313 0.0733227035958976 0  0.4054294333812659 0.07151148553842429 0  0.4152832905315654 0.07021420063371797 0  0.4251915379591144 0.0694344046495293 0  0.435127017846428 0.0691742349524479 0  0.4450624977337415 0.06943440464952938 0  0.4549707451612905 0.07021420063371814 0  0.4648246023115901 0.07151148553842454 0  0.4745970604471245 0.07332270359589793 0  0.4842613339394195 0.07564289038333902 0  0.4937909336865879 0.07846568643003757 0  0.5031597397181173 0.0817833546482398 0  0.5123420727878929 0.08558680153996781 0  0.5213127647592265 0.08986560212166581 0  0.53004722758897 0.0946080284983552 0  0.5385215207216321 0.09980108200897933 0  0.5467124167087771 0.1054305288548305 0  0.5545974648738462 0.1114809391134021 0  0.5621550528479023 0.1179357290307343 0  0.5693644658076298 0.1247772064763308 0  0.576205943253226 0.1319866194360582 0  0.5826607331705582 0.1395442074101142 0  0.5887111434291299 0.1474292555751835 0  0.594340590274981 0.1556201515623285 0  0.5995336437856051 0.1640944446949906 0  0.6042760701622945 0.172828907524734 0  0.6085548707439925 0.1817995994960678 0  0.6123583176357205 0.1909819325658435 0  0.6156759858539227 0.2003507385973728 0  0.6184987819006211 0.2098803383445412 0  0.6208189686880622 0.2195446118368362 0  0.6226301867455355 0.2293170699723706 0  0.6239274716502419 0.2391709271226702 0  0.6247072676344306 0.2490791745502192 0  0.203885768735257 0.3325402459548524 0  0.2015714905276826 0.3421799084407872 0  0.1977777294810124 0.3513388578120612 0  0.1925979005829864 0.3597915703383434 0  0.1861595484119405 0.3673299121842922 0  0.1786212065659918 0.373768264355338 0  0.1701684940397096 0.378948093253364 0  0.1610095446684356 0.3827418543000342 0  0.1513698821825007 0.3850561325076086 0  0.1414868670645144 0.3858339426659677 0  0.1316038519465281 0.3850561325076086 0  0.1219641894605933 0.3827418543000343 0  0.1128052400893193 0.378948093253364 0  0.1043525275630371 0.3737682643553381 0  0.09681418571708833 0.3673299121842922 0  0.09037583354604248 0.3597915703383434 0  0.08519600464801645 0.3513388578120612 0  0.08140224360134621 0.3421799084407872 0  0.07908796539377183 0.3325402459548523 0  0.07831015523541281 0.3226572308368659 0  0.07908796539377186 0.3127742157188796 0  0.08140224360134626 0.3031345532329447 0  0.08519600464801655 0.2939756038616707 0  0.0903758335460426 0.2855228913353884 0  0.0968141857
[...]
<PointData  Tensors="$\sigma$"> 
<DataArray  type="Float64"  Name="$\sigma$"  NumberOfComponents="9" format="ascii">1.3809641412249670e+02 3.4542661217613123e+01 0.0000000000000000e+00 3.4542661217613215e+01 9.6776086388814347e+03 0.0000000000000000e+00 0.0000000000000000e+00 0.0000000000000000e+00 0.0000000000000000e+00  1.1629922470588263e+03 1.0055245135659801e+02 0.0000000000000000e+00 1.0055245135659814e+02 4.8158185923866567e+03 0.0000000000000000e+00 0.0000000000000000e+00 0.0000000000000000e+00 0.0000000000000000e+00  -2.2744131033402727e+01 -1.9987816108333483e+01 0.0000000000000000e+00 -1.9987816108333448e+01 5.1408738497560616e+03 0.0000000000000000e+00 0.0000000000000000e+00 0.0000000000000000e+00 0.0000000000000000e+00  7.2997605362239293e+00 -4.4165319090732948e+00 0.0000000000000000e+00 -4.4165319090733473e+00 4.9847428717927151e+03 0.0000000000000000e+00 0.0000000000000000e+00 0.0000000000000000e+00 0.0000000000000000e+00  8.6889261649143634e+00 1.0258713522456738e+01 0.0000000000000000e+00 1.0258713522456741e+01 4.6976381553373358e+03 0.0000000000000000e+00 0.0000000000000000e+00 0.0000000000000000e+00 0.0000000000000000e+00  7.9878506419401319e+01 8.2164114528421976e+01 0.0000000000000000e+00 8.2164114528422857e+01 9.6780080861102542e+03 0.0000000000000000e+00 0.0000000000000000e+00 0.0000000000000000e+00 0.0000000000000000e+00  -8.1183725720971736e+01 2.3598753008848044e+02 0.0000000000000000e+00 2.3598753008848044e+02 2.4653198424852772e+02 0.0000000000000000e+00 0.0000000000000000e+00 0.0000000000000000e+00 0.0000000000000000e+00  6.1023672627232054e+02 3.8960442864081364e+02 0.0000000000000000e+00 3.8960442864081358e+02 1.0377918341020282e+04 0.0000000000000000e+00 0.0000000000000000e+00 0.0000000000000000e+00 0.0000000000000000e+00  2.1924840611961255e+02 -3.0725849108877588e+02 0.0000000000000000e+00 -3.0725849108877657e+02 9.6952361955411634e+03 0.0000000000000000e+00 0.0000000000000000e+00 0.0000000000000000e+00 0.0000000000000000e+00  -2.5792711991252315e+02 8.6785824708044728e+01 0.0000000000000000e+00 8.6785824708045425e+01 -1.4506741930413165e+02 0.0000000000000000e+00 0.0000000000000000e+00 0.0000000000000000e+00 0.0000000000000000e+00  1.7551184246507634e+00 -3.5406852344213988e+01 0.0000000000000000e+00 -3.5406852344213931e+01 -1.2013175662495193e+02 0.0000000000000000e+00 0.0000000000000000e+00 0.0000000000000000e+00 0.0000000000000000e+00  1.1782848926428578e+02 3.9897519053697607e+02 0.0000000000000000e+00 3.9897519053697664e+02 5.3830838063297606e+03 0.0000000000000000e+00 0.0000000000000000e+00 0.0000000000000000e+00 0.0000000000000000e+00  3.3444362780567999e+01 5.5540028503884812e+01 0.0000000000000000e+00 5.5540028503884415e+01 1.2160389505470863e+04 0.0000000000000000e+00 0.0000000000000000e+00 0.0000000000000000e+00 0.0000000000000000e+00  5.9859088717684394e+01 1.1462961192760309e+02 0.0000000000000000e+00 1.1462961192760298e+02 9.9670588220445024e+03 0.0000000000000000e+00 0.0000000000000000e+00 0.0000000000000000e+00 0.0000000000000000e+00  -8.9958990368448127e+01 -2.0110155990317074e+02 0.0000000000000000e+00 -2.0110155990317025e+02 -1.1794008206851238e+03 0.0000000000000000e+00 0.0000000000000000e+00 0.0000000000000000e+00 0.0000000000000000e+00  -2.0212136394284326e+02 -1.7706414887516908e+02 0.0000000000000000e+00 -1.7706414887516877e+02 -7.0121942974124659e+02 0.0000000000000000e+00 0.0000000000000000e+00 0.0000000000000000e+00 0.0000000000000000e+00  5.2667949726197755e+01 -1.2522165761256674e+02 0.0000000000000000e+00 -1.2522165761256710e+02 6.2594899603433296e+03 0.0000000000000000e+00 0.0000000000000000e+00 0.0000000000000000e+00 0.0000000000000000e+00  1.2228968216866524e+02 9.5661192714766656e+01 0.0000000000000000e+00 9.5661192714766656e+01 7.5010864247343179e+03 0.0000000000000000e+00 0.0000000000000000e+00 0.0000000000000000e+00 0.0000000000000000e+00  4.8916911848633154e+03 5.9172124385035852e+02 0.0000000000000000e+00 5.9172124385035841e+02 1.7656193577733364e+04 0.0000000000000000e+00 0.0000000000000000e+00 0.0000000000000000e+00 0.0000000000000000e+00  2.6793029920288984e+02 -3.2398233015783171e+02 0.0000000000000000e+00 -3.2398233015783200e+02 1.1578355347700826e+04 0.0000000000000000e+00 0.0000000000000000e+00 0.0000000000000000e+00 0.0000000000000000e+00  4.2270051100157872e+01 1.5614414799866012e+02 0.0000000000000000e+00 1.5614414799865929e+02 7.3990713029935378e+03 0.0000000000000000e+00 0.0000000000000000e+00 0.0000000000000000e+00 0.0000000000000000e+00  1.2602897626701196e+02 1.5956444742829781e+01 0.0000000000000000e+00 1.5956444742829531e+01 3.9262543914115490e+03 0.0000000000000000e+00 0.0000000000000000e+00 0.0000000000000000e+00 0.0000000000000000e+00  4.7609311468576220e+02 -1.3052612509701323e+03 0.0000000000000000e+00 -1.3052612509701326e+03 6.0771186145972160e+03 0.0000000000000000e+00 0.0000000000000000e+00 0.0000000000000000e+00 0.0000000000000000e+00  -2.3990787689336895e+02 -4.1606750126992864e+02 0.0000000000000000e+00 -4.1606750126992847e+02 1.6379046009341230e+03 0.0000000000000000e+00 0.0000000000000000e+00 0.0000000000000000e+00 0.0000000000000000e+00  -1.7726228286235446e+03 1.1447684109672864e+03 0.0000000000000000e+00 1.1447684109672875e+03 -7.7968618932879167e+02 0.0000000000000000e+00 0.0000000000000000e+00 0.0000000000000000e+00 0.0000000000000000e+00  -3.7490584223348746e+03 1.3530484678719745e+03 0.0000000000000000e+00 1.3530484678719758e+03 -7.6203173902165793e+02 0.0000000000000000e+00 0.0000000000000000e+00 0.0000000000000000e+00 0.0000000000000000e+00  -2.8578222749901529e+03 7.7308724791641544e+02 0.0000000000000000e+00 7.7308724791641441e+02 -4.8117015054676182e+02 0.0000000000000000e+00 0.0000000000000000e+00 0.0000000000000000e+00 0.0000000000000000e+00  1.2568426183648819e+03 1.9901709200325768e+03 0.0000000000000000e+00 1.9901709200325747e+03 1.2618143725020382e+03 0.0000000000000000e+00 0.0000000000000000e+00 0.0000000000000000e+00 0.0000000000000000e+00  6.3436812935065773e+03 4.0933915544983529e+03 0.0000000000000000e+00 4.0933915544983474e+03 2.3112088859156988e+03 0.0000000000000000e+00 0.0000000000000000e+00 0.0000000000000000e+00 0.0000000000000000e+00  6.3000516512166105e+03 4.9520708589621890e+03 0.0000000000000000e+00 4.9520708589621945e+03 4.5930930078457623e+03 0.0000000000000000e+00 0.0000000000000000e+00 0.0000000000000000e+00 0.0000000000000000e+00  2.8239583422149753e+03 3.7907401009311761e+03 0.0000000000000000e+00 3.7907401009311793e+03 5.3004810152604668e+03 0.0000000000000000e+00 0.0000000000000000e+00 0.0000000000000000e+00 0.0000000000000000e+00  1.0094630326367061e+03 1.6679177454385135e+03 0.0000000000000000e+00 1.6679177454385151e+03 4.4295365826644174e+03 0.0000000000000000e+00 0.0000000000000000e+00 0.0000000000000000e+00 0.0000000000000000e+00  7.0886043918573179e+01 2.6481360028552183e+02 0.0000000000000000e+00 2.6481360028552194e+02 3.7886053710232359e+03 0.0000000000000000e+00 0.0000000000000000e+00 0.0000000000000000e+00 0.0000000000000000e+00  1.7317467167767938e+02 -3.1777515802559651e+02 0.0000000000000000e+00 -3.1777515802559617e+02 1.8333389002025772e+03 0.0000000000000000e+00 0.0000000000000000e+00 0.0000000000000000e+00 0.0000000000000000e+00  -1.5374336168921084e+02 1.1237191327867492e+02 0.0000000000000000e+00 1.1237191327867441e+02 1.9157853453280552e+02 0.0000000000000000e+00 0.0000000000000000e+00 0.0000000000000000e+00 0.0000000000000000e+00  -1.1880578779055629e+03 8.5932402231286005e+02 0.0000000000000000e+00 8.5932402231286221e+02 -6.3162306124422719e+02 0.0000000000000000e+00 0.0000000000000000e+00 0.0000000000000000e+00 0.0000000000000000e+00  -2.3292169670845146e+03 9.2729939905385515e+02 0.0000000000000000e+00 9.2729939905385390e+02 -5.8541030638211839e+02 0.0000000000000000e+00 0.0000000000000000e+00 0.0000000000000000e+00 0.0000000000000000e+00  -2.4236511644710363e+03 4.9885858895063359e+02 0.0000000000000000e+00 4.9885858895063274e+02 -3.1649144942056824e+02 0.0000000000000000e+00 0.0000000000000000e+00 0.0000000000000000e+00 0.0000000000000000e+00  -1.1003562273874202e+03 2.4768025115046839e+01 0.0000000000000000e+00 2.4768025115046790e+01 7.2998702202319762e+01 0.0000000000000000e+00 0.0000000000000000e+00 0.0000000000000000e+00 0.0000000000000000e+00  1.2518715468502915e+03 8.8158056989961904e+02 0.0000000000000000e+00 8.8158056989961995e+02 5.0606536090416142e+02 0.0000000000000000e+00 0.0000000000000000e+00 0.0000000000000000e+00 0.0000000000000000e+00  2.5706041161075432e+03 2.2747629098989510e+03 0.0000000000000000e+00 2.2747629098989532e+03 2.6212067319085504e+03 0.0000000000000000e+00 0.0000000000000000e+00 0.0000000000000000e+00 0.0000000000000000e+00  2.1829733062242649e+03 3.4984680550882435e+03 0.0000000000000000e+00 3.4984680550882476e+03 5.9031551001081616e+03 0.0000000000000000e+00 0.0000000000000000e+00 0.0000000000000000e+00 0.0000000000000000e+00  1.3483419563796945e+03 2.2284020804928441e+03 0.0000000000000000e+00 2.2284020804928455e+03 8.8583679118000891e+03 0.0000000000000000e+00 0.0000000000000000e+00 0.0000000000000000e+00 0.0000000000000000e+00  4.0485155343664007e+02 -2.8372868796945608e+02 0.0000000000000000e+00 -2.8372868796945625e+02 4.0472455505323305e+03 0.0000000000000000e+00 0.0000000000000000e+00 0.0000000000000000e+00 0.0000000000000000e+00  -8.0291063616053123e+01 4.2149364134546929e+01 0.0000000000000000e+00 4.2149364134546857e+01 3.5467800576123736e+03 0.0000000000000000e+00 0.0000000000000000e+00 0.0000000000000000e+00 0.0000000000000000e+00  2.4057859095646560e+02 -3.2086579020110273e+00 0.0000000000000000e+00 -3.2086579020109962e+00 2.7273706770496560e+03 0.0000000000000000e+00 0.0000000000000000e+00 0.0000000000000000e+00 0.0000000000000000e+00  -6.3305321975488740e+00 3.5980332423217675e+01 0.0000000000000000e+00 3.5980332423217703e+01 2.2986459319915029e+03 0.0000000000000000e+00 0.0000000000000000e+00 0.0000000000000000e+00 0.0000000000000000e+00  8.4899147208460903e+01 3.4834822290274857e+01 0.0000000000000000e+00 3.4834822290274815e+01 1.8183569590520149e+03 0.0000000000000000e+00 0.0000000000000000e+00 0.0000000000000000e+00 0.0000000000000000e+00  -4.5460620958706293e+01 2.3484638970463696e+01 0.0000000000000000e+00 2.3484638970463745e+01 1.3830514982963591e+03 0.0000000000000000e+00 0.0000000000000000e+00 0.0000000000000000e+00 0.0000000000000000e+00  -7.7756303179227828e+01 1.0019257303782448e+01 0.0000000000000000e+00 1.0019257303782478e+01 1.0034735697274764e+03 0.0000000000000000e+00 0.0000000000000000e+00 0.0000000000000000e+00 0.0000000000000000e+00  -1.5155741829377990e+02 7.6556942707669036e+00 0.0000000000000000e+00 7.6556942707668876e+00 6.3213438841737241e+02 0.0000000000000000e+00 0.0000000000000000e+00 0.0000000000000000e+00 0.0000000000000000e+00  -1.4608870005255736e+02 8.4013231669525581e+00 0.0000000000000000e+00 8.4013231669525492e+00 2.6263782241564616e+02 0.0000000000000000e+00 0.0000000000000000e+00 0.0000000000000000e+00 0.0000000000000000e+00  -1.7554668266740703e+02 1.3273732351062396e+01 0.0000000000000000e+00 1.3273732351062339e+01 -2.8770970475661983e+01 0.0000000000000000e+00 0.0000000000000000e+00 0.0000000000000000e+00 0.0000000000000000e+00  -2.4842019867041003e+02 1.0734766962922942e+01 0.0000000000000000e+00 1.0734766962922896e+01 -1.4483235078581382e+02 0.0000000000000000e+00 0.0000000000000000e+00 0.0000000000000000e+00 0.0000000000000000e+00  -3.0918742266259528e+02 1.0897551444043140e-01 0.0000000000000000e+00 1.0897551444045646e-01 -1.4563666251963156e+02 0.0000000000000000e+00 0.0000000000000000e+00 0.0000000000000000e+00 0.0000000000000000e+00  -3.5765566888397063e+02 3.2836143618303053e+00 0.0000000000000000e+00 3.2836143618303080e+00 -7.3563689699106320e+01 0.0000000000000000e+00 0.0000000000000000e+00 0.0000000000000000e+00 0.0000000000000000e+00  -3.9211222923167935e+02 -6.5642698133637332e+00 0.0000000000000000e+00 -6.5642698133636985e+00 6.7211770720866284e+01 0.0000000000000000e+00 0.0000000000000000e+00 0.0000000000000000e+00 0.0000000000000000e+00  -4.9079000218169580e+02 5.5708581654111526e+00 0.0000000000000000e+00 5.5708581654109395e+00 3.8419431395961072e+02 0.0000000000000000e+00 0.0000000000000000e+00 0.0000000000000000e+00 0.0000000000000000e+00  -7.4024250421998795e+02 2.1180713079968200e+01 0.0000000000000000e+00 2.1180713079968296e+01 8.3106264498726728e+02 0.0000000000000000e+00 0.0000000000000000e+00 0.0000000000000000e+00 0.0000000000000000e+00  -1.1423920784379350e+03 5.3975852534136891e+01 0.0000000000000000e+00 5.3975852534136926e+01 1.2127496052615372e+03 0.0000000000000000e+00 0.0000000000000000e+00 0.0000000000000000e+00 0.0000000000000000e+00  -1.3104719215011662e+03 -5.6986221163594507e+01 0.0000000000000000e+00 -5.6986221163594578e+01 8.0335482078100324e+02 0.0000000000000000e+00 0.0000000000000000e+00 0.0000000000000000e+00 0.0000000000000000e+00  -1.0003348455260738e+03 8.6929209194208017e+00 0.0000000000000000e+00 8.6929209194208124e+00 -1.0121502043655138e+02 0.0000000000000000e+00 0.0000000000000000e+00 0.0000000000000000e+00 0.0000000000000000e+00  -1.1551204552100589e+03 4.7961685921840676e+01 0.0000000000000000e+00 4.7961685921840825e+01 5.1415856972516497e+02 0.0000000000000000e+00 0.0000000000000000e+00 0.0000000000000000e+00 0.0000000000000000e+00  -9.5274157539243413e+02 -3.6716029806633593e+01 0.0000000000000000e+00 -3.6716029806633514e+01 1.0722204787134865e+03 0.0000000000000000e+00 0.0000000000000000e+00 0.0000000000000000e+00 0.0000000000000000e+00  -4.2822335043974277e+02 -4.6517341294255999e+01 0.0000000000000000e+00 -4.6517341294256184e+01 6.4859131923385121e+02 0.0000000000000000e+00 0.0000000000000000e+00 0.0000000000000000e+00 0.0000000000000000e+00  1.1592729382028901e+02 -2.4952057138098326e+01 0.0000000000000000e+00 -2.4952057138098013e+01 4.8695116820984657e+02 0.0000000000000000e+00 0.0000000000000000e+00 0.0000000000000000e+00 0.0000000000000000e+00  2.1911984804392094e+02 -1.5753733271151194e+01 0.0000000000000000e+00 -1.5753733271151253e+01 6.6820518607485030e+02 0.0000000000000000e+00 0.0000000000000000e+00 0.0000000000000000e+00 0.0000000000000000e+00  2.5325452967878005e+02 -1.2214190720750333e+01 0.0000000000000000e+00 -1.2214190720750306e+01 1.2144647001738720e+03 0.0000000000000000e+00 0.0000000000000000e+00 0.0000000000000000e+00 0.0000000000000000e+00  1.9721680420034519e+02 -2.6791973424817673e+01 0.0000000000000000e+00 -2.6791973424817691e+01 1.9022732340069886e+03 0.0000000000000000e+00 0.0000000000000000e+00 0.0000000000000000e+00 0.0000000000000000e+00  2.0635090382500212e+02 -2.3249486937162828e+01 0.0000000000000000e+00 -2.3249486937162732e+01 2.7097030529163167e+03 0.0000000000000000e+00 0.0000000000000000e+00 0.0000000000000000e+00 0.0000000000000000e+00  4.6544074763681088e+01 -1.5932929873033462e+01 0.0000000000000000e+00 -1.5932929873033544e+01 3.6089673498648135e+03 0.0000000000000000e+00 0.0000000000000000e+00 0.0000000000000000e+00 0.0000000000000000e+00  7.7217726843792349e+01 -2.5023693043762879e+01 0.0000000000000000e+00 -2.5023693043762897e+01 4.3925185362265538e+03 0.0000000000000000e+00 0.0000000000000000e+00 0.0000000000000000e+00 0.0000000000000000e+00  3.3638454024454942e+00 3.5319542687818782e+01 0.0000000000000000e+00 3.5319542687818839e+01 5.0287946109662917e+03 0.0000000000000000e+00 0.0000000000000000e+00 0.0000000000000000e+00 0.0000000000000000e+00  1.9584417317221365e+00 1.3647210425128129e+01 0.0000000000000000e+00 1.3647210425128188e+01 5.2037998246752450e+03 0.0000000000000000e+00 0.0000000000000000e+00 0.0000000000000000e+00 0.0000000000000000e+00  -3.7010491517258113e+00 2.9802586350832584e+01 0.0000000000000000e+00 2.9802586350832794e+01 5.3069857894833840e+03 0.0000000000000000e+00 0.0000000000000000e+00 0.0000000000000000e+00 0.0000000000000000e+00  -8.6320398960882336e+00 1.2634237598008959e+01 0.0000000000000000e+00 1.2634237598008983e+01 5.4664884452792166e+03 0.0000000000000000e+00 0.0000000000000000e+00 0.0000000000000000e+00 0.0000000000000000e+00  1.6698192697369070e+01 8.7914076760451039e+00 0.0000000000000000e+00 8.7914076760450879e+00 5.6720128692074750e+03 0.0000000000000000e+00 0.0000000000000000e+00 0.0000000000000000e+00 0.0000000000000000e+00  -4.6096362828195012e+00 4.9797435366078666e+01 0.0000000000000000e+00 4.9797435366078574e+01 5.7457086471093908e+03 0.0000000000000000e+00 0.0000000000000000e+00 0.0000000000000000e+00 0.0000000000000000e+00  -3.1864332028208477e+01 6.2895728767885636e+01 0.0000000000000000e+00 6.2895728767885537e+01 6.2061710974250054e+03 0.0000000000000000e+00 0.0000000000000000e+00 0.0000000000000000e+00 0.0000000000000000e+00  -1.6916348598287292e+00 1.2114134509679650e+02 0.0000000000000000e+00 1.2114134509679658e+02 6.7706330219231586e+03 0.0000000000000000e+00 0.0000000000000000e+00 0.0000000000000000e+00 0.0000000000000000e+00  -2.4491616026625721e+01 4.3647259006193075e+01 0.0000000000000000e+00 4.3647259006192996e+01 7.5627299783829076e+03 0.0000000000000000e+00 0.0000000000000000e+00 0.0000000000000000e+00 0.0000000000000000e+00  -4.9376017521741602e+01 -8.7816938850645101e+01 0.0000000000000000e+00 -8.7816938850645172e+01 7.5135233150020003e+03 0.0000000000000000e+00 0.0000000000000000e+00 0.0000000000000000e+00 0.0000000000000000e+00  -1.3616988616795638e+02 -3.7547217712345650e+02 0.0000000000000000e+00 -3.7547217712345611e+02 6.5234097063285008e+03 0.0000000000000000e+00 0.0000000000000000e+00 0.0000000000000000e+00 0.0000000000000000e+00  -8.6619609202068972e+01 -6.6707439823615528e+02 0.0000000000000000e+00 -6.6707439823615493e+02 4.6937106139070675e+03 0.0000000000000000e+00 0.0000000000000000e+00 0.0000000000000000e+00 0.0000000000000000e+00  1.8596299534180463e+02 6.7655856514952163e+01 0.0000000000000000e+00 6.7655856514952305e+01 2.3059594233284060e+03 0.0000000000000000e+00 0.0000000000000000e+00 0.0000000000000000e+00 0.0000000000000000e+00  2.0669836322029488e+02 4.7873839318088102e+02 0.0000000000000000e+00 4.7873839318088108e+02 2.4653103913511673e+03 0.0000000000000000e+00 0.0000000000000000e+00 0.0000000000000000e+00 0.0000000000000000e+00  1.8451959353101696e+01 4.7528215492121893e+02 0.0000000000000000e+00 4.7528215492121791e+02 6.1142301772474475e+03 0.0000000000000000e+00 0.0000000000000000e+00 0.0000000000000000e+00 0.0000000000000000e+00  1.7854775926616026e-01 3.0088758480853789e+02 0.0000000000000000e+00 3.0088758480853693e+02 8.9654331329481374e+03 0.0000000000000000e+00 0.0000000000000000e+00 0.0000000000000000e+00 0.0000000000000000e+00  4.3506631297441700e+01 -4.2326886979216414e+02 0.0000000000000000e+00 -4.2326886979216459e+02 9.5524581833999691e+03 0.0000000000000000e+00 0.0000000000000000e+00 0.0000000000000000e+00 0.0000000000000000e+00  -1.5681014724211028e+02 -1.8455925767638564e+02 0.0000000000000000e+00 -1.8455925767638632e+02 6.1592674585735858e+03 0.0000000000000000e+00 0.0000000000000000e+00 0.0000000000000000e+00 0.0000000000000000e+00  -2.2705850026272773e+02 2.7699094113459654e+02 0.0000000000000000e+00 2.7699094113459614e+02 7.9420941879746006e+03 0.0000000000000000e+00 0.0000000000000000e+00 0.0000000000000000e+00 0.0000000000000000e+00  1.0314647175432656e+01 -1.9860997522165982e+02 0.0000000000000000e+00 -1.9860997522165937e+02 7.6430766214001696e+03 0.0000000000000000e+00 0.0000000000000000e+00 0.0000000000000000e+00 0.0000000000000000e+00  -5.5637493004288501e+01 -2.4063856801451431e+02 0.0000000000000000e+00 -2.4063856801451385e+02 5.8285469483994702e+03 0.0000000000000000e+00 0.0000000000000000e+00 0.0000000000000000e+00 0.0000000000000000e+00  5.9805595355094681e+01 -5.4356588897202984e+00 0.0000000000000000e+00 -5.4356588897204619e+00 5.4025187014779149e+03 0.0000000000000000e+00 0.0000000000000000e+00 0.0000000000000000e+00 0.0000000000000000e+00  -4.2933983308318808e+01 -1.1254633555812349e+01 0.0000000000000000e+00 -1.1254633555812340e+01 5.2495202473979789e+03 0.0000000000000000e+00 0.0000000000000000e+00 0.0000000000000000e+00 0.0000000000000000e+0