<?xml version="1.0"?>
<VTKFile type="UnstructuredGrid"  version="0.1"  >
<UnstructuredGrid>
<Piece  NumberOfPoints="3879" NumberOfCells="6881">
<Points>
<DataArray  type="Float64"  NumberOfComponents="3"  format="ascii">0.207524190028372 0.2122422770132111 0  0 0 0  1 0 0  0 1 0  1 1 0  0.6249674373315121 0.2590146544375328 0  0.204663578893616 0.322657230836866 0  0.09605577522599912 0.4018360776629776 0  0.671351124618251 0.08738059142081528 0  0.7842102907526436 0.1666439122351055 0  0.8512483166984784 0.1985391006160637 0  0.6418797837909295 0.4423157172830166 0  0.9292488447973215 0.3869277868069776 0  0.3197896119137055 0.5509935221980964 0  0.3979283685568406 0.5079871620336583 0  0.1572503457993085 0.7345153245035532 0  0.3032914287999163 0.7872981443735918 0  0.3549464687598876 0.8870324161721976 0  0.9691791685505482 0.5159450047798622 0  0.9447564590470373 0.6146164845729313 0  0.7687603548175107 0.7176858127488035 0  0.8926159261971183 0.7422924070424508 0  0.2061587782631535 0.2217389244366831 0  0.2021731605082994 0.2304662099646423 0  0.1958902278109265 0.2377171008267789 0  0.1878189860121365 0.2429041729681512 0  0.1786133191209442 0.2456072006525708 0  0.1690190155206647 0.2456072006525708 0  0.1598133486294724 0.2429041729681512 0  0.1517421068306824 0.2377171008267789 0  0.1454591741333096 0.2304662099646422 0  0.1414735563784554 0.221738924436683 0  0.1401081446132369 0.212242277013211 0  0.1414735563784555 0.202745629589739 0  0.1454591741333096 0.1940183440617798 0  0.1517421068306825 0.1867674531996431 0  0.1598133486294725 0.1815803810582709 0  0.1690190155206649 0.1788773533738513 0  0.1786133191209443 0.1788773533738514 0  0.1878189860121367 0.181580381058271 0  0.1958902278109266 0.1867674531996433 0  0.2021731605082994 0.19401834406178 0  0.2061587782631535 0.2027456295897391 0  0.03333333333333333 0 0  0.06666666666666667 0 0  0.1 0 0  0.1333333333333333 0 0  0.1666666666666667 0 0  0.2 0 0  0.2333333333333333 0 0  0.2666666666666667 0 0  0.3 0 0  0.3333333333333333 0 0  0.3666666666666666 0 0  0.4 0 0  0.4333333333333333 0 0  0.4666666666666667 0 0  0.5 0 0  0.5333333333333333 0 0  0.5666666666666667 0 0  0.6 0 0  0.6333333333333333 0 0  0.6666666666666666 0 0  0.7 0 0  0.7333333333333333 0 0  0.7666666666666667 0 0  0.8 0 0  0.8333333333333334 0 0  0.8666666666666667 0 0  0.9 0 0  0.9333333333333333 0 0  0.9666666666666667 0 0  0 0.9666666666666667 0  0 0.9333333333333333 0  0 0.9 0  0 0.8666666666666667 0  0 0.8333333333333334 0  0 0.8 0  0 0.7666666666666666 0  0 0.7333333333333334 0  0 0.7 0  0 0.6666666666666667 0  0 0.6333333333333333 0  0 0.6 0  0 0.5666666666666667 0  0 0.5333333333333333 0  0 0.5 0  0 0.4666666666666667 0  0 0.4333333333333333 0  0 0.4 0  0 0.3666666666666667 0  0 0.3333333333333334 0  0 0.3 0  0 0.2666666666666667 0  0 0.2333333333333333 0  0 0.2 0  0 0.1666666666666666 0  0 0.1333333333333333 0  0 0.09999999999999998 0  0 0.06666666666666665 0  0 0.03333333333333333 0  1 0.03333333333333333 0  1 0.06666666666666667 0  1 0.1 0  1 0.1333333333333333 0  1 0.1666666666666667 0  1 0.2 0  1 0.2333333333333333 0  1 0.2666666666666667 0  1 0.3 0  1 0.3333333333333333 0  1 0.3666666666666666 0  1 0.4 0  1 0.4333333333333333 0  1 0.4666666666666667 0  1 0.5 0  1 0.5333333333333333 0  1 0.5666666666666667 0  1 0.6 0  1 0.6333333333333333 0  1 0.6666666666666666 0  1 0.7 0  1 0.7333333333333333 0  1 0.7666666666666667 0  1 0.8 0  1 0.8333333333333334 0  1 0.8666666666666667 0  1 0.9 0  1 0.9333333333333333 0  1 0.9666666666666667 0  0.9666666666666667 1 0  0.9333333333333333 1 0  0.9 1 0  0.8666666666666667 1 0  0.8333333333333334 1 0  0.8 1 0  0.7666666666666666 1 0  0.7333333333333334 1 0  0.7 1 0  0.6666666666666667 1 0  0.6333333333333333 1 0  0.6 1 0  0.5666666666666667 1 0  0.5333333333333333 1 0  0.5 1 0  0.4666666666666667 1 0  0.4333333333333333 1 0  0.4 1 0  0.3666666666666667 1 0  0.3333333333333334 1 0  0.3 1 0  0.2666666666666667 1 0  0.2333333333333333 1 0  0.2 1 0  0.1666666666666666 1 0  0.1333333333333333 1 0  0.09999999999999998 1 0  0.06666666666666665 1 0  0.03333333333333333 1 0  0.6247072676344306 0.2689501343248463 0  0.6239274716502419 0.2788583817523955 0  0.6226301867455355 0.2887122389026952 0  0.6208189686880621 0.2984846970382296 0  0.6184987819006211 0.3081489705305245 0  0.6156759858539226 0.317678570277693 0  0.6123583176357204 0.3270473763092224 0  0.6085548707439923 0.3362297093789981 0  0.6042760701622942 0.3452004013503318 0  0.5995336437856049 0.3539348641800754 0  0.5943405902749808 0.3624091573127375 0  0.5887111434291297 0.3706000532998825 0  0.582660733170558 0.3784851014649517 0  0.5762059432532257 0.3860426894390078 0  0.5693644658076293 0.3932521023987353 0  0.5621550528479018 0.4000935798443317 0  0.5545974648738458 0.4065483697616639 0  0.5467124167087765 0.4125987800202355 0  0.5385215207216315 0.4182282268660866 0  0.5300472275889694 0.4234212803767108 0  0.5213127647592257 0.4281637067534002 0  0.512342072787892 0.4324425073350981 0  0.5031597397181163 0.4362459542268262 0  0.493790933686587 0.4395636224450283 0  0.4842613339394185 0.4423864184917269 0  0.4745970604471235 0.4447066052791678 0  0.4648246023115891 0.4465178233366412 0  0.4549707451612894 0.4478151082413475 0  0.4450624977337403 0.4485949042255363 0  0.4351270178464268 0.4488550739226177 0  0.4251915379591132 0.4485949042255363 0  0.4152832905315641 0.4478151082413475 0  0.4054294333812644 0.4465178233366411 0  0.39565697524573 0.4447066052791677 0  0.385992701753435 0.4423864184917267 0  0.3764631020062665 0.4395636224450281 0  0.3670942959747371 0.4362459542268259 0  0.3579119629049616 0.4324425073350978 0  0.3489412709336278 0.4281637067533998 0  0.3402068081038843 0.4234212803767103 0  0.3317325149712221 0.4182282268660862 0  0.3235416189840771 0.412598780020235 0  0.3156565708190078 0.4065483697616634 0  0.3080989828449519 0.4000935798443311 0  0.3008895698852244 0.3932521023987346 0  0.2940480924396279 0.3860426894390071 0  0.2875933025222958 0.3784851014649511 0  0.2815428922637242 0.3706000532998818 0  0.2759134454178731 0.3624091573127368 0  0.2707203919072489 0.3539348641800746 0  0.2659779655305596 0.3452004013503309 0  0.2616991649488616 0.3362297093789972 0  0.2578957180571336 0.3270473763092215 0  0.2545780498389315 0.3176785702776921 0  0.251755253792233 0.3081489705305236 0  0.249435067004792 0.2984846970382286 0  0.2476238489473186 0.2887122389026941 0  0.2463265640426123 0.2788583817523945 0  0.2455467680584236 0.2689501343248454 0  0.2452865983613423 0.2590146544375318 0  0.2455467680584237 0.2490791745502182 0  0.2463265640426126 0.2391709271226692 0  0.247623848947319 0.2293170699723696 0  0.2494350670047924 0.2195446118368351 0  0.2517552537922335 0.2098803383445402 0  0.2545780498389321 0.2003507385973717 0  0.2578957180571343 0.1909819325658423 0  0.2616991649488624 0.1817995994960667 0  0.2659779655305604 0.172828907524733 0  0.2707203919072498 0.1640944446949895 0  0.2759134454178741 0.1556201515623273 0  0.2815428922637251 0.1474292555751825 0  0.2875933025222969 0.1395442074101132 0  0.2940480924396291 0.1319866194360571 0  0.3008895698852256 0.1247772064763297 0  0.3080989828449531 0.1179357290307334 0  0.3156565708190092 0.1114809391134012 0  0.3235416189840785 0.1054305288548295 0  0.3317325149712236 0.09980108200897844 0  0.3402068081038856 0.0946080284983544 0  0.3489412709336291 0.08986560212166514 0  0.357911962904963 0.08558680153996717 0  0.3670942959747386 0.08178335464823916 0  0.3764631020062678 0.07846568643003712 0  0.3859927017534364 0.0756428903833386 0  0.3956569752457313 0.0733227035958976 0  0.4054294333812659 0.07151148553842429 0  0.4152832905315654 0.07021420063371797 0  0.4251915379591144 0.0694344046495293 0  0.435127017846428 0.0691742349524479 0  0.4450624977337415 0.06943440464952938 0  0.4549707451612905 0.07021420063371814 0  0.4648246023115901 0.07151148553842454 0  0.4745970604471245 0.07332270359589793 0  0.4842613339394195 0.07564289038333902 0  0.4937909336865879 0.07846568643003757 0  0.5031597397181173 0.0817833546482398 0  0.5123420727878929 0.08558680153996781 0  0.5213127647592265 0.08986560212166581 0  0.53004722758897 0.0946080284983552 0  0.5385215207216321 0.09980108200897933 0  0.5467124167087771 0.1054305288548305 0  0.5545974648738462 0.1114809391134021 0  0.5621550528479023 0.1179357290307343 0  0.5693644658076298 0.1247772064763308 0  0.576205943253226 0.1319866194360582 0  0.5826607331705582 0.1395442074101142 0  0.5887111434291299 0.1474292555751835 0  0.594340590274981 0.1556201515623285 0  0.5995336437856051 0.1640944446949906 0  0.6042760701622945 0.172828907524734 0  0.6085548707439925 0.1817995994960678 0  0.6123583176357205 0.1909819325658435 0  0.6156759858539227 0.2003507385973728 0  0.6184987819006211 0.2098803383445412 0  0.6208189686880622 0.2195446118368362 0  0.6226301867455355 0.2293170699723706 0  0.6239274716502419 0.2391709271226702 0  0.6247072676344306 0.2490791745502192 0  0.203885768735257 0.3325402459548524 0  0.2015714905276826 0.3421799084407872 0  0.1977777294810124 0.3513388578120612 0  0.1925979005829864 0.3597915703383434 0  0.1861595484119405 0.3673299121842922 0  0.1786212065659918 0.373768264355338 0  0.1701684940397096 0.378948093253364 0  0.1610095446684356 0.3827418543000342 0  0.1513698821825007 0.3850561325076086 0  0.1414868670645144 0.3858339426659677 0  0.1316038519465281 0.3850561325076086 0  0.1219641894605933 0.3827418543000343 0  0.1128052400893193 0.378948093253364 0  0.1043525275630371 0.3737682643553381 0  0.09681418571708833 0.3673299121842922 0  0.09037583354604248 0.3597915703383434 0  0.08519600464801645 0.3513388578120612 0  0.08140224360134621 0.3421799084407872 0  0.07908796539377183 0.3325402459548523 0  0.07831015523541281 0.3226572308368659 0  0.07908796539377186 0.3127742157188796 0  0.08140224360134626 0.3031345532329447 0  0.08519600464801655 0.2939756038616707 0  0.0903758335460426 0.2855228913353884 0  0.0968141857
[...]
<PointData  Tensors="$\sigma$"> 
<DataArray  type="Float64"  Name="$\sigma$"  NumberOfComponents="9" format="ascii">1.2494232101844612e+02 3.3952203300704944e+01 0.0000000000000000e+00 3.3952203300704767e+01 8.0159322570327795e+03 0.0000000000000000e+00 0.0000000000000000e+00 0.0000000000000000e+00 0.0000000000000000e+00  9.7269389665356050e+02 9.0698776911584247e+01 0.0000000000000000e+00 9.0698776911584304e+01 4.0163626737960512e+03 0.0000000000000000e+00 0.0000000000000000e+00 0.0000000000000000e+00 0.0000000000000000e+00  -1.7543659723460358e+01 -1.6217471640172146e+01 0.0000000000000000e+00 -1.6217471640172150e+01 4.2893756249308035e+03 0.0000000000000000e+00 0.0000000000000000e+00 0.0000000000000000e+00 0.0000000000000000e+00  6.9931562791986615e+00 -4.0491252025553202e+00 0.0000000000000000e+00 -4.0491252025553397e+00 4.1441302172679034e+03 0.0000000000000000e+00 0.0000000000000000e+00 0.0000000000000000e+00 0.0000000000000000e+00  8.2504986345261884e+00 8.4530643533004479e+00 0.0000000000000000e+00 8.4530643533004550e+00 3.9264043312950330e+03 0.0000000000000000e+00 0.0000000000000000e+00 0.0000000000000000e+00 0.0000000000000000e+00  7.1690503835022994e+01 7.3751458720880876e+01 0.0000000000000000e+00 7.3751458720881175e+01 7.9882241576663027e+03 0.0000000000000000e+00 0.0000000000000000e+00 0.0000000000000000e+00 0.0000000000000000e+00  -6.6202309705567515e+01 1.9698501774299149e+02 0.0000000000000000e+00 1.9698501774299112e+02 2.6450944954998931e+02 0.0000000000000000e+00 0.0000000000000000e+00 0.0000000000000000e+00 0.0000000000000000e+00  5.5140522513869928e+02 3.6664329106129293e+02 0.0000000000000000e+00 3.6664329106129287e+02 8.7271609167447277e+03 0.0000000000000000e+00 0.0000000000000000e+00 0.0000000000000000e+00 0.0000000000000000e+00  2.1510148543696138e+02 -2.8555934359572115e+02 0.0000000000000000e+00 -2.8555934359572103e+02 8.0113052755399876e+03 0.0000000000000000e+00 0.0000000000000000e+00 0.0000000000000000e+00 0.0000000000000000e+00  -1.9003169139923716e+02 5.4917289990398004e+01 0.0000000000000000e+00 5.4917289990398309e+01 -1.1910985519043648e+02 0.0000000000000000e+00 0.0000000000000000e+00 0.0000000000000000e+00 0.0000000000000000e+00  1.9361624838249307e+00 -2.4990417601334791e+01 0.0000000000000000e+00 -2.4990417601334691e+01 -5.8902761984228086e+01 0.0000000000000000e+00 0.0000000000000000e+00 0.0000000000000000e+00 0.0000000000000000e+00  1.1073509981650780e+02 3.4690128565271817e+02 0.0000000000000000e+00 3.4690128565271868e+02 4.4626052985957140e+03 0.0000000000000000e+00 0.0000000000000000e+00 0.0000000000000000e+00 0.0000000000000000e+00  -5.4645521141130317e+01 6.2576055279646269e+01 0.0000000000000000e+00 6.2576055279646170e+01 1.0279612618307430e+04 0.0000000000000000e+00 0.0000000000000000e+00 0.0000000000000000e+00 0.0000000000000000e+00  5.3933131762737645e+01 9.3386525430518674e+01 0.0000000000000000e+00 9.3386525430519058e+01 8.2442247941210462e+03 0.0000000000000000e+00 0.0000000000000000e+00 0.0000000000000000e+00 0.0000000000000000e+00  -7.3219358230749094e+01 -1.7420920257011920e+02 0.0000000000000000e+00 -1.7420920257011949e+02 -9.7929990973832867e+02 0.0000000000000000e+00 0.0000000000000000e+00 0.0000000000000000e+00 0.0000000000000000e+00  -1.4677112742745001e+02 -1.4859532509198706e+02 0.0000000000000000e+00 -1.4859532509198672e+02 -4.2664388608380483e+02 0.0000000000000000e+00 0.0000000000000000e+00 0.0000000000000000e+00 0.0000000000000000e+00  4.7300121434970862e+01 -1.2207375807217632e+02 0.0000000000000000e+00 -1.2207375807217686e+02 5.2038648585487099e+03 0.0000000000000000e+00 0.0000000000000000e+00 0.0000000000000000e+00 0.0000000000000000e+00  1.1651283614238650e+02 8.8487296317363899e+01 0.0000000000000000e+00 8.8487296317363530e+01 6.1936242438973231e+03 0.0000000000000000e+00 0.0000000000000000e+00 0.0000000000000000e+00 0.0000000000000000e+00  3.6970923742114437e+03 8.4968028937256236e+02 0.0000000000000000e+00 8.4968028937256270e+02 1.7019990844384189e+04 0.0000000000000000e+00 0.0000000000000000e+00 0.0000000000000000e+00 0.0000000000000000e+00  2.3006643742952969e+02 -2.7251137309436433e+02 0.0000000000000000e+00 -2.7251137309436467e+02 9.6710590198098889e+03 0.0000000000000000e+00 0.0000000000000000e+00 0.0000000000000000e+00 0.0000000000000000e+00  4.0360199400265685e+01 1.3407354617198092e+02 0.0000000000000000e+00 1.3407354617198052e+02 6.1000588595609343e+03 0.0000000000000000e+00 0.0000000000000000e+00 0.0000000000000000e+00 0.0000000000000000e+00  1.1778049010454112e+02 9.0674289728699122e+00 0.0000000000000000e+00 9.0674289728699602e+00 3.2999223966588693e+03 0.0000000000000000e+00 0.0000000000000000e+00 0.0000000000000000e+00 0.0000000000000000e+00  3.8227059647022412e+02 -1.0482002923133839e+03 0.0000000000000000e+00 -1.0482002923133839e+03 5.0412592963108664e+03 0.0000000000000000e+00 0.0000000000000000e+00 0.0000000000000000e+00 0.0000000000000000e+00  -2.1606667004026019e+02 -3.2755309720304831e+02 0.0000000000000000e+00 -3.2755309720304854e+02 1.3763592193525212e+03 0.0000000000000000e+00 0.0000000000000000e+00 0.0000000000000000e+00 0.0000000000000000e+00  -1.5045867500389916e+03 9.6358985045989868e+02 0.0000000000000000e+00 9.6358985045989937e+02 -6.4309349366235074e+02 0.0000000000000000e+00 0.0000000000000000e+00 0.0000000000000000e+00 0.0000000000000000e+00  -3.0832189597400265e+03 1.1063703689883575e+03 0.0000000000000000e+00 1.1063703689883587e+03 -6.4725861620020555e+02 0.0000000000000000e+00 0.0000000000000000e+00 0.0000000000000000e+00 0.0000000000000000e+00  -2.3915396180339526e+03 6.5944298422113604e+02 0.0000000000000000e+00 6.5944298422113479e+02 -3.9657548282308551e+02 0.0000000000000000e+00 0.0000000000000000e+00 0.0000000000000000e+00 0.0000000000000000e+00  1.0403870747985329e+03 1.6529380794062847e+03 0.0000000000000000e+00 1.6529380794062859e+03 1.0450140372728881e+03 0.0000000000000000e+00 0.0000000000000000e+00 0.0000000000000000e+00 0.0000000000000000e+00  5.1906371820264585e+03 3.3718932269327984e+03 0.0000000000000000e+00 3.3718932269327934e+03 1.9404790977820669e+03 0.0000000000000000e+00 0.0000000000000000e+00 0.0000000000000000e+00 0.0000000000000000e+00  5.1804656900133787e+03 4.0675252960719708e+03 0.0000000000000000e+00 4.0675252960719754e+03 3.7730614678757111e+03 0.0000000000000000e+00 0.0000000000000000e+00 0.0000000000000000e+00 0.0000000000000000e+00  2.3638396168459708e+03 3.1299346579040503e+03 0.0000000000000000e+00 3.1299346579040498e+03 4.3635456601947153e+03 0.0000000000000000e+00 0.0000000000000000e+00 0.0000000000000000e+00 0.0000000000000000e+00  8.5017660979902587e+02 1.3823401581978044e+03 0.0000000000000000e+00 1.3823401581978071e+03 3.6497241207230932e+03 0.0000000000000000e+00 0.0000000000000000e+00 0.0000000000000000e+00 0.0000000000000000e+00  7.5177712007908028e+01 2.2699636068168866e+02 0.0000000000000000e+00 2.2699636068168843e+02 3.1346036102404864e+03 0.0000000000000000e+00 0.0000000000000000e+00 0.0000000000000000e+00 0.0000000000000000e+00  1.4235449136306642e+02 -2.6385811373945234e+02 0.0000000000000000e+00 -2.6385811373945222e+02 1.5361889167571653e+03 0.0000000000000000e+00 0.0000000000000000e+00 0.0000000000000000e+00 0.0000000000000000e+00  -1.2361460632935460e+02 8.9785902898563108e+01 0.0000000000000000e+00 8.9785902898562895e+01 1.7613127545800896e+02 0.0000000000000000e+00 0.0000000000000000e+00 0.0000000000000000e+00 0.0000000000000000e+00  -9.9129973933864972e+02 7.0424155239160496e+02 0.0000000000000000e+00 7.0424155239160575e+02 -5.0913679932241223e+02 0.0000000000000000e+00 0.0000000000000000e+00 0.0000000000000000e+00 0.0000000000000000e+00  -1.9260594150913437e+03 7.5893824088930330e+02 0.0000000000000000e+00 7.5893824088930171e+02 -4.8079131812891313e+02 0.0000000000000000e+00 0.0000000000000000e+00 0.0000000000000000e+00 0.0000000000000000e+00  -2.0057295147437342e+03 4.1617701273473045e+02 0.0000000000000000e+00 4.1617701273473006e+02 -2.6941087734178365e+02 0.0000000000000000e+00 0.0000000000000000e+00 0.0000000000000000e+00 0.0000000000000000e+00  -9.0988779825010010e+02 3.2262600846286055e+01 0.0000000000000000e+00 3.2262600846285274e+01 5.9123195069258450e+01 0.0000000000000000e+00 0.0000000000000000e+00 0.0000000000000000e+00 0.0000000000000000e+00  1.0218511719164720e+03 7.3762414575880712e+02 0.0000000000000000e+00 7.3762414575880689e+02 4.3637039945256674e+02 0.0000000000000000e+00 0.0000000000000000e+00 0.0000000000000000e+00 0.0000000000000000e+00  2.1134369371905154e+03 1.8821110334280913e+03 0.0000000000000000e+00 1.8821110334280938e+03 2.1998019628166307e+03 0.0000000000000000e+00 0.0000000000000000e+00 0.0000000000000000e+00 0.0000000000000000e+00  1.8087747382212408e+03 2.8928285918487777e+03 0.0000000000000000e+00 2.8928285918487804e+03 4.9179577486058288e+03 0.0000000000000000e+00 0.0000000000000000e+00 0.0000000000000000e+00 0.0000000000000000e+00  1.1413298612988156e+03 1.8314732159195455e+03 0.0000000000000000e+00 1.8314732159195480e+03 7.3254043419231457e+03 0.0000000000000000e+00 0.0000000000000000e+00 0.0000000000000000e+00 0.0000000000000000e+00  3.4763127314528384e+02 -2.3389052378696204e+02 0.0000000000000000e+00 -2.3389052378696215e+02 3.3736804293285700e+03 0.0000000000000000e+00 0.0000000000000000e+00 0.0000000000000000e+00 0.0000000000000000e+00  -6.9350379830516744e+01 3.2009912692135472e+01 0.0000000000000000e+00 3.2009912692135465e+01 2.9531977578673209e+03 0.0000000000000000e+00 0.0000000000000000e+00 0.0000000000000000e+00 0.0000000000000000e+00  1.9787241803629993e+02 1.0473383016351574e+00 0.0000000000000000e+00 1.0473383016351787e+00 2.2753912793688714e+03 0.0000000000000000e+00 0.0000000000000000e+00 0.0000000000000000e+00 0.0000000000000000e+00  2.5914081397444169e+00 2.8060564362216994e+01 0.0000000000000000e+00 2.8060564362217029e+01 1.9190806254147717e+03 0.0000000000000000e+00 0.0000000000000000e+00 0.0000000000000000e+00 0.0000000000000000e+00  7.2167782137041982e+01 3.0244205754872908e+01 0.0000000000000000e+00 3.0244205754872908e+01 1.5163598920345146e+03 0.0000000000000000e+00 0.0000000000000000e+00 0.0000000000000000e+00 0.0000000000000000e+00  -3.0543214507106278e+01 1.9810890159190954e+01 0.0000000000000000e+00 1.9810890159190969e+01 1.1517356878263954e+03 0.0000000000000000e+00 0.0000000000000000e+00 0.0000000000000000e+00 0.0000000000000000e+00  -5.9354877974807486e+01 8.9612954413893391e+00 0.0000000000000000e+00 8.9612954413893604e+00 8.3434612390489372e+02 0.0000000000000000e+00 0.0000000000000000e+00 0.0000000000000000e+00 0.0000000000000000e+00  -1.1944609449362112e+02 6.9136856516643288e+00 0.0000000000000000e+00 6.9136856516643146e+00 5.2711510591956869e+02 0.0000000000000000e+00 0.0000000000000000e+00 0.0000000000000000e+00 0.0000000000000000e+00  -1.1452933740605947e+02 7.3926006521610796e+00 0.0000000000000000e+00 7.3926006521610725e+00 2.1986811365349493e+02 0.0000000000000000e+00 0.0000000000000000e+00 0.0000000000000000e+00 0.0000000000000000e+00  -1.3833210891437301e+02 1.1500123321320229e+01 0.0000000000000000e+00 1.1500123321320187e+01 -2.3564159133409120e+01 0.0000000000000000e+00 0.0000000000000000e+00 0.0000000000000000e+00 0.0000000000000000e+00  -1.9867374409809278e+02 9.2296728091860469e+00 0.0000000000000000e+00 9.2296728091860416e+00 -1.1912712344890153e+02 0.0000000000000000e+00 0.0000000000000000e+00 0.0000000000000000e+00 0.0000000000000000e+00  -2.4875506279881245e+02 1.5718873115132675e-01 0.0000000000000000e+00 1.5718873115135043e-01 -1.1950424468267227e+02 0.0000000000000000e+00 0.0000000000000000e+00 0.0000000000000000e+00 0.0000000000000000e+00  -2.8890066582749103e+02 2.6493038805296014e+00 0.0000000000000000e+00 2.6493038805295939e+00 -5.9600005031075064e+01 0.0000000000000000e+00 0.0000000000000000e+00 0.0000000000000000e+00 0.0000000000000000e+00  -3.1667791847650864e+02 -5.4129966703813901e+00 0.0000000000000000e+00 -5.4129966703813581e+00 5.5681049907441214e+01 0.0000000000000000e+00 0.0000000000000000e+00 0.0000000000000000e+00 0.0000000000000000e+00  -3.9940015480374365e+02 4.9979669235847197e+00 0.0000000000000000e+00 4.9979669235845741e+00 3.1760821161582800e+02 0.0000000000000000e+00 0.0000000000000000e+00 0.0000000000000000e+00 0.0000000000000000e+00  -6.0158803435351126e+02 1.9234783380891276e+01 0.0000000000000000e+00 1.9234783380891233e+01 6.8527510754121931e+02 0.0000000000000000e+00 0.0000000000000000e+00 0.0000000000000000e+00 0.0000000000000000e+00  -9.3585741705398107e+02 4.5097711090275020e+01 0.0000000000000000e+00 4.5097711090275020e+01 9.9754743039171092e+02 0.0000000000000000e+00 0.0000000000000000e+00 0.0000000000000000e+00 0.0000000000000000e+00  -1.0725856822552919e+03 -4.7403665707597362e+01 0.0000000000000000e+00 -4.7403665707597384e+01 6.6223130120573728e+02 0.0000000000000000e+00 0.0000000000000000e+00 0.0000000000000000e+00 0.0000000000000000e+00  -8.1581315750596309e+02 6.0520452960185285e+00 0.0000000000000000e+00 6.0520452960185303e+00 -7.9191579227692785e+01 0.0000000000000000e+00 0.0000000000000000e+00 0.0000000000000000e+00 0.0000000000000000e+00  -9.4470017757632979e+02 4.0232253973720923e+01 0.0000000000000000e+00 4.0232253973721079e+01 4.2792394641614658e+02 0.0000000000000000e+00 0.0000000000000000e+00 0.0000000000000000e+00 0.0000000000000000e+00  -7.7951012017683183e+02 -2.9086392296331752e+01 0.0000000000000000e+00 -2.9086392296331859e+01 8.8308698980575264e+02 0.0000000000000000e+00 0.0000000000000000e+00 0.0000000000000000e+00 0.0000000000000000e+00  -3.4507703912981719e+02 -3.9963709653514144e+01 0.0000000000000000e+00 -3.9963709653514101e+01 5.3489245102404925e+02 0.0000000000000000e+00 0.0000000000000000e+00 0.0000000000000000e+00 0.0000000000000000e+00  1.0260681505268013e+02 -2.1374419363207700e+01 0.0000000000000000e+00 -2.1374419363207522e+01 4.0511781635546544e+02 0.0000000000000000e+00 0.0000000000000000e+00 0.0000000000000000e+00 0.0000000000000000e+00  1.8795800765143710e+02 -1.4437885290127024e+01 0.0000000000000000e+00 -1.4437885290127035e+01 5.6187188853164150e+02 0.0000000000000000e+00 0.0000000000000000e+00 0.0000000000000000e+00 0.0000000000000000e+00  2.1407625943811635e+02 -1.0837478585515628e+01 0.0000000000000000e+00 -1.0837478585515615e+01 1.0180944196935152e+03 0.0000000000000000e+00 0.0000000000000000e+00 0.0000000000000000e+00 0.0000000000000000e+00  1.6720795869914087e+02 -2.3960122657284337e+01 0.0000000000000000e+00 -2.3960122657284369e+01 1.5935322307549823e+03 0.0000000000000000e+00 0.0000000000000000e+00 0.0000000000000000e+00 0.0000000000000000e+00  1.7184944536508209e+02 -2.0068888813927551e+01 0.0000000000000000e+00 -2.0068888813927476e+01 2.2660896542659070e+03 0.0000000000000000e+00 0.0000000000000000e+00 0.0000000000000000e+00 0.0000000000000000e+00  4.0191754196921494e+01 -1.3785932202503458e+01 0.0000000000000000e+00 -1.3785932202503501e+01 3.0179400789720776e+03 0.0000000000000000e+00 0.0000000000000000e+00 0.0000000000000000e+00 0.0000000000000000e+00  6.4439658836841062e+01 -2.1072352563715476e+01 0.0000000000000000e+00 -2.1072352563715469e+01 3.6649096571611317e+03 0.0000000000000000e+00 0.0000000000000000e+00 0.0000000000000000e+00 0.0000000000000000e+00  1.7110207094821623e+00 3.0295844795074714e+01 0.0000000000000000e+00 3.0295844795074746e+01 4.1849828929732530e+03 0.0000000000000000e+00 0.0000000000000000e+00 0.0000000000000000e+00 0.0000000000000000e+00  2.3140834251109137e+00 1.0395421080883652e+01 0.0000000000000000e+00 1.0395421080883681e+01 4.3269195014618444e+03 0.0000000000000000e+00 0.0000000000000000e+00 0.0000000000000000e+00 0.0000000000000000e+00  -3.9558512354008748e+00 2.6492039179321704e+01 0.0000000000000000e+00 2.6492039179321800e+01 4.4113815470892141e+03 0.0000000000000000e+00 0.0000000000000000e+00 0.0000000000000000e+00 0.0000000000000000e+00  -6.0368333554518356e+00 9.8377569848069228e+00 0.0000000000000000e+00 9.8377569848069299e+00 4.5430283154686513e+03 0.0000000000000000e+00 0.0000000000000000e+00 0.0000000000000000e+00 0.0000000000000000e+00  1.2194184424657653e+01 8.0396834160854898e+00 0.0000000000000000e+00 8.0396834160854098e+00 4.7062028388119179e+03 0.0000000000000000e+00 0.0000000000000000e+00 0.0000000000000000e+00 0.0000000000000000e+00  -3.4859718058430023e+00 3.8902969292221066e+01 0.0000000000000000e+00 3.8902969292220909e+01 4.7608794151864568e+03 0.0000000000000000e+00 0.0000000000000000e+00 0.0000000000000000e+00 0.0000000000000000e+00  -2.4962534050248198e+01 5.1089514485296199e+01 0.0000000000000000e+00 5.1089514485296156e+01 5.1289478137402393e+03 0.0000000000000000e+00 0.0000000000000000e+00 0.0000000000000000e+00 0.0000000000000000e+00  -6.1385401412294549e-01 9.9942179632968234e+01 0.0000000000000000e+00 9.9942179632968447e+01 5.5766341877162913e+03 0.0000000000000000e+00 0.0000000000000000e+00 0.0000000000000000e+00 0.0000000000000000e+00  -2.4473617621915210e+01 3.0328070752810433e+01 0.0000000000000000e+00 3.0328070752810433e+01 6.2114556528923176e+03 0.0000000000000000e+00 0.0000000000000000e+00 0.0000000000000000e+00 0.0000000000000000e+00  -5.3666522912865808e+01 -8.8142166668524780e+01 0.0000000000000000e+00 -8.8142166668524752e+01 6.1088165641599053e+03 0.0000000000000000e+00 0.0000000000000000e+00 0.0000000000000000e+00 0.0000000000000000e+00  -9.8639516708571534e+01 -3.4404176538480897e+02 0.0000000000000000e+00 -3.4404176538480846e+02 5.2151160552316787e+03 0.0000000000000000e+00 0.0000000000000000e+00 0.0000000000000000e+00 0.0000000000000000e+00  -7.6939250019867885e+01 -5.0993963759110176e+02 0.0000000000000000e+00 -5.0993963759110198e+02 3.7521525176751406e+03 0.0000000000000000e+00 0.0000000000000000e+00 0.0000000000000000e+00 0.0000000000000000e+00  1.6466522922846266e+02 9.8583577060308457e+01 0.0000000000000000e+00 9.8583577060308428e+01 2.0382694833364224e+03 0.0000000000000000e+00 0.0000000000000000e+00 0.0000000000000000e+00 0.0000000000000000e+00  1.2736010748694220e+02 3.1750000596363810e+02 0.0000000000000000e+00 3.1750000596363810e+02 2.1028661560490159e+03 0.0000000000000000e+00 0.0000000000000000e+00 0.0000000000000000e+00 0.0000000000000000e+00  3.0140710631804385e+01 3.9418756611230947e+02 0.0000000000000000e+00 3.9418756611230981e+02 4.8727998007664764e+03 0.0000000000000000e+00 0.0000000000000000e+00 0.0000000000000000e+00 0.0000000000000000e+00  -1.2553226781904836e+00 2.8076291571068680e+02 0.0000000000000000e+00 2.8076291571068606e+02 7.2453235500967421e+03 0.0000000000000000e+00 0.0000000000000000e+00 0.0000000000000000e+00 0.0000000000000000e+00  1.5994903761428903e+01 -3.3520803307243193e+02 0.0000000000000000e+00 -3.3520803307243244e+02 7.7699564879832360e+03 0.0000000000000000e+00 0.0000000000000000e+00 0.0000000000000000e+00 0.0000000000000000e+00  6.1468409886652019e+01 -1.2784769468393468e+02 0.0000000000000000e+00 -1.2784769468393486e+02 5.1493499743209504e+03 0.0000000000000000e+00 0.0000000000000000e+00 0.0000000000000000e+00 0.0000000000000000e+00  -1.5776310568578626e+02 2.2350216564937023e+02 0.0000000000000000e+00 2.2350216564936972e+02 6.5163748898985195e+03 0.0000000000000000e+00 0.0000000000000000e+00 0.0000000000000000e+00 0.0000000000000000e+00  -4.9949891141385256e+00 -1.6475204753517292e+02 0.0000000000000000e+00 -1.6475204753517252e+02 6.3180624677467576e+03 0.0000000000000000e+00 0.0000000000000000e+00 0.0000000000000000e+00 0.0000000000000000e+00  -3.6949331049279579e+01 -1.9839713625721515e+02 0.0000000000000000e+00 -1.9839713625721470e+02 4.8386138730510684e+03 0.0000000000000000e+00 0.0000000000000000e+00 0.0000000000000000e+00 0.0000000000000000e+00  4.7963831953572956e+01 -3.9942664338496714e+00 0.0000000000000000e+00 -3.9942664338498952e+00 4.4984015758883934e+03 0.0000000000000000e+00 0.0000000000000000e+00 0.0000000000000000e+00 0.0000000000000000e+00  -3.3153631118641222e+01 -6.6097840702165440e+00 0.0000000000000000e+00 -6.6097840702165627e+00 4.3857924293681281e+03 0.0000000000000000e+00 0.0000000000000000e+00 0.0000000000000000e+00 0.0000000000000000e+00