<?xml version="1.0"?>
<VTKFile type="UnstructuredGrid"  version="0.1"  >
<UnstructuredGrid>
<Piece  NumberOfPoints="3879" NumberOfCells="6881">
<Points>
<DataArray  type="Float64"  NumberOfComponents="3"  format="ascii">0.207524190028372 0.2122422770132111 0  0 0 0  1 0 0  0 1 0  1 1 0  0.6249674373315121 0.2590146544375328 0  0.204663578893616 0.322657230836866 0  0.09605577522599912 0.4018360776629776 0  0.671351124618251 0.08738059142081528 0  0.7842102907526436 0.1666439122351055 0  0.8512483166984784 0.1985391006160637 0  0.6418797837909295 0.4423157172830166 0  0.9292488447973215 0.3869277868069776 0  0.3197896119137055 0.5509935221980964 0  0.3979283685568406 0.5079871620336583 0  0.1572503457993085 0.7345153245035532 0  0.3032914287999163 0.7872981443735918 0  0.3549464687598876 0.8870324161721976 0  0.9691791685505482 0.5159450047798622 0  0.9447564590470373 0.6146164845729313 0  0.7687603548175107 0.7176858127488035 0  0.8926159261971183 0.7422924070424508 0  0.2061587782631535 0.2217389244366831 0  0.2021731605082994 0.2304662099646423 0  0.1958902278109265 0.2377171008267789 0  0.1878189860121365 0.2429041729681512 0  0.1786133191209442 0.2456072006525708 0  0.1690190155206647 0.2456072006525708 0  0.1598133486294724 0.2429041729681512 0  0.1517421068306824 0.2377171008267789 0  0.1454591741333096 0.2304662099646422 0  0.1414735563784554 0.221738924436683 0  0.1401081446132369 0.212242277013211 0  0.1414735563784555 0.202745629589739 0  0.1454591741333096 0.1940183440617798 0  0.1517421068306825 0.1867674531996431 0  0.1598133486294725 0.1815803810582709 0  0.1690190155206649 0.1788773533738513 0  0.1786133191209443 0.1788773533738514 0  0.1878189860121367 0.181580381058271 0  0.1958902278109266 0.1867674531996433 0  0.2021731605082994 0.19401834406178 0  0.2061587782631535 0.2027456295897391 0  0.03333333333333333 0 0  0.06666666666666667 0 0  0.1 0 0  0.1333333333333333 0 0  0.1666666666666667 0 0  0.2 0 0  0.2333333333333333 0 0  0.2666666666666667 0 0  0.3 0 0  0.3333333333333333 0 0  0.3666666666666666 0 0  0.4 0 0  0.4333333333333333 0 0  0.4666666666666667 0 0  0.5 0 0  0.5333333333333333 0 0  0.5666666666666667 0 0  0.6 0 0  0.6333333333333333 0 0  0.6666666666666666 0 0  0.7 0 0  0.7333333333333333 0 0  0.7666666666666667 0 0  0.8 0 0  0.8333333333333334 0 0  0.8666666666666667 0 0  0.9 0 0  0.9333333333333333 0 0  0.9666666666666667 0 0  0 0.9666666666666667 0  0 0.9333333333333333 0  0 0.9 0  0 0.8666666666666667 0  0 0.8333333333333334 0  0 0.8 0  0 0.7666666666666666 0  0 0.7333333333333334 0  0 0.7 0  0 0.6666666666666667 0  0 0.6333333333333333 0  0 0.6 0  0 0.5666666666666667 0  0 0.5333333333333333 0  0 0.5 0  0 0.4666666666666667 0  0 0.4333333333333333 0  0 0.4 0  0 0.3666666666666667 0  0 0.3333333333333334 0  0 0.3 0  0 0.2666666666666667 0  0 0.2333333333333333 0  0 0.2 0  0 0.1666666666666666 0  0 0.1333333333333333 0  0 0.09999999999999998 0  0 0.06666666666666665 0  0 0.03333333333333333 0  1 0.03333333333333333 0  1 0.06666666666666667 0  1 0.1 0  1 0.1333333333333333 0  1 0.1666666666666667 0  1 0.2 0  1 0.2333333333333333 0  1 0.2666666666666667 0  1 0.3 0  1 0.3333333333333333 0  1 0.3666666666666666 0  1 0.4 0  1 0.4333333333333333 0  1 0.4666666666666667 0  1 0.5 0  1 0.5333333333333333 0  1 0.5666666666666667 0  1 0.6 0  1 0.6333333333333333 0  1 0.6666666666666666 0  1 0.7 0  1 0.7333333333333333 0  1 0.7666666666666667 0  1 0.8 0  1 0.8333333333333334 0  1 0.8666666666666667 0  1 0.9 0  1 0.9333333333333333 0  1 0.9666666666666667 0  0.9666666666666667 1 0  0.9333333333333333 1 0  0.9 1 0  0.8666666666666667 1 0  0.8333333333333334 1 0  0.8 1 0  0.7666666666666666 1 0  0.7333333333333334 1 0  0.7 1 0  0.6666666666666667 1 0  0.6333333333333333 1 0  0.6 1 0  0.5666666666666667 1 0  0.5333333333333333 1 0  0.5 1 0  0.4666666666666667 1 0  0.4333333333333333 1 0  0.4 1 0  0.3666666666666667 1 0  0.3333333333333334 1 0  0.3 1 0  0.2666666666666667 1 0  0.2333333333333333 1 0  0.2 1 0  0.1666666666666666 1 0  0.1333333333333333 1 0  0.09999999999999998 1 0  0.06666666666666665 1 0  0.03333333333333333 1 0  0.6247072676344306 0.2689501343248463 0  0.6239274716502419 0.2788583817523955 0  0.6226301867455355 0.2887122389026952 0  0.6208189686880621 0.2984846970382296 0  0.6184987819006211 0.3081489705305245 0  0.6156759858539226 0.317678570277693 0  0.6123583176357204 0.3270473763092224 0  0.6085548707439923 0.3362297093789981 0  0.6042760701622942 0.3452004013503318 0  0.5995336437856049 0.3539348641800754 0  0.5943405902749808 0.3624091573127375 0  0.5887111434291297 0.3706000532998825 0  0.582660733170558 0.3784851014649517 0  0.5762059432532257 0.3860426894390078 0  0.5693644658076293 0.3932521023987353 0  0.5621550528479018 0.4000935798443317 0  0.5545974648738458 0.4065483697616639 0  0.5467124167087765 0.4125987800202355 0  0.5385215207216315 0.4182282268660866 0  0.5300472275889694 0.4234212803767108 0  0.5213127647592257 0.4281637067534002 0  0.512342072787892 0.4324425073350981 0  0.5031597397181163 0.4362459542268262 0  0.493790933686587 0.4395636224450283 0  0.4842613339394185 0.4423864184917269 0  0.4745970604471235 0.4447066052791678 0  0.4648246023115891 0.4465178233366412 0  0.4549707451612894 0.4478151082413475 0  0.4450624977337403 0.4485949042255363 0  0.4351270178464268 0.4488550739226177 0  0.4251915379591132 0.4485949042255363 0  0.4152832905315641 0.4478151082413475 0  0.4054294333812644 0.4465178233366411 0  0.39565697524573 0.4447066052791677 0  0.385992701753435 0.4423864184917267 0  0.3764631020062665 0.4395636224450281 0  0.3670942959747371 0.4362459542268259 0  0.3579119629049616 0.4324425073350978 0  0.3489412709336278 0.4281637067533998 0  0.3402068081038843 0.4234212803767103 0  0.3317325149712221 0.4182282268660862 0  0.3235416189840771 0.412598780020235 0  0.3156565708190078 0.4065483697616634 0  0.3080989828449519 0.4000935798443311 0  0.3008895698852244 0.3932521023987346 0  0.2940480924396279 0.3860426894390071 0  0.2875933025222958 0.3784851014649511 0  0.2815428922637242 0.3706000532998818 0  0.2759134454178731 0.3624091573127368 0  0.2707203919072489 0.3539348641800746 0  0.2659779655305596 0.3452004013503309 0  0.2616991649488616 0.3362297093789972 0  0.2578957180571336 0.3270473763092215 0  0.2545780498389315 0.3176785702776921 0  0.251755253792233 0.3081489705305236 0  0.249435067004792 0.2984846970382286 0  0.2476238489473186 0.2887122389026941 0  0.2463265640426123 0.2788583817523945 0  0.2455467680584236 0.2689501343248454 0  0.2452865983613423 0.2590146544375318 0  0.2455467680584237 0.2490791745502182 0  0.2463265640426126 0.2391709271226692 0  0.247623848947319 0.2293170699723696 0  0.2494350670047924 0.2195446118368351 0  0.2517552537922335 0.2098803383445402 0  0.2545780498389321 0.2003507385973717 0  0.2578957180571343 0.1909819325658423 0  0.2616991649488624 0.1817995994960667 0  0.2659779655305604 0.172828907524733 0  0.2707203919072498 0.1640944446949895 0  0.2759134454178741 0.1556201515623273 0  0.2815428922637251 0.1474292555751825 0  0.2875933025222969 0.1395442074101132 0  0.2940480924396291 0.1319866194360571 0  0.3008895698852256 0.1247772064763297 0  0.3080989828449531 0.1179357290307334 0  0.3156565708190092 0.1114809391134012 0  0.3235416189840785 0.1054305288548295 0  0.3317325149712236 0.09980108200897844 0  0.3402068081038856 0.0946080284983544 0  0.3489412709336291 0.08986560212166514 0  0.357911962904963 0.08558680153996717 0  0.3670942959747386 0.08178335464823916 0  0.3764631020062678 0.07846568643003712 0  0.3859927017534364 0.0756428903833386 0  0.3956569752457313 0.0733227035958976 0  0.4054294333812659 0.07151148553842429 0  0.4152832905315654 0.07021420063371797 0  0.4251915379591144 0.0694344046495293 0  0.435127017846428 0.0691742349524479 0  0.4450624977337415 0.06943440464952938 0  0.4549707451612905 0.07021420063371814 0  0.4648246023115901 0.07151148553842454 0  0.4745970604471245 0.07332270359589793 0  0.4842613339394195 0.07564289038333902 0  0.4937909336865879 0.07846568643003757 0  0.5031597397181173 0.0817833546482398 0  0.5123420727878929 0.08558680153996781 0  0.5213127647592265 0.08986560212166581 0  0.53004722758897 0.0946080284983552 0  0.5385215207216321 0.09980108200897933 0  0.5467124167087771 0.1054305288548305 0  0.5545974648738462 0.1114809391134021 0  0.5621550528479023 0.1179357290307343 0  0.5693644658076298 0.1247772064763308 0  0.576205943253226 0.1319866194360582 0  0.5826607331705582 0.1395442074101142 0  0.5887111434291299 0.1474292555751835 0  0.594340590274981 0.1556201515623285 0  0.5995336437856051 0.1640944446949906 0  0.6042760701622945 0.172828907524734 0  0.6085548707439925 0.1817995994960678 0  0.6123583176357205 0.1909819325658435 0  0.6156759858539227 0.2003507385973728 0  0.6184987819006211 0.2098803383445412 0  0.6208189686880622 0.2195446118368362 0  0.6226301867455355 0.2293170699723706 0  0.6239274716502419 0.2391709271226702 0  0.6247072676344306 0.2490791745502192 0  0.203885768735257 0.3325402459548524 0  0.2015714905276826 0.3421799084407872 0  0.1977777294810124 0.3513388578120612 0  0.1925979005829864 0.3597915703383434 0  0.1861595484119405 0.3673299121842922 0  0.1786212065659918 0.373768264355338 0  0.1701684940397096 0.378948093253364 0  0.1610095446684356 0.3827418543000342 0  0.1513698821825007 0.3850561325076086 0  0.1414868670645144 0.3858339426659677 0  0.1316038519465281 0.3850561325076086 0  0.1219641894605933 0.3827418543000343 0  0.1128052400893193 0.378948093253364 0  0.1043525275630371 0.3737682643553381 0  0.09681418571708833 0.3673299121842922 0  0.09037583354604248 0.3597915703383434 0  0.08519600464801645 0.3513388578120612 0  0.08140224360134621 0.3421799084407872 0  0.07908796539377183 0.3325402459548523 0  0.07831015523541281 0.3226572308368659 0  0.07908796539377186 0.3127742157188796 0  0.08140224360134626 0.3031345532329447 0  0.08519600464801655 0.2939756038616707 0  0.0903758335460426 0.2855228913353884 0  0.0968141857
[...]
<PointData  Tensors="$\sigma$"> 
<DataArray  type="Float64"  Name="$\sigma$"  NumberOfComponents="9" format="ascii">3.3618959697031229e+01 3.1708974084945165e+01 0.0000000000000000e+00 3.1708974084945165e+01 8.2128801027022234e+02 0.0000000000000000e+00 0.0000000000000000e+00 0.0000000000000000e+00 0.0000000000000000e+00  1.1008555243761865e+02 1.8186392749484401e+01 0.0000000000000000e+00 1.8186392749484401e+01 4.2687864910375248e+02 0.0000000000000000e+00 0.0000000000000000e+00 0.0000000000000000e+00 0.0000000000000000e+00  1.4049523654586631e+00 -1.5525888083567263e+00 0.0000000000000000e+00 -1.5525888083567263e+00 4.5574070873628278e+02 0.0000000000000000e+00 0.0000000000000000e+00 0.0000000000000000e+00 0.0000000000000000e+00  4.2254784643590995e+00 -1.5735155028743528e+00 0.0000000000000000e+00 -1.5735155028743528e+00 4.3525768374762680e+02 0.0000000000000000e+00 0.0000000000000000e+00 0.0000000000000000e+00 0.0000000000000000e+00  2.8874837804213507e+00 1.6814270968393679e+00 0.0000000000000000e+00 1.6814270968393679e+00 4.1727538382434665e+02 0.0000000000000000e+00 0.0000000000000000e+00 0.0000000000000000e+00 0.0000000000000000e+00  1.9903209333754944e+01 1.6641838559812328e+01 0.0000000000000000e+00 1.6641838559812328e+01 8.4218484727850466e+02 0.0000000000000000e+00 0.0000000000000000e+00 0.0000000000000000e+00 0.0000000000000000e+00  -2.7811398983636817e+00 3.5573543736314662e+01 0.0000000000000000e+00 3.5573543736314662e+01 6.3614801110535133e+01 0.0000000000000000e+00 0.0000000000000000e+00 0.0000000000000000e+00 0.0000000000000000e+00  1.0346674146500952e+02 5.7703334587038078e+01 0.0000000000000000e+00 5.7703334587038078e+01 8.7854449741887231e+02 0.0000000000000000e+00 0.0000000000000000e+00 0.0000000000000000e+00 0.0000000000000000e+00  6.6864983349559139e+01 -7.6297861344632665e+01 0.0000000000000000e+00 -7.6297861344632665e+01 8.1173478213227122e+02 0.0000000000000000e+00 0.0000000000000000e+00 0.0000000000000000e+00 0.0000000000000000e+00  1.2280621419563854e+01 -1.5972901881014540e+01 0.0000000000000000e+00 -1.5972901881014540e+01 1.5716018037098033e+01 0.0000000000000000e+00 0.0000000000000000e+00 0.0000000000000000e+00 0.0000000000000000e+00  4.5286441677750405e-01 -6.9660557682993316e+00 0.0000000000000000e+00 -6.9660557682993316e+00 1.0887083394218260e+01 0.0000000000000000e+00 0.0000000000000000e+00 0.0000000000000000e+00 0.0000000000000000e+00  3.9507361286963857e+01 6.6211104307238415e+01 0.0000000000000000e+00 6.6211104307238415e+01 4.8362392257176941e+02 0.0000000000000000e+00 0.0000000000000000e+00 0.0000000000000000e+00 0.0000000000000000e+00  8.9483133151418119e+00 1.2317133608413997e+01 0.0000000000000000e+00 1.2317133608413997e+01 1.0918979007696946e+03 0.0000000000000000e+00 0.0000000000000000e+00 0.0000000000000000e+00 0.0000000000000000e+00  2.3487991559988778e+01 1.0226703463877392e+01 0.0000000000000000e+00 1.0226703463877392e+01 8.7334859407794022e+02 0.0000000000000000e+00 0.0000000000000000e+00 0.0000000000000000e+00 0.0000000000000000e+00  -7.4490700877578564e-01 -3.8673015909107988e+01 0.0000000000000000e+00 -3.8673015909107988e+01 -7.8516853336118473e+01 0.0000000000000000e+00 0.0000000000000000e+00 0.0000000000000000e+00 0.0000000000000000e+00  1.5944118377191135e+01 -2.5184145116692257e+01 0.0000000000000000e+00 -2.5184145116692260e+01 2.4814559715843245e+01 0.0000000000000000e+00 0.0000000000000000e+00 0.0000000000000000e+00 0.0000000000000000e+00  1.4425077315841317e+01 -4.4731298486792063e+01 0.0000000000000000e+00 -4.4731298486792063e+01 5.6178576461651767e+02 0.0000000000000000e+00 0.0000000000000000e+00 0.0000000000000000e+00 0.0000000000000000e+00  4.1691684532851745e+01 3.0500525844902452e+01 0.0000000000000000e+00 3.0500525844902452e+01 6.5611745781200659e+02 0.0000000000000000e+00 0.0000000000000000e+00 0.0000000000000000e+00 0.0000000000000000e+00  2.5038156789368458e+02 1.8058180889634542e+02 0.0000000000000000e+00 1.8058180889634542e+02 1.8057032425100567e+03 0.0000000000000000e+00 0.0000000000000000e+00 0.0000000000000000e+00 0.0000000000000000e+00  4.6251060996183782e+01 -3.3884060405556298e+01 0.0000000000000000e+00 -3.3884060405556298e+01 1.0377478167746422e+03 0.0000000000000000e+00 0.0000000000000000e+00 0.0000000000000000e+00 0.0000000000000000e+00  9.2590289882954639e+00 2.5748904208747692e+01 0.0000000000000000e+00 2.5748904208747692e+01 6.4676393340668119e+02 0.0000000000000000e+00 0.0000000000000000e+00 0.0000000000000000e+00 0.0000000000000000e+00  2.8618586642909719e+01 5.0143370365176732e-01 0.0000000000000000e+00 5.0143370365176743e-01 3.6111342756817533e+02 0.0000000000000000e+00 0.0000000000000000e+00 0.0000000000000000e+00 0.0000000000000000e+00  2.2858016476629562e+01 -5.1909707909148288e+01 0.0000000000000000e+00 -5.1909707909148288e+01 5.4716487171051938e+02 0.0000000000000000e+00 0.0000000000000000e+00 0.0000000000000000e+00 0.0000000000000000e+00  -5.6279733613177065e+01 -7.3712167629381034e+00 0.0000000000000000e+00 -7.3712167629381034e+00 2.0498573010531274e+02 0.0000000000000000e+00 0.0000000000000000e+00 0.0000000000000000e+00 0.0000000000000000e+00  -2.0027298602719051e+02 9.7458498783355310e+01 0.0000000000000000e+00 9.7458498783355310e+01 -2.1610498018252159e+01 0.0000000000000000e+00 0.0000000000000000e+00 0.0000000000000000e+00 0.0000000000000000e+00  -2.6035621312474558e+02 9.6873305600613165e+01 0.0000000000000000e+00 9.6873305600613165e+01 -6.3891619792303487e+01 0.0000000000000000e+00 0.0000000000000000e+00 0.0000000000000000e+00 0.0000000000000000e+00  -2.0438816236086021e+02 1.0844403914879602e+02 0.0000000000000000e+00 1.0844403914879602e+02 -2.9813140668789050e+01 0.0000000000000000e+00 0.0000000000000000e+00 0.0000000000000000e+00 0.0000000000000000e+00  1.5150128101146163e+02 2.0187161657609005e+02 0.0000000000000000e+00 2.0187161657609005e+02 1.1805219759997587e+02 0.0000000000000000e+00 0.0000000000000000e+00 0.0000000000000000e+00 0.0000000000000000e+00  4.6681108882411650e+02 3.2765432219655582e+02 0.0000000000000000e+00 3.2765432219655582e+02 2.3320673362817382e+02 0.0000000000000000e+00 0.0000000000000000e+00 0.0000000000000000e+00 0.0000000000000000e+00  5.0847434302683104e+02 4.0205619891841275e+02 0.0000000000000000e+00 4.0205619891841275e+02 3.8921698781781237e+02 0.0000000000000000e+00 0.0000000000000000e+00 0.0000000000000000e+00 0.0000000000000000e+00  2.9261267390319091e+02 3.1690300273864250e+02 0.0000000000000000e+00 3.1690300273864250e+02 4.3586707127246552e+02 0.0000000000000000e+00 0.0000000000000000e+00 0.0000000000000000e+00 0.0000000000000000e+00  1.3384127375062045e+02 1.5761482085010212e+02 0.0000000000000000e+00 1.5761482085010212e+02 3.7844837592918674e+02 0.0000000000000000e+00 0.0000000000000000e+00 0.0000000000000000e+00 0.0000000000000000e+00  3.2280580569676829e+01 4.3071141661634456e+01 0.0000000000000000e+00 4.3071141661634456e+01 3.3576532078917364e+02 0.0000000000000000e+00 0.0000000000000000e+00 0.0000000000000000e+00 0.0000000000000000e+00  1.1670258670638022e+01 -1.0568881527929836e+01 0.0000000000000000e+00 -1.0568881527929836e+01 1.9133713972806788e+02 0.0000000000000000e+00 0.0000000000000000e+00 0.0000000000000000e+00 0.0000000000000000e+00  -2.4233544979950686e+01 1.1095214282051547e+01 0.0000000000000000e+00 1.1095214282051547e+01 5.2930730275741915e+01 0.0000000000000000e+00 0.0000000000000000e+00 0.0000000000000000e+00 0.0000000000000000e+00  -1.1527428338728318e+02 6.1134180958674094e+01 0.0000000000000000e+00 6.1134180958674094e+01 -2.7548207156932499e+01 0.0000000000000000e+00 0.0000000000000000e+00 0.0000000000000000e+00 0.0000000000000000e+00  -1.9269056640698858e+02 6.4950428505441153e+01 0.0000000000000000e+00 6.4950428505441153e+01 -3.7341698857977292e+01 0.0000000000000000e+00 0.0000000000000000e+00 0.0000000000000000e+00 0.0000000000000000e+00  -1.8654647456062085e+02 5.2023048154287167e+01 0.0000000000000000e+00 5.2023048154287167e+01 -3.4535544372430444e+01 0.0000000000000000e+00 0.0000000000000000e+00 0.0000000000000000e+00 0.0000000000000000e+00  -8.6628864461813123e+01 3.4358388459022009e+01 0.0000000000000000e+00 3.4358388459022009e+01 1.4156042353307772e+01 0.0000000000000000e+00 0.0000000000000000e+00 0.0000000000000000e+00 0.0000000000000000e+00  8.6526196031812376e+01 1.0287958963286350e+02 0.0000000000000000e+00 1.0287958963286350e+02 9.0403530120997672e+01 0.0000000000000000e+00 0.0000000000000000e+00 0.0000000000000000e+00 0.0000000000000000e+00  1.8487166276388760e+02 1.9174018076216399e+02 0.0000000000000000e+00 1.9174018076216399e+02 2.8294777194063676e+02 0.0000000000000000e+00 0.0000000000000000e+00 0.0000000000000000e+00 0.0000000000000000e+00  1.8236655400583570e+02 2.7988752733581288e+02 0.0000000000000000e+00 2.7988752733581288e+02 5.6136749910860215e+02 0.0000000000000000e+00 0.0000000000000000e+00 0.0000000000000000e+00 0.0000000000000000e+00  1.4533701047397443e+02 1.6702604984985319e+02 0.0000000000000000e+00 1.6702604984985319e+02 7.3040790133029373e+02 0.0000000000000000e+00 0.0000000000000000e+00 0.0000000000000000e+00 0.0000000000000000e+00  5.2641746673949498e+01 -1.5039054810269288e+01 0.0000000000000000e+00 -1.5039054810269288e+01 3.5651484487988591e+02 0.0000000000000000e+00 0.0000000000000000e+00 0.0000000000000000e+00 0.0000000000000000e+00  -1.0960130406097562e+01 -2.1608730850500915e-01 0.0000000000000000e+00 -2.1608730850500915e-01 3.0552213328501233e+02 0.0000000000000000e+00 0.0000000000000000e+00 0.0000000000000000e+00 0.0000000000000000e+00  1.1399294870839640e+01 2.7225860991682151e+00 0.0000000000000000e+00 2.7225860991682151e+00 2.4280509241173741e+02 0.0000000000000000e+00 0.0000000000000000e+00 0.0000000000000000e+00 0.0000000000000000e+00  3.9673362857697554e+00 3.1712557694000711e+00 0.0000000000000000e+00 3.1712557694000711e+00 2.0946856446883052e+02 0.0000000000000000e+00 0.0000000000000000e+00 0.0000000000000000e+00 0.0000000000000000e+00  4.1877837442166213e+00 5.1257621765286983e+00 0.0000000000000000e+00 5.1257621765286983e+00 1.6430195170804228e+02 0.0000000000000000e+00 0.0000000000000000e+00 0.0000000000000000e+00 0.0000000000000000e+00  -2.7971464725948065e+00 3.8477591133408002e+00 0.0000000000000000e+00 3.8477591133408002e+00 1.2367878792344031e+02 0.0000000000000000e+00 0.0000000000000000e+00 0.0000000000000000e+00 0.0000000000000000e+00  -6.7466780397223332e+00 2.3465400899828546e+00 0.0000000000000000e+00 2.3465400899828546e+00 8.9003863662596871e+01 0.0000000000000000e+00 0.0000000000000000e+00 0.0000000000000000e+00 0.0000000000000000e+00  -1.2056600814945801e+01 1.8750903061295763e+00 0.0000000000000000e+00 1.8750903061295763e+00 5.8786507590720078e+01 0.0000000000000000e+00 0.0000000000000000e+00 0.0000000000000000e+00 0.0000000000000000e+00  -1.2559018117955439e+01 2.1206044527820862e+00 0.0000000000000000e+00 2.1206044527820862e+00 2.5378952615539202e+01 0.0000000000000000e+00 0.0000000000000000e+00 0.0000000000000000e+00 0.0000000000000000e+00  -1.4652311200453429e+01 2.5467145410952363e+00 0.0000000000000000e+00 2.5467145410952363e+00 -2.6608134259461722e+00 0.0000000000000000e+00 0.0000000000000000e+00 0.0000000000000000e+00 0.0000000000000000e+00  -2.1487205323930418e+01 1.8519022263068152e+00 0.0000000000000000e+00 1.8519022263068152e+00 -1.2477858889527452e+01 0.0000000000000000e+00 0.0000000000000000e+00 0.0000000000000000e+00 0.0000000000000000e+00  -2.6485597868279353e+01 2.6408985040948041e-01 0.0000000000000000e+00 2.6408985040948041e-01 -1.2544270019412858e+01 0.0000000000000000e+00 0.0000000000000000e+00 0.0000000000000000e+00 0.0000000000000000e+00  -3.1489300544759175e+01 3.9062458339269662e-02 0.0000000000000000e+00 3.9062458339269662e-02 -6.1434022627575917e+00 0.0000000000000000e+00 0.0000000000000000e+00 0.0000000000000000e+00 0.0000000000000000e+00  -3.2942981862439382e+01 -3.8115064566083423e-01 0.0000000000000000e+00 -3.8115064566083423e-01 5.6242483185254626e+00 0.0000000000000000e+00 0.0000000000000000e+00 0.0000000000000000e+00 0.0000000000000000e+00  -4.2970118356615814e+01 1.5279715392033180e+00 0.0000000000000000e+00 1.5279715392033180e+00 3.4669920560758548e+01 0.0000000000000000e+00 0.0000000000000000e+00 0.0000000000000000e+00 0.0000000000000000e+00  -6.0949561444811330e+01 4.8244124200051095e+00 0.0000000000000000e+00 4.8244124200051095e+00 7.2152079556839055e+01 0.0000000000000000e+00 0.0000000000000000e+00 0.0000000000000000e+00 0.0000000000000000e+00  -9.6662743724336082e+01 6.3989816540317728e+00 0.0000000000000000e+00 6.3989816540317728e+00 1.0212934186604424e+02 0.0000000000000000e+00 0.0000000000000000e+00 0.0000000000000000e+00 0.0000000000000000e+00  -1.0852995690822320e+02 -3.9250686861823785e+00 0.0000000000000000e+00 -3.9250686861823785e+00 7.1027454499837830e+01 0.0000000000000000e+00 0.0000000000000000e+00 0.0000000000000000e+00 0.0000000000000000e+00  -8.3576919475404381e+01 -1.1194915758501391e+00 0.0000000000000000e+00 -1.1194915758501391e+00 8.8821010966050917e-01 0.0000000000000000e+00 0.0000000000000000e+00 0.0000000000000000e+00 0.0000000000000000e+00  -9.6004073042940576e+01 2.6452029610343915e+00 0.0000000000000000e+00 2.6452029610343915e+00 5.0595366142742542e+01 0.0000000000000000e+00 0.0000000000000000e+00 0.0000000000000000e+00 0.0000000000000000e+00  -7.8142293184195694e+01 -5.5328863019727059e+00 0.0000000000000000e+00 -5.5328863019727059e+00 9.2621754196396338e+01 0.0000000000000000e+00 0.0000000000000000e+00 0.0000000000000000e+00 0.0000000000000000e+00  -3.3618072567738714e+01 -7.6891281578883808e+00 0.0000000000000000e+00 -7.6891281578883808e+00 5.7131311377516781e+01 0.0000000000000000e+00 0.0000000000000000e+00 0.0000000000000000e+00 0.0000000000000000e+00  1.0755167654372013e+01 -4.1313482500806913e+00 0.0000000000000000e+00 -4.1313482500806913e+00 4.2173894683101949e+01 0.0000000000000000e+00 0.0000000000000000e+00 0.0000000000000000e+00 0.0000000000000000e+00  2.0819131762805217e+01 -3.9684546926520898e+00 0.0000000000000000e+00 -3.9684546926520898e+00 6.1379013675298452e+01 0.0000000000000000e+00 0.0000000000000000e+00 0.0000000000000000e+00 0.0000000000000000e+00  2.2559877766023373e+01 -3.3663556196332247e+00 0.0000000000000000e+00 -3.3663556196332247e+00 1.0985309179530341e+02 0.0000000000000000e+00 0.0000000000000000e+00 0.0000000000000000e+00 0.0000000000000000e+00  1.9011617960570952e+01 -5.8139410957485405e+00 0.0000000000000000e+00 -5.8139410957485405e+00 1.7275444987792847e+02 0.0000000000000000e+00 0.0000000000000000e+00 0.0000000000000000e+00 0.0000000000000000e+00  1.6611271555339687e+01 -3.8817857508871052e+00 0.0000000000000000e+00 -3.8817857508871052e+00 2.4417552323250516e+02 0.0000000000000000e+00 0.0000000000000000e+00 0.0000000000000000e+00 0.0000000000000000e+00  6.0988634419525454e+00 -2.6675362494989470e+00 0.0000000000000000e+00 -2.6675362494989470e+00 3.2867741596934633e+02 0.0000000000000000e+00 0.0000000000000000e+00 0.0000000000000000e+00 0.0000000000000000e+00  6.5776599170529853e+00 -2.8742996615931538e+00 0.0000000000000000e+00 -2.8742996615931538e+00 3.8566141671508399e+02 0.0000000000000000e+00 0.0000000000000000e+00 0.0000000000000000e+00 0.0000000000000000e+00  -1.6006135878271459e+00 6.3212802745149475e+00 0.0000000000000000e+00 6.3212802745149475e+00 4.4583943115721559e+02 0.0000000000000000e+00 0.0000000000000000e+00 0.0000000000000000e+00 0.0000000000000000e+00  -4.0355257332740208e-01 9.4213646739972068e-01 0.0000000000000000e+00 9.4213646739972068e-01 4.5520506324916340e+02 0.0000000000000000e+00 0.0000000000000000e+00 0.0000000000000000e+00 0.0000000000000000e+00  -5.7991806169752447e-01 5.6501873507603104e+00 0.0000000000000000e+00 5.6501873507603104e+00 4.6699799918703684e+02 0.0000000000000000e+00 0.0000000000000000e+00 0.0000000000000000e+00 0.0000000000000000e+00  -5.2382687849762777e-01 1.6014904289895702e+00 0.0000000000000000e+00 1.6014904289895702e+00 4.7819033082651214e+02 0.0000000000000000e+00 0.0000000000000000e+00 0.0000000000000000e+00 0.0000000000000000e+00  -6.0450854770663931e-01 2.7021366643060269e+00 0.0000000000000000e+00 2.7021366643060269e+00 4.9535254406553668e+02 0.0000000000000000e+00 0.0000000000000000e+00 0.0000000000000000e+00 0.0000000000000000e+00  1.7429111771318442e+00 6.0146233274559711e+00 0.0000000000000000e+00 6.0146233274559711e+00 5.0125904322601684e+02 0.0000000000000000e+00 0.0000000000000000e+00 0.0000000000000000e+00 0.0000000000000000e+00  -2.3104229533784366e+00 1.0386420206092696e+01 0.0000000000000000e+00 1.0386420206092696e+01 5.4003059251414436e+02 0.0000000000000000e+00 0.0000000000000000e+00 0.0000000000000000e+00 0.0000000000000000e+00  -1.0670117886795498e+00 1.5044147748046161e+01 0.0000000000000000e+00 1.5044147748046161e+01 5.8663663710855462e+02 0.0000000000000000e+00 0.0000000000000000e+00 0.0000000000000000e+00 0.0000000000000000e+00  -7.1765137999962736e+00 7.2353669075854645e+00 0.0000000000000000e+00 7.2353669075854645e+00 6.3724075558067011e+02 0.0000000000000000e+00 0.0000000000000000e+00 0.0000000000000000e+00 0.0000000000000000e+00  -1.7658006404635181e+01 -1.3330403239318448e+01 0.0000000000000000e+00 -1.3330403239318448e+01 6.2618365128276389e+02 0.0000000000000000e+00 0.0000000000000000e+00 0.0000000000000000e+00 0.0000000000000000e+00  -1.2727773661542173e+01 -5.0304895334768325e+01 0.0000000000000000e+00 -5.0304895334768325e+01 5.4137699259985152e+02 0.0000000000000000e+00 0.0000000000000000e+00 0.0000000000000000e+00 0.0000000000000000e+00  1.9563865377561342e+00 -4.8616805266664713e+01 0.0000000000000000e+00 -4.8616805266664713e+01 4.1743678242147399e+02 0.0000000000000000e+00 0.0000000000000000e+00 0.0000000000000000e+00 0.0000000000000000e+00  4.4302484609201315e+01 2.6397712949395067e+00 0.0000000000000000e+00 2.6397712949395067e+00 2.2872190792727937e+02 0.0000000000000000e+00 0.0000000000000000e+00 0.0000000000000000e+00 0.0000000000000000e+00  2.5902199389076657e+01 3.9935383741842301e+01 0.0000000000000000e+00 3.9935383741842301e+01 2.7965895042400496e+02 0.0000000000000000e+00 0.0000000000000000e+00 0.0000000000000000e+00 0.0000000000000000e+00  1.0861954387429286e+01 6.5182155129996801e+01 0.0000000000000000e+00 6.5182155129996801e+01 4.9896910907716614e+02 0.0000000000000000e+00 0.0000000000000000e+00 0.0000000000000000e+00 0.0000000000000000e+00  -1.3241579287836043e+01 4.9618447554678831e+01 0.0000000000000000e+00 4.9618447554678831e+01 7.1501010411325274e+02 0.0000000000000000e+00 0.0000000000000000e+00 0.0000000000000000e+00 0.0000000000000000e+00  -1.8369628507091257e+01 -4.2765019439461412e+01 0.0000000000000000e+00 -4.2765019439461412e+01 7.7562563217269349e+02 0.0000000000000000e+00 0.0000000000000000e+00 0.0000000000000000e+00 0.0000000000000000e+00  3.4734918029300893e+01 -1.4973105638538463e+01 0.0000000000000000e+00 -1.4973105638538463e+01 6.1907803296985651e+02 0.0000000000000000e+00 0.0000000000000000e+00 0.0000000000000000e+00 0.0000000000000000e+00  -2.2045013714977166e+01 2.4235015614617094e+01 0.0000000000000000e+00 2.4235015614617094e+01 6.8047522627816079e+02 0.0000000000000000e+00 0.0000000000000000e+00 0.0000000000000000e+00 0.0000000000000000e+00  -1.6033783725552639e+00 -2.3824500504575990e+01 0.0000000000000000e+00 -2.3824500504575990e+01 6.3949617097176463e+02 0.0000000000000000e+00 0.0000000000000000e+00 0.0000000000000000e+00 0.0000000000000000e+00  2.7479079113949676e+00 -2.8556320269639187e+01 0.0000000000000000e+00 -2.8556320269639187e+01 5.1558500050720249e+02 0.0000000000000000e+00 0.0000000000000000e+00 0.0000000000000000e+00 0.0000000000000000e+00  7.0825156024393205e+00 -4.7849219401373189e+00 0.0000000000000000e+00 -4.7849219401373189e+00 4.7169009250668745e+02 0.0000000000000000e+00 0.0000000000000000e+00 0.0000000000000000e+00 0.0000000000000000e+00  -1.1713076559632647e+00 1.8589056635168333e-01 0.0000000000000000e+00 1.8589056635168333e-01 4.6045486173420568e+02 0.0000000000000000e+00 0.0000000000000000e+00 0.0000000000000000e+00 0.0000000000000000e+00  -