<?xml version="1.0"?>
<VTKFile type="UnstructuredGrid"  version="0.1"  >
<UnstructuredGrid>
<Piece  NumberOfPoints="3879" NumberOfCells="6881">
<Points>
<DataArray  type="Float64"  NumberOfComponents="3"  format="ascii">0.207524190028372 0.2122422770132111 0  0 0 0  1 0 0  0 1 0  1 1 0  0.6249674373315121 0.2590146544375328 0  0.204663578893616 0.322657230836866 0  0.09605577522599912 0.4018360776629776 0  0.671351124618251 0.08738059142081528 0  0.7842102907526436 0.1666439122351055 0  0.8512483166984784 0.1985391006160637 0  0.6418797837909295 0.4423157172830166 0  0.9292488447973215 0.3869277868069776 0  0.3197896119137055 0.5509935221980964 0  0.3979283685568406 0.5079871620336583 0  0.1572503457993085 0.7345153245035532 0  0.3032914287999163 0.7872981443735918 0  0.3549464687598876 0.8870324161721976 0  0.9691791685505482 0.5159450047798622 0  0.9447564590470373 0.6146164845729313 0  0.7687603548175107 0.7176858127488035 0  0.8926159261971183 0.7422924070424508 0  0.2061587782631535 0.2217389244366831 0  0.2021731605082994 0.2304662099646423 0  0.1958902278109265 0.2377171008267789 0  0.1878189860121365 0.2429041729681512 0  0.1786133191209442 0.2456072006525708 0  0.1690190155206647 0.2456072006525708 0  0.1598133486294724 0.2429041729681512 0  0.1517421068306824 0.2377171008267789 0  0.1454591741333096 0.2304662099646422 0  0.1414735563784554 0.221738924436683 0  0.1401081446132369 0.212242277013211 0  0.1414735563784555 0.202745629589739 0  0.1454591741333096 0.1940183440617798 0  0.1517421068306825 0.1867674531996431 0  0.1598133486294725 0.1815803810582709 0  0.1690190155206649 0.1788773533738513 0  0.1786133191209443 0.1788773533738514 0  0.1878189860121367 0.181580381058271 0  0.1958902278109266 0.1867674531996433 0  0.2021731605082994 0.19401834406178 0  0.2061587782631535 0.2027456295897391 0  0.03333333333333333 0 0  0.06666666666666667 0 0  0.1 0 0  0.1333333333333333 0 0  0.1666666666666667 0 0  0.2 0 0  0.2333333333333333 0 0  0.2666666666666667 0 0  0.3 0 0  0.3333333333333333 0 0  0.3666666666666666 0 0  0.4 0 0  0.4333333333333333 0 0  0.4666666666666667 0 0  0.5 0 0  0.5333333333333333 0 0  0.5666666666666667 0 0  0.6 0 0  0.6333333333333333 0 0  0.6666666666666666 0 0  0.7 0 0  0.7333333333333333 0 0  0.7666666666666667 0 0  0.8 0 0  0.8333333333333334 0 0  0.8666666666666667 0 0  0.9 0 0  0.9333333333333333 0 0  0.9666666666666667 0 0  0 0.9666666666666667 0  0 0.9333333333333333 0  0 0.9 0  0 0.8666666666666667 0  0 0.8333333333333334 0  0 0.8 0  0 0.7666666666666666 0  0 0.7333333333333334 0  0 0.7 0  0 0.6666666666666667 0  0 0.6333333333333333 0  0 0.6 0  0 0.5666666666666667 0  0 0.5333333333333333 0  0 0.5 0  0 0.4666666666666667 0  0 0.4333333333333333 0  0 0.4 0  0 0.3666666666666667 0  0 0.3333333333333334 0  0 0.3 0  0 0.2666666666666667 0  0 0.2333333333333333 0  0 0.2 0  0 0.1666666666666666 0  0 0.1333333333333333 0  0 0.09999999999999998 0  0 0.06666666666666665 0  0 0.03333333333333333 0  1 0.03333333333333333 0  1 0.06666666666666667 0  1 0.1 0  1 0.1333333333333333 0  1 0.1666666666666667 0  1 0.2 0  1 0.2333333333333333 0  1 0.2666666666666667 0  1 0.3 0  1 0.3333333333333333 0  1 0.3666666666666666 0  1 0.4 0  1 0.4333333333333333 0  1 0.4666666666666667 0  1 0.5 0  1 0.5333333333333333 0  1 0.5666666666666667 0  1 0.6 0  1 0.6333333333333333 0  1 0.6666666666666666 0  1 0.7 0  1 0.7333333333333333 0  1 0.7666666666666667 0  1 0.8 0  1 0.8333333333333334 0  1 0.8666666666666667 0  1 0.9 0  1 0.9333333333333333 0  1 0.9666666666666667 0  0.9666666666666667 1 0  0.9333333333333333 1 0  0.9 1 0  0.8666666666666667 1 0  0.8333333333333334 1 0  0.8 1 0  0.7666666666666666 1 0  0.7333333333333334 1 0  0.7 1 0  0.6666666666666667 1 0  0.6333333333333333 1 0  0.6 1 0  0.5666666666666667 1 0  0.5333333333333333 1 0  0.5 1 0  0.4666666666666667 1 0  0.4333333333333333 1 0  0.4 1 0  0.3666666666666667 1 0  0.3333333333333334 1 0  0.3 1 0  0.2666666666666667 1 0  0.2333333333333333 1 0  0.2 1 0  0.1666666666666666 1 0  0.1333333333333333 1 0  0.09999999999999998 1 0  0.06666666666666665 1 0  0.03333333333333333 1 0  0.6247072676344306 0.2689501343248463 0  0.6239274716502419 0.2788583817523955 0  0.6226301867455355 0.2887122389026952 0  0.6208189686880621 0.2984846970382296 0  0.6184987819006211 0.3081489705305245 0  0.6156759858539226 0.317678570277693 0  0.6123583176357204 0.3270473763092224 0  0.6085548707439923 0.3362297093789981 0  0.6042760701622942 0.3452004013503318 0  0.5995336437856049 0.3539348641800754 0  0.5943405902749808 0.3624091573127375 0  0.5887111434291297 0.3706000532998825 0  0.582660733170558 0.3784851014649517 0  0.5762059432532257 0.3860426894390078 0  0.5693644658076293 0.3932521023987353 0  0.5621550528479018 0.4000935798443317 0  0.5545974648738458 0.4065483697616639 0  0.5467124167087765 0.4125987800202355 0  0.5385215207216315 0.4182282268660866 0  0.5300472275889694 0.4234212803767108 0  0.5213127647592257 0.4281637067534002 0  0.512342072787892 0.4324425073350981 0  0.5031597397181163 0.4362459542268262 0  0.493790933686587 0.4395636224450283 0  0.4842613339394185 0.4423864184917269 0  0.4745970604471235 0.4447066052791678 0  0.4648246023115891 0.4465178233366412 0  0.4549707451612894 0.4478151082413475 0  0.4450624977337403 0.4485949042255363 0  0.4351270178464268 0.4488550739226177 0  0.4251915379591132 0.4485949042255363 0  0.4152832905315641 0.4478151082413475 0  0.4054294333812644 0.4465178233366411 0  0.39565697524573 0.4447066052791677 0  0.385992701753435 0.4423864184917267 0  0.3764631020062665 0.4395636224450281 0  0.3670942959747371 0.4362459542268259 0  0.3579119629049616 0.4324425073350978 0  0.3489412709336278 0.4281637067533998 0  0.3402068081038843 0.4234212803767103 0  0.3317325149712221 0.4182282268660862 0  0.3235416189840771 0.412598780020235 0  0.3156565708190078 0.4065483697616634 0  0.3080989828449519 0.4000935798443311 0  0.3008895698852244 0.3932521023987346 0  0.2940480924396279 0.3860426894390071 0  0.2875933025222958 0.3784851014649511 0  0.2815428922637242 0.3706000532998818 0  0.2759134454178731 0.3624091573127368 0  0.2707203919072489 0.3539348641800746 0  0.2659779655305596 0.3452004013503309 0  0.2616991649488616 0.3362297093789972 0  0.2578957180571336 0.3270473763092215 0  0.2545780498389315 0.3176785702776921 0  0.251755253792233 0.3081489705305236 0  0.249435067004792 0.2984846970382286 0  0.2476238489473186 0.2887122389026941 0  0.2463265640426123 0.2788583817523945 0  0.2455467680584236 0.2689501343248454 0  0.2452865983613423 0.2590146544375318 0  0.2455467680584237 0.2490791745502182 0  0.2463265640426126 0.2391709271226692 0  0.247623848947319 0.2293170699723696 0  0.2494350670047924 0.2195446118368351 0  0.2517552537922335 0.2098803383445402 0  0.2545780498389321 0.2003507385973717 0  0.2578957180571343 0.1909819325658423 0  0.2616991649488624 0.1817995994960667 0  0.2659779655305604 0.172828907524733 0  0.2707203919072498 0.1640944446949895 0  0.2759134454178741 0.1556201515623273 0  0.2815428922637251 0.1474292555751825 0  0.2875933025222969 0.1395442074101132 0  0.2940480924396291 0.1319866194360571 0  0.3008895698852256 0.1247772064763297 0  0.3080989828449531 0.1179357290307334 0  0.3156565708190092 0.1114809391134012 0  0.3235416189840785 0.1054305288548295 0  0.3317325149712236 0.09980108200897844 0  0.3402068081038856 0.0946080284983544 0  0.3489412709336291 0.08986560212166514 0  0.357911962904963 0.08558680153996717 0  0.3670942959747386 0.08178335464823916 0  0.3764631020062678 0.07846568643003712 0  0.3859927017534364 0.0756428903833386 0  0.3956569752457313 0.0733227035958976 0  0.4054294333812659 0.07151148553842429 0  0.4152832905315654 0.07021420063371797 0  0.4251915379591144 0.0694344046495293 0  0.435127017846428 0.0691742349524479 0  0.4450624977337415 0.06943440464952938 0  0.4549707451612905 0.07021420063371814 0  0.4648246023115901 0.07151148553842454 0  0.4745970604471245 0.07332270359589793 0  0.4842613339394195 0.07564289038333902 0  0.4937909336865879 0.07846568643003757 0  0.5031597397181173 0.0817833546482398 0  0.5123420727878929 0.08558680153996781 0  0.5213127647592265 0.08986560212166581 0  0.53004722758897 0.0946080284983552 0  0.5385215207216321 0.09980108200897933 0  0.5467124167087771 0.1054305288548305 0  0.5545974648738462 0.1114809391134021 0  0.5621550528479023 0.1179357290307343 0  0.5693644658076298 0.1247772064763308 0  0.576205943253226 0.1319866194360582 0  0.5826607331705582 0.1395442074101142 0  0.5887111434291299 0.1474292555751835 0  0.594340590274981 0.1556201515623285 0  0.5995336437856051 0.1640944446949906 0  0.6042760701622945 0.172828907524734 0  0.6085548707439925 0.1817995994960678 0  0.6123583176357205 0.1909819325658435 0  0.6156759858539227 0.2003507385973728 0  0.6184987819006211 0.2098803383445412 0  0.6208189686880622 0.2195446118368362 0  0.6226301867455355 0.2293170699723706 0  0.6239274716502419 0.2391709271226702 0  0.6247072676344306 0.2490791745502192 0  0.203885768735257 0.3325402459548524 0  0.2015714905276826 0.3421799084407872 0  0.1977777294810124 0.3513388578120612 0  0.1925979005829864 0.3597915703383434 0  0.1861595484119405 0.3673299121842922 0  0.1786212065659918 0.373768264355338 0  0.1701684940397096 0.378948093253364 0  0.1610095446684356 0.3827418543000342 0  0.1513698821825007 0.3850561325076086 0  0.1414868670645144 0.3858339426659677 0  0.1316038519465281 0.3850561325076086 0  0.1219641894605933 0.3827418543000343 0  0.1128052400893193 0.378948093253364 0  0.1043525275630371 0.3737682643553381 0  0.09681418571708833 0.3673299121842922 0  0.09037583354604248 0.3597915703383434 0  0.08519600464801645 0.3513388578120612 0  0.08140224360134621 0.3421799084407872 0  0.07908796539377183 0.3325402459548523 0  0.07831015523541281 0.3226572308368659 0  0.07908796539377186 0.3127742157188796 0  0.08140224360134626 0.3031345532329447 0  0.08519600464801655 0.2939756038616707 0  0.0903758335460426 0.2855228913353884 0  0.0968141857
[...]
<PointData  Scalars="$\epsilon$"> 
<DataArray  type="Float64"  Name="$\epsilon$"  format="ascii">2.0784609690818904e-07  2.0784609690818245e-07  2.0784609690817840e-07  2.0784609690817957e-07  2.0784609690818232e-07  2.0784609690819415e-07  2.0784609690817620e-07  2.0784609690820116e-07  2.0784609690819275e-07  2.0784609690817824e-07  2.0784609690819899e-07  2.0784609690819084e-07  2.0784609690819918e-07  2.0784609690819902e-07  2.0784609690820281e-07  2.0784609690819187e-07  2.0784609690819910e-07  2.0784609690820132e-07  2.0784609690817882e-07  2.0784609690819246e-07  2.0784609690819751e-07  2.0784609690818412e-07  2.0784609690823415e-07  2.0784609690821043e-07  2.0784609690823161e-07  2.0784609690821093e-07  2.0784609690823192e-07  2.0784609690818912e-07  2.0784609690822438e-07  2.0784609690822946e-07  2.0784609690822591e-07  2.0784609690820953e-07  2.0784609690822208e-07  2.0784609690822441e-07  2.0784609690822938e-07  2.0784609690822390e-07  2.0784609690822822e-07  2.0784609690822438e-07  2.0784609690822581e-07  2.0784609690823256e-07  2.0784609690821570e-07  2.0784609690822756e-07  2.0784609690823216e-07  2.0784609690822756e-07  2.0784609690820283e-07  2.0784609690822417e-07  2.0784609690823565e-07  2.0784609690821522e-07  2.0784609690821559e-07  2.0784609690822761e-07  2.0784609690822785e-07  2.0784609690820887e-07  2.0784609690821800e-07  2.0784609690821750e-07  2.0784609690821885e-07  2.0784609690821739e-07  2.0784609690820913e-07  2.0784609690820582e-07  2.0784609690821871e-07  2.0784609690823420e-07  2.0784609690820341e-07  2.0784609690821858e-07  2.0784609690820148e-07  2.0784609690821202e-07  2.0784609690822131e-07  2.0784609690822496e-07  2.0784609690822176e-07  2.0784609690821421e-07  2.0784609690822139e-07  2.0784609690821705e-07  2.0784609690820815e-07  2.0784609690824333e-07  2.0784609690821414e-07  2.0784609690821083e-07  2.0784609690822377e-07  2.0784609690822830e-07  2.0784609690822041e-07  2.0784609690821014e-07  2.0784609690822258e-07  2.0784609690822970e-07  2.0784609690821853e-07  2.0784609690822798e-07  2.0784609690821763e-07  2.0784609690822483e-07  2.0784609690820185e-07  2.0784609690821284e-07  2.0784609690823039e-07  2.0784609690821882e-07  2.0784609690820469e-07  2.0784609690821067e-07  2.0784609690819645e-07  2.0784609690822036e-07  2.0784609690823258e-07  2.0784609690820903e-07  2.0784609690822263e-07  2.0784609690821829e-07  2.0784609690822750e-07  2.0784609690822517e-07  2.0784609690823084e-07  2.0784609690822046e-07  2.0784609690825418e-07  2.0784609690822734e-07  2.0784609690822885e-07  2.0784609690822803e-07  2.0784609690821744e-07  2.0784609690822411e-07  2.0784609690822441e-07  2.0784609690822880e-07  2.0784609690821040e-07  2.0784609690822875e-07  2.0784609690821215e-07  2.0784609690822438e-07  2.0784609690823049e-07  2.0784609690820813e-07  2.0784609690821477e-07  2.0784609690820564e-07  2.0784609690819727e-07  2.0784609690820559e-07  2.0784609690821112e-07  2.0784609690821570e-07  2.0784609690823039e-07  2.0784609690821239e-07  2.0784609690823049e-07  2.0784609690821511e-07  2.0784609690820754e-07  2.0784609690822351e-07  2.0784609690822520e-07  2.0784609690822200e-07  2.0784609690821755e-07  2.0784609690823756e-07  2.0784609690822883e-07  2.0784609690822184e-07  2.0784609690822369e-07  2.0784609690823012e-07  2.0784609690820275e-07  2.0784609690822435e-07  2.0784609690822486e-07  2.0784609690822096e-07  2.0784609690821845e-07  2.0784609690823002e-07  2.0784609690821085e-07  2.0784609690822509e-07  2.0784609690822565e-07  2.0784609690822509e-07  2.0784609690820418e-07  2.0784609690822938e-07  2.0784609690821337e-07  2.0784609690822435e-07  2.0784609690822864e-07  2.0784609690821077e-07  2.0784609690822051e-07  2.0784609690820527e-07  2.0784609690822779e-07  2.0784609690822554e-07  2.0784609690820948e-07  2.0784609690823139e-07  2.0784609690821919e-07  2.0784609690821961e-07  2.0784609690826017e-07  2.0784609690822253e-07  2.0784609690822298e-07  2.0784609690821961e-07  2.0784609690822705e-07  2.0784609690822578e-07  2.0784609690820217e-07  2.0784609690822475e-07  2.0784609690824042e-07  2.0784609690819870e-07  2.0784609690822438e-07  2.0784609690822441e-07  2.0784609690822655e-07  2.0784609690821895e-07  2.0784609690822319e-07  2.0784609690823057e-07  2.0784609690822351e-07  2.0784609690822382e-07  2.0784609690822708e-07  2.0784609690822261e-07  2.0784609690822427e-07  2.0784609690821850e-07  2.0784609690821686e-07  2.0784609690822234e-07  2.0784609690822414e-07  2.0784609690821784e-07  2.0784609690822099e-07  2.0784609690823539e-07  2.0784609690821662e-07  2.0784609690821826e-07  2.0784609690822705e-07  2.0784609690822827e-07  2.0784609690821988e-07  2.0784609690821631e-07  2.0784609690823555e-07  2.0784609690822406e-07  2.0784609690822663e-07  2.0784609690822284e-07  2.0784609690822753e-07  2.0784609690822202e-07  2.0784609690822287e-07  2.0784609690822200e-07  2.0784609690822149e-07  2.0784609690822589e-07  2.0784609690822353e-07  2.0784609690823256e-07  2.0784609690819214e-07  2.0784609690822904e-07  2.0784609690822343e-07  2.0784609690822583e-07  2.0784609690822186e-07  2.0784609690822300e-07  2.0784609690822443e-07  2.0784609690820315e-07  2.0784609690822705e-07  2.0784609690822816e-07  2.0784609690820320e-07  2.0784609690823015e-07  2.0784609690822149e-07  2.0784609690821991e-07  2.0784609690822912e-07  2.0784609690822763e-07  2.0784609690822136e-07  2.0784609690822171e-07  2.0784609690822853e-07  2.0784609690822470e-07  2.0784609690822515e-07  2.0784609690822057e-07  2.0784609690822631e-07  2.0784609690822229e-07  2.0784609690822483e-07  2.0784609690820424e-07  2.0784609690822401e-07  2.0784609690823092e-07  2.0784609690820270e-07  2.0784609690822337e-07  2.0784609690822970e-07  2.0784609690820373e-07  2.0784609690823044e-07  2.0784609690822226e-07  2.0784609690822282e-07  2.0784609690823624e-07  2.0784609690822959e-07  2.0784609690822819e-07  2.0784609690822351e-07  2.0784609690823007e-07  2.0784609690823168e-07  2.0784609690821387e-07  2.0784609690822171e-07  2.0784609690822486e-07  2.0784609690822541e-07  2.0784609690822488e-07  2.0784609690822012e-07  2.0784609690823550e-07  2.0784609690823468e-07  2.0784609690821853e-07  2.0784609690821874e-07  2.0784609690822073e-07  2.0784609690822398e-07  2.0784609690822718e-07  2.0784609690822708e-07  2.0784609690822202e-07  2.0784609690822306e-07  2.0784609690822417e-07  2.0784609690821702e-07  2.0784609690823052e-07  2.0784609690822216e-07  2.0784609690821988e-07  2.0784609690823269e-07  2.0784609690821609e-07  2.0784609690823076e-07  2.0784609690822957e-07  2.0784609690821575e-07  2.0784609690823258e-07  2.0784609690822316e-07  2.0784609690820339e-07  2.0784609690822843e-07  2.0784609690822205e-07  2.0784609690821398e-07  2.0784609690825784e-07  2.0784609690822912e-07  2.0784609690822488e-07  2.0784609690822313e-07  2.0784609690822462e-07  2.0784609690822856e-07  2.0784609690822896e-07  2.0784609690822030e-07  2.0784609690821308e-07  2.0784609690823356e-07  2.0784609690821376e-07  2.0784609690823303e-07  2.0784609690820527e-07  2.0784609690823867e-07  2.0784609690818674e-07  2.0784609690821006e-07  2.0784609690821559e-07  2.0784609690820749e-07  2.0784609690822742e-07  2.0784609690822856e-07  2.0784609690822568e-07  2.0784609690823258e-07  2.0784609690822568e-07  2.0784609690822422e-07  2.0784609690822515e-07  2.0784609690823356e-07  2.0784609690822703e-07  2.0784609690823012e-07  2.0784609690822390e-07  2.0784609690822642e-07  2.0784609690821609e-07  2.0784609690820588e-07  2.0784609690821548e-07  2.0784609690819301e-07  2.0784609690822210e-07  2.0784609690823018e-07  2.0784609690823362e-07  2.0784609690821308e-07  2.0784609690821919e-07  2.0784609690826157e-07  2.0784609690821779e-07  2.0784609690821657e-07  2.0784609690822734e-07  2.0784609690821580e-07  2.0784609690821922e-07  2.0784609690822766e-07  2.0784609690822835e-07  2.0784609690823724e-07  2.0784609690822123e-07  2.0784609690824053e-07  2.0784609690822996e-07  2.0784609690821776e-07  2.0784609690822345e-07  2.0784609690821789e-07  2.0784609690818780e-07  2.0784609690820154e-07  2.0784609690825109e-07  2.0784609690823499e-07  2.0784609690821366e-07  2.0784609690818851e-07  2.0784609690823282e-07  2.0784609690821985e-07  2.0784609690821623e-07  2.0784609690823229e-07  2.0784609690820842e-07  2.0784609690822369e-07  2.0784609690822766e-07  2.0784609690822891e-07  2.0784609690821244e-07  2.0784609690823253e-07  2.0784609690822144e-07  2.0784609690821877e-07  2.0784609690822014e-07  2.0784609690822300e-07  2.0784609690822258e-07  2.0784609690822313e-07  2.0784609690821324e-07  2.0784609690825424e-07  2.0784609690820071e-07  2.0784609690821167e-07  2.0784609690822028e-07  2.0784609690820635e-07  2.0784609690820757e-07  2.0784609690822753e-07  2.0784609690822448e-07  2.0784609690822422e-07  2.0784609690821726e-07  2.0784609690821268e-07  2.0784609690822909e-07  2.0784609690822631e-07  2.0784609690822171e-07  2.0784609690822975e-07  2.0784609690822443e-07  2.0784609690823616e-07  2.0784609690821324e-07  2.0784609690822221e-07  2.0784609690822507e-07  2.0784609690821347e-07  2.0784609690822986e-07  2.0784609690823282e-07  2.0784609690822268e-07  2.0784609690819410e-07  2.0784609690821818e-07  2.0784609690821120e-07  2.0784609690820911e-07  2.0784609690822565e-07  2.0784609690822933e-07  2.0784609690822565e-07  2.0784609690822946e-07  2.0784609690822869e-07  2.0784609690822676e-07  2.0784609690822512e-07  2.0784609690822898e-07  2.0784609690822610e-07  2.0784609690822504e-07  2.0784609690822647e-07  2.0784609690825699e-07  2.0784609690824045e-07  2.0784609690821099e-07  2.0784609690823145e-07  2.0784609690820908e-07  2.0784609690822372e-07  2.0784609690821975e-07  2.0784609690822753e-07  2.0784609690821644e-07  2.0784609690821556e-07  2.0784609690820344e-07  2.0784609690822136e-07  2.0784609690823280e-07  2.0784609690820566e-07  2.0784609690822711e-07  2.0784609690822618e-07  2.0784609690822454e-07  2.0784609690824254e-07  2.0784609690823587e-07  2.0784609690820844e-07  2.0784609690823153e-07  2.0784609690820815e-07  2.0784609690822369e-07  2.0784609690822779e-07  2.0784609690821429e-07  2.0784609690823478e-07  2.0784609690820768e-07  2.0784609690822319e-07  2.0784609690821660e-07  2.0784609690823317e-07  2.0784609690820439e-07  2.0784609690823274e-07  2.0784609690822681e-07  2.0784609690822912e-07  2.0784609690824095e-07  2.0784609690821580e-07  2.0784609690822380e-07  2.0784609690822435e-07  2.0784609690823023e-07  2.0784609690822186e-07  2.0784609690822414e-07  2.0784609690822411e-07  2.0784609690821048e-07  2.0784609690822668e-07  2.0784609690822184e-07  2.0784609690822173e-07  2.0784609690823438e-07  2.0784609690822118e-07  2.0784609690822610e-07  2.0784609690823110e-07  2.0784609690820389e-07  2.0784609690822525e-07  2.0784609690822867e-07  2.0784609690819997e-07  2.0784609690822793e-07  2.0784609690822441e-07  2.0784609690822663e-07  2.0784609690822626e-07  2.0784609690822435e-07  2.0784609690822726e-07  2.0784609690820336e-07  2.0784609690822459e-07  2.0784609690822893e-07  2.0784609690821837e-07  2.0784609690823356e-07  2.0784609690822507e-07  2.0784609690822644e-07  2.0784609690821879e-07  2.0784609690822083e-07  2.0784609690822430e-07  2.0784609690822054e-07  2.0784609690822570e-07  2.0784609690819704e-07  2.0784609690822779e-07  2.0784609690822811e-07  2.0784609690821829e-07  2.0784609690822864e-07  2.0784609690822435e-07  2.0784609690822803e-07  2.0784609690820204e-07  2.0784609690822861e-07  2.0784609690822740e-07  2.0784609690822366e-07  2.0784609690822859e-07  2.0784609690820585e-07  2.0784609690822509e-07  2.0784609690822875e-07  2.0784609690822443e-07  2.0784609690822329e-07  2.0784609690822965e-07  2.0784609690823383e-07  2.0784609690820442e-07  2.0784609690822713e-07  2.0784609690822126e-07  2.0784609690822401e-07  2.0784609690822332e-07  2.0784609690821948e-07  2.0784609690823213e-07  2.0784609690821244e-07  2.0784609690820413e-07  2.0784609690822883e-07  2.0784609690822327e-07  2.0784609690822202e-07  2.0784609690822779e-07  2.0784609690822621e-07  2.0784609690823039e-07  2.0784609690821593e-07  2.0784609690822692e-07  2.0784609690822065e-07  2.0784609690822176e-07  2.0784609690822568e-07  2.0784609690822107e-07  2.0784609690822684e-07  2.0784609690822726e-07  2.0784609690822022e-07  2.0784609690822366e-07  2.0784609690825807e-07  2.0784609690823296e-07  2.0784609690822560e-07  2.0784609690822793e-07  2.0784609690822605e-07  2.0784609690822099e-07  2.0784609690822981e-07  2.0784609690822208e-07  2.0784609690822070e-07  2.0784609690822785e-07  2.0784609690822245e-07  2.0784609690822523e-07  2.0784609690821498e-07  2.0784609690822414e-07  2.0784609690822046e-07  2.0784609690822192e-07  2.0784609690822748e-07  2.0784609690821324e-07  2.0784609690822742e-07  2.0784609690822488e-07  2.0784609690820122e-07  2.0784609690822904e-07  2.0784609690822438e-07  2.0784609690822057e-07  2.0784609690822875e-07  2.0784609690822607e-07  2.0784609690821448e-07  2.0784609690822366e-07  2.0784609690821858e-07  2.0784609690822081e-07  2.0784609690822679e-07  2.0784609690822965e-07  2.0784609690821705e-07  2.0784609690822726e-07  2.0784609690822888e-07  2.0784609690822986e-07  2.0784609690822673e-07  2.0784609690823105e-07  2.0784609690821805e-07  2.0784609690822981e-07  2.0784609690821922e-07  2.0784609690822141e-07  2.0784609690823703e-07  2.0784609690821932e-07  2.0784609690820246e-07  2.0784609690823420e-07  2.0784609690822967e-07  2.0784609690821967e-07  2.0784609690822663e-07  2.0784609690822703e-07  2.0784609690822975e-07  2.0784609690822430e-07  2.0784609690822253e-07  2.0784609690820842e-07  2.0784609690822573e-07  2.0784609690822756e-07  2.0784609690822491e-07  2.0784609690822687e-07  2.0784609690823047e-07  2.0784609690821572e-07  2.0784609690822610e-07  2.0784609690822149e-07  2.0784609690822536e-07  2.0784609690822583e-07  2.0784609690822930e-07  2.0784609690822496e-07  2.0784609690822594e-07  2.0784609690823595e-07  2.0784609690820146e-07  2.0784609690822298e-07  2.0784609690823100e-07  2.0784609690821755e-07  2.0784609690823438e-07  2.0784609690822200e-07  2.0784609690822663e-07  2.0784609690822118e-07  2.0784609690822533e-07  2.0784609690822358e-07  2.0784609690822396e-07  2.0784609690822118e-07  2.0784609690819693e-07  2.0784609690822983e-07  2.0784609690821898e-07  2.0784609690825196e-07  2.0784609690821260e-07  2.0784609690823251e-07  2.0784609690819934e-07  2.0784609690823444e-07  2.0784609690820709e-07  2.0784609690822988e-07  2.0784609690823430e-07  2.0784609690820855e-07  2.0784609690822557e-07  2.0784609690822501e-07  2.0784609690820209e-07  2.0784609690823113e-07  2.0784609690822102e-07  2.0784609690822493e-07  2.0784609690822478e-07  2.0784609690822898e-07  2.0784609690822258e-07  2.0784609690822152e-07  2.0784609690820905e-07  2.0784609690822388e-07  2.0784609690822615e-07  2.0784609690822705e-07  2.0784609690822811e-07  2.0784609690822848e-07  2.0784609690821072e-07  2.0784609690822528e-07  2.0784609690821654e-07  2.0784609690823110e-07  2.0784609690820686e-07  2.0784609690823457e-07  2.0784609690821511e-07  2.0784609690823822e-07  2.0784609690820908e-07  2.0784609690825969e-07  2.0784609690823049e-07  2.0784609690821996e-07  2.0784609690822366e-07  2.0784609690823166e-07  2.0784609690818886e-07  2.0784609690821001e-07  2.0784609690822390e-07  2.0784609690822914e-07  2.0784609690822687e-07  2.0784609690821575e-07  2.0784609690821972e-07  2.0784609690821816e-07  2.0784609690821940e-07  2.0784609690822737e-07  2.0784609690820699e-07  2.0784609690822811e-07  2.0784609690822546e-07  2.0784609690820836e-07  2.0784609690823579e-07  2.0784609690821993e-07  2.0784609690822443e-07  2.0784609690822515e-07  2.0784609690821154e-07  2.0784609690821705e-07  2.0784609690820744e-07  2.0784609690821853e-07  2.0784609690820961e-07  2.0784609690822544e-07  2.0784609690821477e-07  2.0784609690822978e-07  2.0784609690821646e-07  2.0784609690821832e-07  2.0784609690822856e-07  2.0784609690821731e-07  2.0784609690822949e-07  2.0784609690822102e-07  2.0784609690821803e-07  2.0784609690822226e-07  2.0784609690822486e-07  2.0784609690822578e-07  2.0784609690823055e-07  2.0784609690821411e-07  2.0784609690824953e-07  2.0784609690822999e-07  2.0784609690821993e-07  2.0784609690822798e-07  2.0784609690822464e-07  2.0784609690822229e-07  2.0784609690821943e-07  2.0784609690822626e-07  2.0784609690822750e-07  2.0784609690822673e-07  2.0784609690822284e-07  2.0784609690821877e-07  2.0784609690822822e-07  2.0784609690820561e-07  2.0784609690821914e-07  2.0784609690822065e-07  2.0784609690818070e-07  2.0784609690823693e-07  2.0784609690822885e-07  2.0784609690822147e-07  2.0784609690820701e-07  2.0784609690821019e-07  2.0784609690822073e-07  2.0784609690822848e-07  2.0784609690822983e-07  2.0784609690820776e-07  2.0784609690822478e-07  2.0784609690823229e-07  2.0784609690822999e-07  2.0784609690821638e-07  2.0784609690820384e-07  2.0784609690819524e-07  2.0784609690822644e-07  2.0784609690822507e-07  2.0784609690821832e-07  2.0784609690821498e-07  2.0784609690823015e-07  2.0784609690822096e-07  2.0784609690822840e-07  2.0784609690821946e-07  2.0784609690822258e-07  2.0784609690822536e-07  2.0784609690822936e-07  2.0784609690822621e-07  2.0784609690822750e-07  2.0784609690822181e-07  2.0784609690822351e-07  2.0784609690822433e-07  2.0784609690822380e-07  2.0784609690822906e-07  2.0784609690822523e-07  2.0784609690823206e-07  2.0784609690820731e-07  2.0784609690821972e-07  2.0784609690819272e-07  2.0784609690821202e-07  2.0784609690822951e-07  2.0784609690822478e-07  2.0784609690823086e-07  2.0784609690822644e-07  2.0784609690819828e-07  2.0784609690822872e-07  2.0784609690822396e-07  2.0784609690822152e-07  2.0784609690822793e-07  2.0784609690822644e-07  2.0784609690821818e-07  2.0784609690822128e-07  2.0784609690822136e-07  2.0784609690821914e-07  2.0784609690823232e-07  2.0784609690821024e-07  2.0784609690822001e-07  2.0784609690823081e-07  2.0784609690822478e-07  2.0784609690821138e-07  2.0784609690823163e-07  2.0784609690820754e-07  2.0784609690821059e-07  2.0784609690820987e-07  2.0784609690822991e-07  2.0784609690821715e-07  2.0784609690822380e-07  2.0784609690822734e-07  2.0784609690821908e-07  2.0784609690824648e-07  2.0784609690823251e-07  2.0784609690821996e-07  2.0784609690821964e-07  2.0784609690822779e-07  2.0784609690822184e-07  2.0784609690822938e-07  2.0784609690820376e-07  2.0784609690822570e-07  2.0784609690823354e-07  2.0784609690821879e-07  2.0784609690823010e-07  2.0784609690823311e-07  2.0784609690821480e-07  2.0784609690822552e-07  2.0784609690822777e-07  2.0784609690820405e-07  2.0784609690822695e-07  2.0784609690823049e-07  2.0784609690820167e-07  2.0784609690822872e-07  2.0784609690822920e-07  2.0784609690822552e-07  2.0784609690822920e-07  2.0784609690822891e-07  2.0784609690822568e-07  2.0784609690822163e-07  2.0784609690822946e-07  2.0784609690822875e-07  2.0784609690822692e-07  2.0784609690822756e-07  2.0784609690822981e-07  2.0784609690822578e-07  2.0784609690822237e-07  2.0784609690822994e-07  2.0784609690822499e-07  2.0784609690822509e-07  2.0784609690822430e-07  2.0784609690822504e-07  2.0784609690822861e-07  2.0784609690822568e-07  2.0784609690822835e-07  2.0784609690822202e-07  2.0784609690823065e-07  2.0784609690822761e-07  2.0784609690822377e-07  2.0784609690822411e-07  2.0784609690822374e-07  2.0784609690820651e-07  2.0784609690822671e-07  2.0784609690822994e-07  2.0784609690821975e-07  2.0784609690823227e-07  2.0784609690822139e-07  2.0784609690822597e-07  2.0784609690822271e-07  2.0784609690822435e-07  2.0784609690822369e-07  2.0784609690822419e-07  2.0784609690822949e-07  2.0784609690821927e-07  2.0784609690822631e-07  2.0784609690822613e-07  2.0784609690822141e-07  2.0784609690822700e-07  2.0784609690820408e-07  2.0784609690822814e-07  2.0784609690822107e-07  2.0784609690822046e-07  2.0784609690823071e-07  2.0784609690821713e-07  2.0784609690823330e-07  2.0784609690821805e-07  2.0784609690821792e-07  2.0784609690823536e-07  2.07846