<?xml version="1.0"?>
<VTKFile type="UnstructuredGrid"  version="0.1"  >
<UnstructuredGrid>
<Piece  NumberOfPoints="3879" NumberOfCells="6881">
<Points>
<DataArray  type="Float64"  NumberOfComponents="3"  format="ascii">0.207524190028372 0.2122422770132111 0  0 0 0  1 0 0  0 1 0  1 1 0  0.6249674373315121 0.2590146544375328 0  0.204663578893616 0.322657230836866 0  0.09605577522599912 0.4018360776629776 0  0.671351124618251 0.08738059142081528 0  0.7842102907526436 0.1666439122351055 0  0.8512483166984784 0.1985391006160637 0  0.6418797837909295 0.4423157172830166 0  0.9292488447973215 0.3869277868069776 0  0.3197896119137055 0.5509935221980964 0  0.3979283685568406 0.5079871620336583 0  0.1572503457993085 0.7345153245035532 0  0.3032914287999163 0.7872981443735918 0  0.3549464687598876 0.8870324161721976 0  0.9691791685505482 0.5159450047798622 0  0.9447564590470373 0.6146164845729313 0  0.7687603548175107 0.7176858127488035 0  0.8926159261971183 0.7422924070424508 0  0.2061587782631535 0.2217389244366831 0  0.2021731605082994 0.2304662099646423 0  0.1958902278109265 0.2377171008267789 0  0.1878189860121365 0.2429041729681512 0  0.1786133191209442 0.2456072006525708 0  0.1690190155206647 0.2456072006525708 0  0.1598133486294724 0.2429041729681512 0  0.1517421068306824 0.2377171008267789 0  0.1454591741333096 0.2304662099646422 0  0.1414735563784554 0.221738924436683 0  0.1401081446132369 0.212242277013211 0  0.1414735563784555 0.202745629589739 0  0.1454591741333096 0.1940183440617798 0  0.1517421068306825 0.1867674531996431 0  0.1598133486294725 0.1815803810582709 0  0.1690190155206649 0.1788773533738513 0  0.1786133191209443 0.1788773533738514 0  0.1878189860121367 0.181580381058271 0  0.1958902278109266 0.1867674531996433 0  0.2021731605082994 0.19401834406178 0  0.2061587782631535 0.2027456295897391 0  0.03333333333333333 0 0  0.06666666666666667 0 0  0.1 0 0  0.1333333333333333 0 0  0.1666666666666667 0 0  0.2 0 0  0.2333333333333333 0 0  0.2666666666666667 0 0  0.3 0 0  0.3333333333333333 0 0  0.3666666666666666 0 0  0.4 0 0  0.4333333333333333 0 0  0.4666666666666667 0 0  0.5 0 0  0.5333333333333333 0 0  0.5666666666666667 0 0  0.6 0 0  0.6333333333333333 0 0  0.6666666666666666 0 0  0.7 0 0  0.7333333333333333 0 0  0.7666666666666667 0 0  0.8 0 0  0.8333333333333334 0 0  0.8666666666666667 0 0  0.9 0 0  0.9333333333333333 0 0  0.9666666666666667 0 0  0 0.9666666666666667 0  0 0.9333333333333333 0  0 0.9 0  0 0.8666666666666667 0  0 0.8333333333333334 0  0 0.8 0  0 0.7666666666666666 0  0 0.7333333333333334 0  0 0.7 0  0 0.6666666666666667 0  0 0.6333333333333333 0  0 0.6 0  0 0.5666666666666667 0  0 0.5333333333333333 0  0 0.5 0  0 0.4666666666666667 0  0 0.4333333333333333 0  0 0.4 0  0 0.3666666666666667 0  0 0.3333333333333334 0  0 0.3 0  0 0.2666666666666667 0  0 0.2333333333333333 0  0 0.2 0  0 0.1666666666666666 0  0 0.1333333333333333 0  0 0.09999999999999998 0  0 0.06666666666666665 0  0 0.03333333333333333 0  1 0.03333333333333333 0  1 0.06666666666666667 0  1 0.1 0  1 0.1333333333333333 0  1 0.1666666666666667 0  1 0.2 0  1 0.2333333333333333 0  1 0.2666666666666667 0  1 0.3 0  1 0.3333333333333333 0  1 0.3666666666666666 0  1 0.4 0  1 0.4333333333333333 0  1 0.4666666666666667 0  1 0.5 0  1 0.5333333333333333 0  1 0.5666666666666667 0  1 0.6 0  1 0.6333333333333333 0  1 0.6666666666666666 0  1 0.7 0  1 0.7333333333333333 0  1 0.7666666666666667 0  1 0.8 0  1 0.8333333333333334 0  1 0.8666666666666667 0  1 0.9 0  1 0.9333333333333333 0  1 0.9666666666666667 0  0.9666666666666667 1 0  0.9333333333333333 1 0  0.9 1 0  0.8666666666666667 1 0  0.8333333333333334 1 0  0.8 1 0  0.7666666666666666 1 0  0.7333333333333334 1 0  0.7 1 0  0.6666666666666667 1 0  0.6333333333333333 1 0  0.6 1 0  0.5666666666666667 1 0  0.5333333333333333 1 0  0.5 1 0  0.4666666666666667 1 0  0.4333333333333333 1 0  0.4 1 0  0.3666666666666667 1 0  0.3333333333333334 1 0  0.3 1 0  0.2666666666666667 1 0  0.2333333333333333 1 0  0.2 1 0  0.1666666666666666 1 0  0.1333333333333333 1 0  0.09999999999999998 1 0  0.06666666666666665 1 0  0.03333333333333333 1 0  0.6247072676344306 0.2689501343248463 0  0.6239274716502419 0.2788583817523955 0  0.6226301867455355 0.2887122389026952 0  0.6208189686880621 0.2984846970382296 0  0.6184987819006211 0.3081489705305245 0  0.6156759858539226 0.317678570277693 0  0.6123583176357204 0.3270473763092224 0  0.6085548707439923 0.3362297093789981 0  0.6042760701622942 0.3452004013503318 0  0.5995336437856049 0.3539348641800754 0  0.5943405902749808 0.3624091573127375 0  0.5887111434291297 0.3706000532998825 0  0.582660733170558 0.3784851014649517 0  0.5762059432532257 0.3860426894390078 0  0.5693644658076293 0.3932521023987353 0  0.5621550528479018 0.4000935798443317 0  0.5545974648738458 0.4065483697616639 0  0.5467124167087765 0.4125987800202355 0  0.5385215207216315 0.4182282268660866 0  0.5300472275889694 0.4234212803767108 0  0.5213127647592257 0.4281637067534002 0  0.512342072787892 0.4324425073350981 0  0.5031597397181163 0.4362459542268262 0  0.493790933686587 0.4395636224450283 0  0.4842613339394185 0.4423864184917269 0  0.4745970604471235 0.4447066052791678 0  0.4648246023115891 0.4465178233366412 0  0.4549707451612894 0.4478151082413475 0  0.4450624977337403 0.4485949042255363 0  0.4351270178464268 0.4488550739226177 0  0.4251915379591132 0.4485949042255363 0  0.4152832905315641 0.4478151082413475 0  0.4054294333812644 0.4465178233366411 0  0.39565697524573 0.4447066052791677 0  0.385992701753435 0.4423864184917267 0  0.3764631020062665 0.4395636224450281 0  0.3670942959747371 0.4362459542268259 0  0.3579119629049616 0.4324425073350978 0  0.3489412709336278 0.4281637067533998 0  0.3402068081038843 0.4234212803767103 0  0.3317325149712221 0.4182282268660862 0  0.3235416189840771 0.412598780020235 0  0.3156565708190078 0.4065483697616634 0  0.3080989828449519 0.4000935798443311 0  0.3008895698852244 0.3932521023987346 0  0.2940480924396279 0.3860426894390071 0  0.2875933025222958 0.3784851014649511 0  0.2815428922637242 0.3706000532998818 0  0.2759134454178731 0.3624091573127368 0  0.2707203919072489 0.3539348641800746 0  0.2659779655305596 0.3452004013503309 0  0.2616991649488616 0.3362297093789972 0  0.2578957180571336 0.3270473763092215 0  0.2545780498389315 0.3176785702776921 0  0.251755253792233 0.3081489705305236 0  0.249435067004792 0.2984846970382286 0  0.2476238489473186 0.2887122389026941 0  0.2463265640426123 0.2788583817523945 0  0.2455467680584236 0.2689501343248454 0  0.2452865983613423 0.2590146544375318 0  0.2455467680584237 0.2490791745502182 0  0.2463265640426126 0.2391709271226692 0  0.247623848947319 0.2293170699723696 0  0.2494350670047924 0.2195446118368351 0  0.2517552537922335 0.2098803383445402 0  0.2545780498389321 0.2003507385973717 0  0.2578957180571343 0.1909819325658423 0  0.2616991649488624 0.1817995994960667 0  0.2659779655305604 0.172828907524733 0  0.2707203919072498 0.1640944446949895 0  0.2759134454178741 0.1556201515623273 0  0.2815428922637251 0.1474292555751825 0  0.2875933025222969 0.1395442074101132 0  0.2940480924396291 0.1319866194360571 0  0.3008895698852256 0.1247772064763297 0  0.3080989828449531 0.1179357290307334 0  0.3156565708190092 0.1114809391134012 0  0.3235416189840785 0.1054305288548295 0  0.3317325149712236 0.09980108200897844 0  0.3402068081038856 0.0946080284983544 0  0.3489412709336291 0.08986560212166514 0  0.357911962904963 0.08558680153996717 0  0.3670942959747386 0.08178335464823916 0  0.3764631020062678 0.07846568643003712 0  0.3859927017534364 0.0756428903833386 0  0.3956569752457313 0.0733227035958976 0  0.4054294333812659 0.07151148553842429 0  0.4152832905315654 0.07021420063371797 0  0.4251915379591144 0.0694344046495293 0  0.435127017846428 0.0691742349524479 0  0.4450624977337415 0.06943440464952938 0  0.4549707451612905 0.07021420063371814 0  0.4648246023115901 0.07151148553842454 0  0.4745970604471245 0.07332270359589793 0  0.4842613339394195 0.07564289038333902 0  0.4937909336865879 0.07846568643003757 0  0.5031597397181173 0.0817833546482398 0  0.5123420727878929 0.08558680153996781 0  0.5213127647592265 0.08986560212166581 0  0.53004722758897 0.0946080284983552 0  0.5385215207216321 0.09980108200897933 0  0.5467124167087771 0.1054305288548305 0  0.5545974648738462 0.1114809391134021 0  0.5621550528479023 0.1179357290307343 0  0.5693644658076298 0.1247772064763308 0  0.576205943253226 0.1319866194360582 0  0.5826607331705582 0.1395442074101142 0  0.5887111434291299 0.1474292555751835 0  0.594340590274981 0.1556201515623285 0  0.5995336437856051 0.1640944446949906 0  0.6042760701622945 0.172828907524734 0  0.6085548707439925 0.1817995994960678 0  0.6123583176357205 0.1909819325658435 0  0.6156759858539227 0.2003507385973728 0  0.6184987819006211 0.2098803383445412 0  0.6208189686880622 0.2195446118368362 0  0.6226301867455355 0.2293170699723706 0  0.6239274716502419 0.2391709271226702 0  0.6247072676344306 0.2490791745502192 0  0.203885768735257 0.3325402459548524 0  0.2015714905276826 0.3421799084407872 0  0.1977777294810124 0.3513388578120612 0  0.1925979005829864 0.3597915703383434 0  0.1861595484119405 0.3673299121842922 0  0.1786212065659918 0.373768264355338 0  0.1701684940397096 0.378948093253364 0  0.1610095446684356 0.3827418543000342 0  0.1513698821825007 0.3850561325076086 0  0.1414868670645144 0.3858339426659677 0  0.1316038519465281 0.3850561325076086 0  0.1219641894605933 0.3827418543000343 0  0.1128052400893193 0.378948093253364 0  0.1043525275630371 0.3737682643553381 0  0.09681418571708833 0.3673299121842922 0  0.09037583354604248 0.3597915703383434 0  0.08519600464801645 0.3513388578120612 0  0.08140224360134621 0.3421799084407872 0  0.07908796539377183 0.3325402459548523 0  0.07831015523541281 0.3226572308368659 0  0.07908796539377186 0.3127742157188796 0  0.08140224360134626 0.3031345532329447 0  0.08519600464801655 0.2939756038616707 0  0.0903758335460426 0.2855228913353884 0  0.0968141857
[...]
<PointData  Scalars="$\epsilon_{VM}$"> 
<DataArray  type="Float64"  Name="$\epsilon_{VM}$"  format="ascii">2.6108122339375465e-03  1.2097657576959581e-03  1.4519648806847973e-03  1.3884987386319440e-03  1.3258327053480305e-03  2.6567179552484796e-03  2.5930121445130131e-04  2.8182541864470276e-03  2.5176559581853936e-03  1.6008328089169271e-04  4.6020891937438834e-05  1.4712606034559491e-03  3.4867327988393876e-03  2.7602463057459651e-03  3.1739864490517092e-04  1.9967651004478647e-04  1.7231172268278487e-03  2.0243320705934588e-03  5.9595242884052275e-03  3.2362168896104982e-03  2.0409939248250313e-03  1.0939588322295506e-03  1.6542432625588951e-03  6.4974191155677073e-04  7.4970467883223220e-04  9.7699226214926203e-04  8.8288074536656822e-04  1.1278571289242869e-03  2.3673728028199728e-03  2.7454025425637020e-03  2.1441092393292885e-03  1.3237507066969161e-03  1.0203779609151218e-03  5.0276434126216138e-04  1.8774499486954839e-04  4.2304365449978261e-04  7.1429382505023610e-04  6.2591133308691010e-04  2.9644884276083903e-04  5.1427192718947825e-04  1.2475139621820138e-03  2.1730792976117365e-03  2.4442412771815600e-03  1.0899862945987137e-03  1.0016315301472336e-03  7.4616779094358239e-04  6.5241893773918978e-04  5.0815246512417919e-04  3.9499961217668493e-04  2.9400529640509672e-04  2.0783604102604699e-04  1.0521200037521511e-04  4.1708313883171172e-05  5.4949588043253135e-05  6.9306445386772700e-05  9.0046004426219467e-05  1.1386489164811573e-04  2.1602646607782084e-04  3.7570354953608419e-04  5.6323869190585702e-04  5.1545871721018664e-04  2.4652970478833414e-04  4.1891464886373016e-04  4.8053768004387940e-04  2.4354134834170407e-04  1.0022985603652761e-04  1.6749872453819705e-04  3.1525817244135228e-04  5.1667151967329866e-04  7.4432178535645700e-04  1.0270021694985835e-03  1.2231475491287936e-03  1.4192179949992733e-03  1.4560065417933991e-03  1.4903146197761924e-03  1.5311786270659040e-03  1.5825931219271673e-03  1.6024630921088771e-03  1.7310151069265885e-03  1.8746960115029426e-03  2.0750972837729875e-03  2.0512573582619742e-03  1.7788668764485106e-03  1.3321700855453576e-03  7.1401953720959287e-04  8.3650067557904345e-04  1.6248224930468466e-03  2.4009915817330596e-03  2.5686809801652431e-03  1.8518606498217633e-03  2.2249637925771397e-03  2.0882451299756872e-03  1.6422358131928897e-03  1.5026941034629192e-03  1.4800040595758176e-03  1.4533658998302978e-03  1.4410302520342195e-03  1.4241033825526182e-03  1.4106254911865743e-03  1.3303781327908934e-03  1.3924381673988083e-03  1.4767995199603482e-03  1.4882375134596959e-03  1.5658803315396898e-03  1.6312738381600786e-03  1.6959856031346148e-03  1.8116938619453812e-03  1.8520007087546348e-03  1.7813357982406821e-03  1.5945100489419657e-03  1.2224093123638874e-03  8.6787450860504678e-04  8.9470603938863005e-04  1.4576983014936058e-03  2.0764721072358988e-03  1.9778449203354878e-03  2.7368307559557273e-03  3.0210226476003049e-03  1.9061716238588718e-03  1.2739807009552518e-03  1.4296180762503607e-03  1.5835813321650577e-03  1.5800132442811946e-03  1.5452522217321847e-03  1.5233829368110029e-03  1.4884130667791409e-03  1.4248894991345541e-03  1.3899190078996023e-03  1.3561915259629545e-03  1.3422790171708069e-03  1.1616648820316536e-03  1.0090475570591231e-03  8.3021808891726025e-04  6.9122308960635622e-04  5.4320445812565225e-04  4.0862364651252005e-04  2.9200582152316240e-04  1.6003653132188678e-04  6.1411678008237633e-05  3.6894392909292100e-05  6.7312787019677763e-05  8.5248519137491480e-05  1.0543359821074764e-04  1.0672718209704162e-04  1.3953403160971240e-04  2.1126280192031014e-04  3.4150614708641953e-04  4.7713794475034521e-04  4.6647016395851454e-04  2.8429926013007168e-04  1.5977922837869974e-04  2.7883330722492246e-04  3.3718814876151150e-04  3.3361023256411150e-04  3.9039814836167415e-04  5.5756512742097676e-04  7.3713702207871929e-04  9.6115532950165230e-04  1.1891127392170519e-03  2.4517784926172269e-03  2.1887055034303222e-03  2.0044884178559604e-03  1.7824664078452000e-03  1.5452574130082636e-03  1.2401047712404993e-03  9.3925891431298318e-04  5.7411569818688519e-04  3.8702715252491129e-04  1.7046796372235294e-04  7.9886389225593596e-05  6.6826402639448380e-05  1.5757913000306702e-04  3.6264098460199256e-04  6.0519207340269641e-04  9.5333051675876345e-04  1.2458739120157693e-03  1.4598472758963494e-03  1.4975499491276180e-03  1.4976525806932697e-03  1.4173375906509594e-03  1.2531582764771971e-03  1.0484600772164903e-03  7.8818645219019508e-04  5.1233472544921224e-04  2.3248442116945901e-04  1.0114402667224940e-04  1.8174803124649126e-04  3.9365847189260243e-04  5.4966253361166941e-04  7.0145557828037012e-04  8.5841836322560997e-04  1.0961054280851307e-03  1.3946792722061049e-03  1.7123196877223070e-03  1.9058773172485790e-03  2.0013293685194511e-03  1.9793197373881443e-03  1.8620244851040889e-03  1.5525285765186825e-03  1.0551852613037791e-03  4.1089763050318641e-04  3.4536903602549150e-04  8.8272826123912912e-04  1.7285950638924890e-03  2.1900099081633363e-03  2.6233045502164318e-03  2.8730143123779283e-03  2.9746655968818400e-03  2.9824998439521816e-03  2.9466745756313449e-03  2.9592560194548353e-03  2.9077177802237894e-03  2.8602013131506631e-03  2.7192917262037499e-03  2.4934405622636657e-03  2.1994957987053858e-03  1.9420839693994755e-03  1.7863987011001591e-03  1.7124704775324710e-03  1.6031605047422258e-03  1.3009112255788185e-03  9.2845920447983234e-04  4.9606805085731934e-04  2.4728800243883057e-04  1.7219120250773045e-04  1.8140298929693937e-04  2.1316294244516339e-04  2.0681035169915882e-04  1.7171831386098062e-04  1.0585545276686695e-04  4.3883951613638712e-05  2.1787578821577118e-05  7.5989564218079437e-05  1.3265765406952351e-04  1.8061202155630370e-04  2.0976749386449425e-04  2.3329490779119109e-04  2.4606762896736814e-04  2.3975001395110852e-04  2.3552384564004536e-04  2.2996371088649365e-04  2.1402282058868188e-04  2.0135015792455100e-04  1.9291425718392710e-04  1.8227843108681852e-04  1.7852872615515617e-04  1.7394413351144342e-04  1.7122036309345713e-04  1.7288757377571031e-04  1.7706325736881846e-04  1.7119990411958727e-04  1.6003450557262988e-04  1.6035350284421745e-04  1.2832891326900172e-04  9.6753385197439321e-05  4.5441771088161733e-05  1.3104955852638575e-05  3.0414125999895176e-05  6.8156742649325963e-05  7.0616870633841635e-05  5.5329935668111009e-05  7.6531377527980980e-05  1.7353547349744053e-04  1.4921576711517768e-04  1.2707176345050911e-04  1.7176617617619154e-04  4.0416805780942928e-04  5.3829567660907177e-04  6.2438305013693589e-04  7.0000002728556063e-04  9.3846047884546611e-04  1.3903200228287623e-03  1.9797959409230577e-03  2.5129069938452609e-03  2.9045140694366782e-03  3.0597819100349312e-03  3.0787706588027647e-03  2.8819906782084608e-03  2.5833050221328677e-04  2.7145078226395523e-04  2.3740248290869651e-04  5.4907626479006272e-04  1.1101893308207277e-03  1.5764425122701924e-03  1.6085071883104533e-03  1.0611879189072625e-03  6.8043957786216081e-04  2.9096107266179629e-04  1.1008730661829448e-03  1.7007552675152441e-03  3.4973777523744842e-03  2.1262925667027244e-03  1.7670616679524190e-03  1.6794401019436776e-03  1.9778782876411606e-03  1.5148507395460569e-03  1.4962497588435228e-03  1.7082916354640735e-03  1.8790975062073388e-03  1.8188245884157102e-03  1.5686836830137035e-03  1.1908333731529925e-03  7.6267039683008335e-04  3.6176309160333947e-04  1.4176260890166821e-04  2.4882337403292693e-04  4.7151409092868280e-04  5.4504544909065374e-04  5.0192805136078705e-04  1.7754325445220212e-03  2.4771964231274520e-03  2.4729491893264594e-03  1.9999154130139591e-03  1.5196727592476237e-03  1.2405304231218187e-03  9.0803914380509058e-04  4.9776950624383072e-04  2.0170863149944832e-03  1.0415779824098814e-03  9.4924933093577725e-04  2.0456565139084894e-03  2.3034609832928723e-03  1.1613593173360639e-03  1.6660533387792664e-03  3.6083285449996570e-03  5.0259434681957900e-03  4.3654824982490761e-03  2.0110739071429544e-03  9.1219831173523140e-04  2.1828188873293779e-03  2.5579876441120968e-03  2.2290527966769020e-03  1.8548215065435317e-03  2.7494183369388197e-03  3.2549825238895672e-03  2.8057145456973089e-03  1.5099243520541445e-03  8.8318911484764945e-04  1.2036552503827123e-03  7.0965785856217896e-04  6.7076057565013873e-04  1.4131996238881364e-03  2.1323604850529408e-03  2.2578552593299057e-03  1.8280929134637371e-03  1.0539340612931286e-03  4.9372107777133833e-04  2.1710767557186364e-04  6.6499494912724828e-04  9.7848520252006264e-04  9.9035037565382974e-04  7.3047659653786086e-04  2.6929356141081989e-04  4.2345112569166095e-04  1.3999076550749447e-03  6.3166271643652909e-04  1.8024163926334464e-03  2.7253772792775349e-03  2.4107841845332429e-03  2.3095223730975737e-03  2.0376283929215686e-03  1.6184343722688201e-03  8.3136490979483638e-04  3.2546170471582089e-04  5.3207439370056542e-04  1.0154234533205357e-03  1.3656976478985618e-03  1.5534333108633499e-03  1.5989821052318656e-03  1.2807982266979459e-03  7.3080989766218386e-04  4.1169006593559659e-04  7.3504690066110814e-04  1.5607897362501010e-03  1.9678858243432355e-03  2.6350405263457924e-03  3.2575956374368497e-03  3.7326066608670085e-03  3.4594756440296287e-03  2.2423833951026886e-03  7.0029757071298025e-04  1.9381933445749856e-04  1.4788354866147035e-05  5.0714013459383635e-05  1.5833367492259912e-04  3.6220239792010957e-04  5.3036523811479696e-04  6.1718614424293621e-04  6.4529826771846685e-04  6.0638479363095876e-04  5.1291847822672028e-04  3.6064155042136710e-04  1.6595848139009880e-04  8.7227451165476042e-05  9.8855102960397533e-05  2.2648249912765597e-04  5.7073580739243964e-04  7.2162635617206261e-04  8.7980844448254218e-04  5.3153817782268032e-04  5.5019865440591206e-04  8.4526850507575144e-04  8.0789112790511535e-04  1.4703305766129691e-03  2.1096563788543508e-03  1.7311876212712136e-03  8.2618615429045186e-04  3.0516126344507595e-04  2.8869191366645162e-04  3.0978869267412484e-04  1.4487092559918165e-04  5.6747715363933990e-04  4.0703083175852275e-04  8.8009745186764534e-04  1.0148568795322480e-03  9.4305312224076830e-04  4.2580259729643917e-04  2.6269898636781079e-04  2.7352782681176714e-04  3.6212680016667803e-04  9.5278912684413990e-04  1.6919126140703734e-03  1.6408826395261592e-03  9.7347452852082357e-04  9.2585621141156227e-04  1.5338745764566170e-03  1.8830076927278589e-03  3.2786212927632444e-03  3.1094661933079274e-03  2.9098899570758111e-03  2.5870899911268090e-03  2.5339375543230189e-03  2.6455765968480126e-03  2.9240128183653726e-03  3.0632893941807738e-03  2.7571758112015965e-03  1.7506532928452099e-03  6.8887504923066342e-04  3.8777778403797344e-04  5.1934574177611487e-04  5.2694329168419339e-04  2.5300362327050570e-04  6.6324956446604355e-04  1.7698242608073388e-03  2.5809925451581095e-03  2.9917950665691887e-03  2.9979843154080287e-03  2.8793971232456139e-03  2.7153412879162781e-03  2.4443396195057685e-03  2.2295051061481212e-03  1.8001462744755793e-03  1.4569210346346900e-03  8.8102989191155858e-04  2.0528333623335090e-04  4.5221136109178852e-04  1.1555428164652700e-03  1.8085030202619964e-03  2.3434210635752029e-03  2.6615900597959860e-03  2.9131801559558893e-03  3.0084214519610340e-03  3.1199706854918158e-03  3.1298580635985636e-03  2.9600705959774419e-03  2.6915552419586142e-03  2.6747290498353692e-03  2.5092585056082210e-03  2.4593666741802517e-03  2.4062239755380643e-03  2.3905338532515747e-03  2.2341582410323243e-03  1.9887854179139368e-03  1.6312819196729867e-03  1.2508850536387893e-03  9.1009079590649220e-04  6.1415195259822725e-04  5.1956274768028953e-04  5.8993789955657464e-04  7.8199149614107820e-04  1.0601507384867994e-03  1.2402437087892530e-03  1.1908799124028537e-03  9.1520516246335081e-04  3.2578166741396690e-04  2.6788179036355832e-04  7.7657664990048072e-04  1.0141841587913861e-03  9.8744718162266550e-04  9.2697226737999757e-04  9.6765277896361285e-04  1.0841876893934457e-03  9.7521738009170367e-04  8.4113194747334442e-04  6.7811231538029027e-04  5.6374798370515864e-04  4.4002151473574168e-04  2.9616006626584547e-04  1.4849538071685364e-04  8.1047861468815566e-05  2.5689256201405394e-04  5.5020255750757024e-04  9.4708209085424765e-04  1.3057616676970464e-03  1.7693481967334991e-03  2.1960523786101467e-03  2.6677018093234830e-03  2.8927311011885033e-03  3.3023199608784889e-03  3.4344402867600467e-03  2.6378328826676730e-03  2.5621916278461216e-03  2.4581510482624093e-03  2.2246175392493231e-03  1.9015703135241658e-03  1.4759397240790861e-03  1.0192880826806812e-03  6.2075478313431721e-04  2.6452898379581265e-04  1.0135089582699370e-04  1.0580831119251335e-04  2.5686250770784203e-04  5.1392831942273899e-04  7.4447308861422506e-04  8.4439935380407883e-04  6.4477106272694423e-04  2.6520060321554614e-04  2.8931555131345816e-04  8.7282365964232752e-04  1.3369134627363481e-03  1.5146198077630145e-03  1.5731674825412885e-03  1.5080485860665134e-03  1.4304076588128375e-03  1.2641812179436599e-03  9.3389298090402616e-04  6.4724561674775851e-04  4.8102156435356593e-04  3.4195223458756803e-04  1.6498344067857528e-04  1.2760450362466275e-04  2.1607663405935563e-04  7.3367396386571598e-04  1.0421436389201194e-03  1.6627614372252643e-03  2.2431364540297571e-03  2.9168989652257286e-03  3.4113771343393588e-03  4.1372427072803595e-03  4.3838717669961455e-03  4.7095291493890589e-03  4.8096595881371171e-03  4.4741310191918505e-03  4.1518377481285229e-03  3.6071832215415680e-03  2.9882927168137130e-03  2.3614959952261926e-03  1.8381341426344459e-03  1.4048256206729069e-03  1.3251524265333217e-03  1.3829301122468900e-03  1.4747474037183784e-03  1.1755345840844358e-03  5.2914785474489367e-04  4.9197761661937491e-04  8.9704184014911294e-04  8.8671689107718238e-04  8.1945003288955132e-04  1.0274499236022493e-03  1.5442992923227028e-03  2.0093933095381251e-03  2.3665674653087381e-03  2.4256241290224602e-03  2.2124156944277910e-03  2.2305905904223531e-03  2.0558958205074162e-03  2.1365999382170478e-03  1.9120552064482671e-03  1.3935934651221743e-03  8.5568975974844989e-04  2.3608188846510863e-04  6.4171187522448273e-04  1.4641867748064986e-03  2.1696133114804134e-03  2.7599822682625899e-03  3.1425258706510510e-03  3.2771219592174538e-03  3.4731084080351117e-03  3.6119176064979513e-03  3.3222759602412918e-03  3.3764503592460726e-03  3.1033091627812402e-03  2.8830382640793787e-03  4.9868183352404889e-04  1.3110366424357153e-03  1.5738360360911488e-03  1.4719884593478031e-03  8.6621445851606065e-04  1.1054665735489844e-03  1.9649927806522850e-03  1.8844605863359161e-03  1.1992803924713567e-03  4.3568233721822601e-04  6.4617932225077195e-04  1.2672306927486400e-03  1.1364565958437735e-03  5.7747237178744446e-04  3.0378635103389082e-04  4.0826530878989990e-04  6.4514185695030695e-04  1.2867276717676590e-03  1.1557165220096211e-03  7.7887512097233962e-04  3.0263196303875403e-04  2.4212798752512265e-04  6.1543334415004080e-04  1.0650260442123078e-03  1.1112343674703818e-03  9.2141766278510718e-04  3.2167967870853258e-04  2.9054069550610284e-04  3.0416535330298199e-04  2.8602793364640092e-04  4.9433583472785426e-04  9.5725792917222548e-04  6.6033232212303237e-04  3.7344311111897507e-04  2.3040660163469416e-03  2.7439547818075712e-03  3.2839339730586568e-03  3.9335102312335951e-03  3.8146010348670133e-03  2.8739013868798531e-03  1.0113274711957693e-03  3.2295741104889324e-04  7.1852955563553119e-05  1.0303835912653016e-04  1.3993621145941200e-04  2.8214453563024867e-04  4.4720489519468599e-04  5.4259811660372270e-04  5.6923046812051013e-04  5.3604761087770096e-04  4.2799539849806367e-04  2.7638286524312919e-04  1.1902631275885558e-04  5.7621373180670735e-05  1.3987943436501019e-04  2.7611740674822390e-04  4.1339319754173537e-04  7.5880236950718184e-04  1.2382721518784108e-03  1.8026548969075401e-03  1.9917482498140321e-03  1.9844173447471540e-03  1.7744676992726591e-03  1.8098130215670946e-03  1.3088998013143917e-03  6.0654475348428613e-04  2.7143717731761732e-04  5.9673627845254970e-04  1.0811242986764776e-03  1.3588478388155462e-03  1.5995702373156238e-03  1.7007538343682769e-03  1.4729199092243059e-03  1.2232586757144493e-03  5.5503981696670545e-04  3.6345127086188038e-04  1.0539160363323720e-03  1.4581926154392216e-03  8.9217938073685458e-04  2.7725144594112285e-04  2.0956935104214641e-04  5.7985413062015790e-04  8.5265469592968671e-04  9.3897756891141756e-04  8.3989782630135355e-04  4.6862928630193938e-04  2.0208155396158557e-04  6.2560416013038474e-04  1.6126096239241761e-03  2.3823233966479246e-03  3.5907682008405797e-03  3.3095663420293648e-03  2.0546666897170007e-03  1.0532341245355478e-03  1.0988616839390630e-03  1.1398934624420548e-03  5.5188204733374528e-04  6.3136493986567913e-04  1.5830373703567243e-03  2.1712905971931614e-03  2.1165516119966686e-03  4.4792034354518683e-03  1.3870965049089673e-03  1.7350868293427063e-03  3.6425329047500591e-03  3.5307825058402986e-03  2.7433747499329606e-03  2.3351879122739277e-03  4.1380896340650619e-03  3.7593795267269535e-03  2.4865220597329340e-03  1.3600058983070143e-03  9.8455270480008556e-04  1.9674690743641211e-03  2.7345197587748406e-03  1.3139375237419229e-03  1.1218884776326690e-03  3.3830740989384024e-03  5.4726021315372525e-03  3.4056936904060999e-03  3.2418155987988854e-03  2.7551553285943731e-03  1.9972594997454251e-03  1.3324457092835872e-03  6.2532216498418461e-04  2.3146683773566325e-04  3.0537237408410586e-04  6.8382807339769573e-04  8.8766084837796973e-04  6.2805620868928134e-04  6.0665684227942992e-04  9.4844331504688906e-04  1.4220637880402735e-03  1.1572021475566060e-03  8.2999723194218298e-04  6.8615818517169533e-04  6.9936344805215196e-04  8.2740093237376310e-04  9.0206804021597401e-04  8.9372159371048430e-04  8.3545413259527234e-04  8.6451571985734078e-04  1.0711622737738335e-03  1.5473494335555085e-03  2.1402797858752444e-03  2.6759581379366773e-03  2.9431346142445454e-03  2.4989351804570632e-03  1.8405114842383159e-03  6.0960502937463395e-04  8.6943718771678009e-04  1.7533871053549894e-03  3.2241510008280934e-03  4.4575444992622105e-03  3.7741786631480022e-03  2.3766854051722173e-03  1.7253970843343132e-03  2.1769098005197845e-03  2.0269694038688169e-03  1.7995182738288799e-03  2.1517565752193586e-03  2.6855273323699142e-03  1.6204330246001937e-03  1.1798457886540630e-03  8.3768734846206611e-04  5.6265922408254719e-04  4.9232959635798080e-04  4.5840274948218991e-04  4.3455534792087352e-04  3.8674162547766789e-04  3.2011769156738314e-04  2.3323813214350797e-04  1.4523882250315251e-04  5.6796921240822603e-05  2.8751428225732079e-05  7.7521392848662989e-05  1.4708203890153131e-04  2.0645869325194730e-04  2.5184450081835845e-04  2.8180131950062711e-04  2.9297620049345465e-04  2.9812740192736793e-04  3.0981120424051182e-04  2.9573993429202075e-04  2.8085540109811316e-04  2.6982024664362034e-04  2.4740671848994992e-04  2.3447323113814719e-04  2.1744901691300630e-04  2.0466137968650676e-04  1.9441013957149231e-04  1.8873522470791592e-04  1.8322924507079060e-04  1.8474722190059325e-04  1.8376803228137357e-04  1.8696514714544073e-04  1.8863721915525359e-04  1.8656237211955694e-04  1.9067460484513586e-04  1.7704008127480449e-04  1.6926824754052015e-04  1.5152125641326641e-04  1.1907505044206973e-04  8.8181429493727287e-05  4.3268553220571736e-05  1.0650907068521998e-05  2.2829095605972545e-05  4.9901551337922462e-05  4.7946894117670248e-05  4.0988021592291060e-05  7.4379123285652182e-05  1.2700145810622397e-04  2.6517028871179721e-04  2.3744458648827498e-04  1.5322845208447930e-04  1.3723943618288586e-04  3.0883146167447380e-04  4.9158561296185088e-04  5.6099415367851489e-04  6.1852439649069213e-04  7.5297865174153754e-04  1.0641319503158532e-03  1.5030930982346266e-03  2.1880996297591491e-03  2.6585499593435105e-03  3.0408746474243661e-03  3.2914677576737837e-03  3.3706995663069467e-03  3.2366017808036392e-03  3.0540159143254021e-03  2.9047825691955942e-03  2.6960869221738307e-03  2.4816071289119257e-03  2.2891731167502382e-03  1.9933354165291585e-03  1.6941261771361211e-0