<?xml version="1.0"?>
<VTKFile type="UnstructuredGrid"  version="0.1"  >
<UnstructuredGrid>
<Piece  NumberOfPoints="3879" NumberOfCells="6881">
<Points>
<DataArray  type="Float64"  NumberOfComponents="3"  format="ascii">0.207524190028372 0.2122422770132111 0  0 0 0  1 0 0  0 1 0  1 1 0  0.6249674373315121 0.2590146544375328 0  0.204663578893616 0.322657230836866 0  0.09605577522599912 0.4018360776629776 0  0.671351124618251 0.08738059142081528 0  0.7842102907526436 0.1666439122351055 0  0.8512483166984784 0.1985391006160637 0  0.6418797837909295 0.4423157172830166 0  0.9292488447973215 0.3869277868069776 0  0.3197896119137055 0.5509935221980964 0  0.3979283685568406 0.5079871620336583 0  0.1572503457993085 0.7345153245035532 0  0.3032914287999163 0.7872981443735918 0  0.3549464687598876 0.8870324161721976 0  0.9691791685505482 0.5159450047798622 0  0.9447564590470373 0.6146164845729313 0  0.7687603548175107 0.7176858127488035 0  0.8926159261971183 0.7422924070424508 0  0.2061587782631535 0.2217389244366831 0  0.2021731605082994 0.2304662099646423 0  0.1958902278109265 0.2377171008267789 0  0.1878189860121365 0.2429041729681512 0  0.1786133191209442 0.2456072006525708 0  0.1690190155206647 0.2456072006525708 0  0.1598133486294724 0.2429041729681512 0  0.1517421068306824 0.2377171008267789 0  0.1454591741333096 0.2304662099646422 0  0.1414735563784554 0.221738924436683 0  0.1401081446132369 0.212242277013211 0  0.1414735563784555 0.202745629589739 0  0.1454591741333096 0.1940183440617798 0  0.1517421068306825 0.1867674531996431 0  0.1598133486294725 0.1815803810582709 0  0.1690190155206649 0.1788773533738513 0  0.1786133191209443 0.1788773533738514 0  0.1878189860121367 0.181580381058271 0  0.1958902278109266 0.1867674531996433 0  0.2021731605082994 0.19401834406178 0  0.2061587782631535 0.2027456295897391 0  0.03333333333333333 0 0  0.06666666666666667 0 0  0.1 0 0  0.1333333333333333 0 0  0.1666666666666667 0 0  0.2 0 0  0.2333333333333333 0 0  0.2666666666666667 0 0  0.3 0 0  0.3333333333333333 0 0  0.3666666666666666 0 0  0.4 0 0  0.4333333333333333 0 0  0.4666666666666667 0 0  0.5 0 0  0.5333333333333333 0 0  0.5666666666666667 0 0  0.6 0 0  0.6333333333333333 0 0  0.6666666666666666 0 0  0.7 0 0  0.7333333333333333 0 0  0.7666666666666667 0 0  0.8 0 0  0.8333333333333334 0 0  0.8666666666666667 0 0  0.9 0 0  0.9333333333333333 0 0  0.9666666666666667 0 0  0 0.9666666666666667 0  0 0.9333333333333333 0  0 0.9 0  0 0.8666666666666667 0  0 0.8333333333333334 0  0 0.8 0  0 0.7666666666666666 0  0 0.7333333333333334 0  0 0.7 0  0 0.6666666666666667 0  0 0.6333333333333333 0  0 0.6 0  0 0.5666666666666667 0  0 0.5333333333333333 0  0 0.5 0  0 0.4666666666666667 0  0 0.4333333333333333 0  0 0.4 0  0 0.3666666666666667 0  0 0.3333333333333334 0  0 0.3 0  0 0.2666666666666667 0  0 0.2333333333333333 0  0 0.2 0  0 0.1666666666666666 0  0 0.1333333333333333 0  0 0.09999999999999998 0  0 0.06666666666666665 0  0 0.03333333333333333 0  1 0.03333333333333333 0  1 0.06666666666666667 0  1 0.1 0  1 0.1333333333333333 0  1 0.1666666666666667 0  1 0.2 0  1 0.2333333333333333 0  1 0.2666666666666667 0  1 0.3 0  1 0.3333333333333333 0  1 0.3666666666666666 0  1 0.4 0  1 0.4333333333333333 0  1 0.4666666666666667 0  1 0.5 0  1 0.5333333333333333 0  1 0.5666666666666667 0  1 0.6 0  1 0.6333333333333333 0  1 0.6666666666666666 0  1 0.7 0  1 0.7333333333333333 0  1 0.7666666666666667 0  1 0.8 0  1 0.8333333333333334 0  1 0.8666666666666667 0  1 0.9 0  1 0.9333333333333333 0  1 0.9666666666666667 0  0.9666666666666667 1 0  0.9333333333333333 1 0  0.9 1 0  0.8666666666666667 1 0  0.8333333333333334 1 0  0.8 1 0  0.7666666666666666 1 0  0.7333333333333334 1 0  0.7 1 0  0.6666666666666667 1 0  0.6333333333333333 1 0  0.6 1 0  0.5666666666666667 1 0  0.5333333333333333 1 0  0.5 1 0  0.4666666666666667 1 0  0.4333333333333333 1 0  0.4 1 0  0.3666666666666667 1 0  0.3333333333333334 1 0  0.3 1 0  0.2666666666666667 1 0  0.2333333333333333 1 0  0.2 1 0  0.1666666666666666 1 0  0.1333333333333333 1 0  0.09999999999999998 1 0  0.06666666666666665 1 0  0.03333333333333333 1 0  0.6247072676344306 0.2689501343248463 0  0.6239274716502419 0.2788583817523955 0  0.6226301867455355 0.2887122389026952 0  0.6208189686880621 0.2984846970382296 0  0.6184987819006211 0.3081489705305245 0  0.6156759858539226 0.317678570277693 0  0.6123583176357204 0.3270473763092224 0  0.6085548707439923 0.3362297093789981 0  0.6042760701622942 0.3452004013503318 0  0.5995336437856049 0.3539348641800754 0  0.5943405902749808 0.3624091573127375 0  0.5887111434291297 0.3706000532998825 0  0.582660733170558 0.3784851014649517 0  0.5762059432532257 0.3860426894390078 0  0.5693644658076293 0.3932521023987353 0  0.5621550528479018 0.4000935798443317 0  0.5545974648738458 0.4065483697616639 0  0.5467124167087765 0.4125987800202355 0  0.5385215207216315 0.4182282268660866 0  0.5300472275889694 0.4234212803767108 0  0.5213127647592257 0.4281637067534002 0  0.512342072787892 0.4324425073350981 0  0.5031597397181163 0.4362459542268262 0  0.493790933686587 0.4395636224450283 0  0.4842613339394185 0.4423864184917269 0  0.4745970604471235 0.4447066052791678 0  0.4648246023115891 0.4465178233366412 0  0.4549707451612894 0.4478151082413475 0  0.4450624977337403 0.4485949042255363 0  0.4351270178464268 0.4488550739226177 0  0.4251915379591132 0.4485949042255363 0  0.4152832905315641 0.4478151082413475 0  0.4054294333812644 0.4465178233366411 0  0.39565697524573 0.4447066052791677 0  0.385992701753435 0.4423864184917267 0  0.3764631020062665 0.4395636224450281 0  0.3670942959747371 0.4362459542268259 0  0.3579119629049616 0.4324425073350978 0  0.3489412709336278 0.4281637067533998 0  0.3402068081038843 0.4234212803767103 0  0.3317325149712221 0.4182282268660862 0  0.3235416189840771 0.412598780020235 0  0.3156565708190078 0.4065483697616634 0  0.3080989828449519 0.4000935798443311 0  0.3008895698852244 0.3932521023987346 0  0.2940480924396279 0.3860426894390071 0  0.2875933025222958 0.3784851014649511 0  0.2815428922637242 0.3706000532998818 0  0.2759134454178731 0.3624091573127368 0  0.2707203919072489 0.3539348641800746 0  0.2659779655305596 0.3452004013503309 0  0.2616991649488616 0.3362297093789972 0  0.2578957180571336 0.3270473763092215 0  0.2545780498389315 0.3176785702776921 0  0.251755253792233 0.3081489705305236 0  0.249435067004792 0.2984846970382286 0  0.2476238489473186 0.2887122389026941 0  0.2463265640426123 0.2788583817523945 0  0.2455467680584236 0.2689501343248454 0  0.2452865983613423 0.2590146544375318 0  0.2455467680584237 0.2490791745502182 0  0.2463265640426126 0.2391709271226692 0  0.247623848947319 0.2293170699723696 0  0.2494350670047924 0.2195446118368351 0  0.2517552537922335 0.2098803383445402 0  0.2545780498389321 0.2003507385973717 0  0.2578957180571343 0.1909819325658423 0  0.2616991649488624 0.1817995994960667 0  0.2659779655305604 0.172828907524733 0  0.2707203919072498 0.1640944446949895 0  0.2759134454178741 0.1556201515623273 0  0.2815428922637251 0.1474292555751825 0  0.2875933025222969 0.1395442074101132 0  0.2940480924396291 0.1319866194360571 0  0.3008895698852256 0.1247772064763297 0  0.3080989828449531 0.1179357290307334 0  0.3156565708190092 0.1114809391134012 0  0.3235416189840785 0.1054305288548295 0  0.3317325149712236 0.09980108200897844 0  0.3402068081038856 0.0946080284983544 0  0.3489412709336291 0.08986560212166514 0  0.357911962904963 0.08558680153996717 0  0.3670942959747386 0.08178335464823916 0  0.3764631020062678 0.07846568643003712 0  0.3859927017534364 0.0756428903833386 0  0.3956569752457313 0.0733227035958976 0  0.4054294333812659 0.07151148553842429 0  0.4152832905315654 0.07021420063371797 0  0.4251915379591144 0.0694344046495293 0  0.435127017846428 0.0691742349524479 0  0.4450624977337415 0.06943440464952938 0  0.4549707451612905 0.07021420063371814 0  0.4648246023115901 0.07151148553842454 0  0.4745970604471245 0.07332270359589793 0  0.4842613339394195 0.07564289038333902 0  0.4937909336865879 0.07846568643003757 0  0.5031597397181173 0.0817833546482398 0  0.5123420727878929 0.08558680153996781 0  0.5213127647592265 0.08986560212166581 0  0.53004722758897 0.0946080284983552 0  0.5385215207216321 0.09980108200897933 0  0.5467124167087771 0.1054305288548305 0  0.5545974648738462 0.1114809391134021 0  0.5621550528479023 0.1179357290307343 0  0.5693644658076298 0.1247772064763308 0  0.576205943253226 0.1319866194360582 0  0.5826607331705582 0.1395442074101142 0  0.5887111434291299 0.1474292555751835 0  0.594340590274981 0.1556201515623285 0  0.5995336437856051 0.1640944446949906 0  0.6042760701622945 0.172828907524734 0  0.6085548707439925 0.1817995994960678 0  0.6123583176357205 0.1909819325658435 0  0.6156759858539227 0.2003507385973728 0  0.6184987819006211 0.2098803383445412 0  0.6208189686880622 0.2195446118368362 0  0.6226301867455355 0.2293170699723706 0  0.6239274716502419 0.2391709271226702 0  0.6247072676344306 0.2490791745502192 0  0.203885768735257 0.3325402459548524 0  0.2015714905276826 0.3421799084407872 0  0.1977777294810124 0.3513388578120612 0  0.1925979005829864 0.3597915703383434 0  0.1861595484119405 0.3673299121842922 0  0.1786212065659918 0.373768264355338 0  0.1701684940397096 0.378948093253364 0  0.1610095446684356 0.3827418543000342 0  0.1513698821825007 0.3850561325076086 0  0.1414868670645144 0.3858339426659677 0  0.1316038519465281 0.3850561325076086 0  0.1219641894605933 0.3827418543000343 0  0.1128052400893193 0.378948093253364 0  0.1043525275630371 0.3737682643553381 0  0.09681418571708833 0.3673299121842922 0  0.09037583354604248 0.3597915703383434 0  0.08519600464801645 0.3513388578120612 0  0.08140224360134621 0.3421799084407872 0  0.07908796539377183 0.3325402459548523 0  0.07831015523541281 0.3226572308368659 0  0.07908796539377186 0.3127742157188796 0  0.08140224360134626 0.3031345532329447 0  0.08519600464801655 0.2939756038616707 0  0.0903758335460426 0.2855228913353884 0  0.0968141857
[...]
<PointData  Scalars="$\epsilon$"> 
<DataArray  type="Float64"  Name="$\epsilon$"  format="ascii">1.7777779872954712e-03  6.4085961576992364e-07  6.4085879443150368e-07  6.4085858298595384e-07  6.4085906068191162e-07  2.6314909299211633e-03  -3.7242812718916038e-06  1.1848834706502142e-03  6.1132256979863869e-04  -6.7713912150222449e-06  6.4090447012380868e-07  -5.3191368966572911e-05  1.0193968663015895e-02  2.4652127974801922e-03  6.4072380048529917e-07  -1.6713839625484632e-05  1.8982127783749902e-05  8.2427447481556412e-07  1.0386349489955703e-01  1.1047378682101169e-02  -4.8394416324081598e-05  6.4105049455635917e-07  -2.2339860426030879e-04  1.7333657839014773e-05  3.7761344394182478e-07  -3.6418564814109141e-05  9.8074861241939103e-05  -8.2136147741818089e-05  2.0941534353615316e-03  4.1308777910574112e-03  -9.0286568747607721e-05  -1.4700702659456480e-05  1.5836275376105278e-06  7.7320729039911180e-07  5.7370416202186792e-07  6.5787241201775441e-07  6.3744346008968673e-07  6.3778054066316029e-07  7.2663285619126028e-07  -3.3406305626158799e-08  3.8924020986099035e-06  -6.6627403558958492e-05  6.7213965121171409e-04  6.4085895874899181e-07  6.4085840811481942e-07  6.4085893758951841e-07  6.4085872213993265e-07  6.4085898164427850e-07  6.4085908132887969e-07  6.4085868290428615e-07  6.4085883049258685e-07  6.4085879139828124e-07  6.4085880019398042e-07  6.4085879540078751e-07  6.4085886853294324e-07  6.4085840191200721e-07  6.4085939744726057e-07  6.4087358445077577e-07  6.4059869590063042e-07  6.4228729523082500e-07  6.4468570953101955e-07  6.3788613200292888e-07  6.5861781427103229e-07  6.8217894339515576e-07  6.4826979016077204e-07  6.3814979838911983e-07  6.4153019027510842e-07  6.4075300172480000e-07  6.4087278223313219e-07  6.4085799215142022e-07  6.4085895075284282e-07  6.4085877313624846e-07  6.4085956743688514e-07  6.4085690719919529e-07  6.4085227102323809e-07  6.4097987072535615e-07  6.3986765787381538e-07  6.4553702721998458e-07  5.4989521401511681e-07  1.3970713438658522e-06  -3.2478414420500811e-06  4.9611944986820474e-05  -1.1509612615994665e-04  4.6792450867614199e-04  -6.3384863788821133e-04  -1.5830987588751647e-04  -7.4323518458766641e-04  6.5187637722730592e-03  1.5039976455056229e-02  -3.4583359881326494e-03  1.6696291969245081e-03  -6.5600666868920784e-05  2.0733983521847657e-06  1.9787964364695457e-06  5.6094262906587243e-07  6.2605797866672891e-07  6.4621084967448357e-07  6.3974713969520398e-07  6.4104285771923433e-07  6.4084166144874175e-07  6.4085849879519960e-07  6.4085886531373618e-07  6.4085846241486251e-07  6.4086001120440183e-07  6.4085897068847876e-07  6.4082035738118464e-07  6.4131587604811189e-07  6.4341959622966472e-07  5.9087201464973086e-07  2.4570474283884164e-07  5.4842466301360546e-06  -1.1816839012763120e-05  3.4697944375855867e-05  -3.6056298122753546e-04  6.6189654650676902e-03  -7.3216106922196372e-04  4.3104835308915374e-02  2.3266476167362351e-02  -3.6985508911608206e-03  2.9515468412189195e-04  -5.1641506298640561e-05  3.9389801380953044e-06  -1.3637218863533668e-08  7.1722168106223529e-07  6.3180662778487813e-07  6.4203133138784294e-07  6.4077494160301421e-07  6.4084526617924949e-07  6.4086463638899640e-07  6.4085747966120959e-07  6.4085866773667151e-07  6.4085876788268817e-07  6.4085879044006685e-07  6.4085881451632161e-07  6.4085879717777995e-07  6.4085879737597729e-07  6.4085879842372613e-07  6.4085879910922439e-07  6.4085879874487772e-07  6.4085879881126054e-07  6.4085879878007533e-07  6.4085879902983210e-07  6.4085879746831606e-07  6.4085880805599634e-07  6.4085875920863256e-07  6.4085956680009816e-07  6.4085279568860713e-07  6.4086409757285513e-07  6.4087456821269171e-07  6.4075986184201931e-07  6.4093501781032820e-07  6.4165638697750525e-07  6.4131770607475136e-07  6.4037017786985844e-07  6.4096460876629041e-07  6.4084552306742534e-07  6.4086121640000633e-07  6.4085857178973322e-07  6.4085878533085316e-07  4.8485940342707400e-04  -5.7917247883684114e-05  7.3794909531774957e-06  1.7793374975389117e-07  5.4886905754591013e-07  6.8246356529701983e-07  6.3890956350343361e-07  6.4320892912606829e-07  6.6554227261772096e-07  6.4585708031620966e-07  6.2463678169720503e-07  6.4403391043574813e-07  6.4451043824365400e-07  6.4058421211108590e-07  6.3965034493043538e-07  6.4150575460297018e-07  6.4079732276411646e-07  6.4083645381917897e-07  6.4087157862781743e-07  6.4085405964608336e-07  6.4085969027978999e-07  6.4085868221689604e-07  6.4085880344147435e-07  6.4085880083104194e-07  6.4085879922108250e-07  6.4085878673956011e-07  6.4085888321192034e-07  6.4085839719389944e-07  6.4086038871893135e-07  6.4085303349585559e-07  6.4089514077487233e-07  6.4065718658971490e-07  6.4159776640986545e-07  6.4039767501998021e-07  6.4372004965764735e-07  6.3079762062878496e-07  6.3776412414846057e-07  6.7543898549849137e-07  6.5941639956551273e-07  6.6587297597469379e-07  6.7491467420637541e-07  6.5593493758632514e-07  8.9688630761701758e-07  -2.4748930961936315e-06  2.7403200785214164e-05  -1.8074816465323384e-04  2.5114074543598655e-03  6.4240452816811140e-03  7.9217375441359202e-03  7.7797620155387283e-03  7.1161699353359921e-03  7.9295045221474021e-03  8.1555733669079547e-03  7.7608255656990491e-03  4.2071078187299743e-03  6.8775214321981656e-04  -9.9111221307190625e-05  1.0329931018079021e-05  6.7016406049162493e-07  3.9014436317023713e-07  6.3788382908244178e-07  1.0664854235459566e-06  2.4596991809321861e-07  -1.2220219647163201e-06  -8.6330432503932369e-07  6.0254896754760449e-07  9.2155162205880415e-07  5.1463542775952480e-07  6.7205690487647384e-07  6.3759397586597504e-07  6.4000399261738769e-07  6.4137593795898568e-07  6.4068952628154706e-07  6.4089202429857430e-07  6.4085327336576575e-07  6.4085957633213388e-07  6.4085875413346472e-07  6.4085880075948989e-07  6.4085880155851068e-07  6.4085880132293526e-07  6.4085879802833433e-07  6.4085879867015014e-07  6.4085879905223538e-07  6.4085879867120512e-07  6.4085879891416064e-07  6.4085879947603317e-07  6.4085879860959544e-07  6.4085879829763014e-07  6.4085879058493151e-07  6.4085878614290523e-07  6.4085892117028553e-07  6.4085851618198487e-07  6.4085909977047265e-07  6.4085912897535828e-07  6.4085252765163296e-07  6.4087140698721607e-07  6.4082492551098445e-07  6.4096784293865757e-07  6.4127997077997587e-07  6.3761971178759694e-07  6.5177301002642508e-07  6.0606157126120383e-07  6.3407546075114270e-07  9.3591067960635023e-07  3.7987136798048877e-07  1.0161528284208770e-07  7.5248301836326227e-07  8.0428967944002463e-07  7.7331387864884790e-07  9.6957459597573670e-07  -8.6448621509493399e-07  7.5736353560803484e-06  -1.3305658947365929e-06  -2.1232347480191712e-04  2.4821894684613878e-03  1.0479817943039383e-02  1.2850153793647377e-02  1.1985029288261270e-02  7.1505115244664633e-03  -2.0965406053479854e-07  1.5918806187730801e-06  9.6459622141070568e-08  5.5562737289416313e-07  7.0880120965123221e-07  6.2475456024645710e-07  6.2941470953375819e-07  7.4818160225942656e-07  5.4872341901032646e-07  -3.6300328542549297e-06  4.8319862570012252e-05  -3.1726475078248332e-04  3.9046936075756863e-03  2.0689869470193127e-04  -1.6483086609581206e-05  1.2663581835307528e-05  -3.7145917988094786e-06  -2.3136893778888517e-06  -1.2656001569417104e-06  2.5183379345474665e-06  1.8654418777059172e-06  5.2171975347539247e-07  5.7892743600028786e-07  6.5910615337398394e-07  6.4798864016430741e-07  5.3380217389970391e-07  1.5621197900903717e-06  -4.5249216456520215e-06  1.9752409140674628e-05  -2.7930336216270559e-05  4.4616946777450392e-05  -7.6967183402014682e-05  2.4290060028773187e-03  2.2601475665834374e-03  -1.3812132650408701e-04  3.0491880806453670e-06  3.9625673277743428e-06  -2.9088721548391795e-08  1.9236892485566466e-06  -9.1952287658207885e-05  1.3871637276030327e-05  -2.0578619036955583e-06  8.2136521961889523e-06  -3.5072651550934185e-04  1.8516557063043466e-03  -8.0945239840647248e-03  2.1505666970903684e-02  4.1457479685657689e-02  2.3638857778492679e-02  -4.9062253662225707e-03  1.0572407576854858e-03  -1.8606370644401059e-04  1.3719815653381973e-04  2.9018735955503605e-04  -1.7721080219091026e-04  1.4680894228505401e-03  9.6111026859974965e-03  8.4604593050815000e-03  -7.5524160009694558e-04  7.2825384012080983e-04  1.7926234499483513e-04  -1.3261376155658487e-04  3.7875848052022709e-05  -2.9551796262593993e-05  2.6693391492425356e-04  6.8716474123931047e-04  -6.7081372433349450e-05  3.8351441920747923e-06  -2.0530571433727872e-08  7.3021315102278494e-07  6.3651798094441798e-07  6.2387770535223281e-07  6.8295143821860934e-07  7.4827915502832836e-07  -2.0054687350891675e-06  2.5048635935990521e-05  -1.4549036506941471e-04  3.5465648634861507e-05  -6.0787102696567346e-04  4.3097186333438068e-03  9.6094721116098179e-04  9.0049355125129869e-05  -1.2177232135573163e-05  2.8459990224942208e-06  3.8806973259347293e-07  6.4647762272505640e-07  6.5285546286365484e-07  5.9579779151759654e-07  7.3740855659317150e-07  5.1687617395517750e-07  5.1880529493924376e-07  1.9324052959695412e-06  -1.8516732751429609e-06  -5.4762166569030164e-06  2.2209036350567351e-06  1.0060051379684467e-05  -7.4733548375350057e-05  3.9576342773201700e-04  7.4490942143320060e-03  2.3404728246801391e-02  1.7283113663098135e-02  -1.2958245354319517e-03  6.4031361458496928e-04  -1.3930436850298882e-04  2.9253516988658585e-05  -6.6075222855563915e-06  2.5545984496316429e-06  1.7792672185506964e-07  7.3191646572785673e-07  6.2663244298474855e-07  6.4260546978341488e-07  6.3984986208184978e-07  6.4517907222473338e-07  6.3488346595370034e-07  5.5447788626632281e-07  1.7001136503389832e-06  6.4087996208264048e-07  6.4065853284880334e-07  6.4183119810691232e-07  6.4044754084106032e-07  8.7454782913985066e-07  -1.5412797112906703e-06  1.5385085886832849e-05  -7.7294969384473215e-05  1.2406624536194884e-04  8.9212307969951515e-05  1.6175910213888884e-06  -2.5559550980311053e-06  1.2606170411078276e-06  5.5752616271775909e-07  6.4695851241707327e-07  6.4131897834744595e-07  6.4066271527723962e-07  2.7648042083073405e-05  1.1558153792166339e-05  -1.2870841297470001e-07  5.3636466330622231e-07  6.4622384727496305e-07  6.4190384733302363e-07  6.4051007203848278e-07  6.4062310905081661e-07  6.4302472192014282e-07  6.3246767494054817e-07  6.2682358133467983e-07  1.0698784447132073e-06  -3.5667026354445809e-06  2.0770802395875190e-05  -4.8784820992082836e-05  4.8310243364654448e-06  8.0610822520606681e-03  4.8786967794268964e-03  3.2643381340552139e-03  1.4159431717509080e-03  1.8159325096486149e-03  6.8571209089214767e-03  1.7730714407939874e-02  2.3395907006011123e-02  1.2483088185596828e-02  -1.5262475930564424e-03  1.7116954139840428e-04  -2.1902096012230631e-05  7.8222221680841557e-07  7.2012358184589113e-06  8.9357639136350281e-06  -3.6963071455137107e-05  8.1025858646066362e-05  4.3183854649657726e-03  8.3953759707970123e-03  5.3772248992919099e-03  2.2574392580458368e-03  5.3929867134249983e-04  -6.9323527975401639e-05  8.1821441733045922e-06  4.8978045788147744e-07  4.7143582368639874e-07  7.6277289212138771e-07  3.9923356885973816e-07  4.1829641645206276e-07  1.0030706553402168e-05  -9.2594109395266027e-05  5.7448659357316070e-04  2.8337034921877024e-03  5.8540669127149008e-03  8.3271342026751995e-03  1.0360622118929158e-02  1.2164664960737832e-02  8.1990602334944904e-03  3.7515960636006107e-03  2.8337133724995944e-03  1.6450642794725732e-03  1.3113362899561457e-03  1.5328926749700587e-03  1.2917409020884595e-03  2.1137868029731557e-04  -3.0782536540758428e-05  4.5417363989656203e-06  4.5020044595041847e-07  5.7533863354682931e-07  6.6115755864338834e-07  6.3704371536327387e-07  6.4160353770931761e-07  6.4052281273485127e-07  6.4045751425037276e-07  6.4055921199629509e-07  6.4074619229980564e-07  6.4180926269265756e-07  6.4027728545063012e-07  6.3702800997741330e-07  6.2122018184829441e-07  8.3317680523173567e-07  8.3406791268298061e-07  6.1906884536388556e-07  6.2172911313456014e-07  6.3583204051228668e-07  6.4383553093367659e-07  6.4221866913967121e-07  6.4023050502276109e-07  6.4101312562905299e-07  6.4082289225995685e-07  6.4089610574353572e-07  6.4066990583117972e-07  6.4176654163565281e-07  6.3892082585183232e-07  6.4123568092585978e-07  6.3824133265400599e-07  7.2804289783300410e-07  -9.6263988213026090e-07  8.1646566950945298e-06  -1.6391974775776304e-05  -7.4475981968487461e-05  3.1006227383225358e-03  9.1761614339397543e-03  2.0882090696960607e-03  2.2690819025791313e-03  1.5040223731792228e-03  1.7417858175569579e-04  -2.9628689925619207e-05  4.8891734734137370e-06  3.5907910377911841e-07  6.0893517701889765e-07  6.5680793436343377e-07  6.3915269788234288e-07  6.4406799148773273e-07  6.4405579894518306e-07  6.4123649859389349e-07  6.4039623023967170e-07  6.4163756787397456e-07  6.4047309204490033e-07  6.4105708297455847e-07  6.4921262488158132e-07  6.2538704221119431e-07  6.4094684668160251e-07  7.1078109326391721e-07  6.4400107750351925e-07  6.0628530911222963e-07  6.4620235453365661e-07  6.3955435083062474e-07  6.4172323646625081e-07  6.4045632843842777e-07  6.4068846566793560e-07  6.4186984709092607e-07  6.4467016351191900e-07  6.4076021318850841e-07  4.2919862033980858e-07  2.5891785291980487e-06  -7.1382854857425884e-06  2.4335545065792509e-05  -1.0857512541972276e-05  -6.6666645382018532e-04  6.8734825092160411e-03  2.2327972948301477e-02  3.0428805183232550e-02  3.7182555636048664e-02  5.1321434886302732e-02  3.6767879097750034e-02  2.4390570208415799e-02  1.3708399147344549e-02  2.3990566451752571e-03  -2.3058327867775782e-04  8.6676453394355922e-05  1.2844866852653717e-05  1.3197411647817573e-05  -5.2159956401868631e-06  1.5401985084438637e-06  -1.6776157238289044e-07  1.0153342302632198e-06  -2.3926727983065109e-07  -3.0536752032995797e-07  4.9369250222038044e-07  6.4527501295910576e-07  5.5689702577199655e-07  6.0443696889258886e-07  6.3179706657361111e-07  6.5530628618958592e-07  6.3665643645394934e-07  6.4215682071324031e-07  6.3941809547857400e-07  6.3851809202795218e-07  6.3219421196025142e-07  6.4435620588372068e-07  6.3410873534301703e-07  7.9073899678653628e-07  1.3253700683038715e-07  1.2606275539644550e-06  1.7292045430420486e-05  -1.9966384935323164e-04  1.3564382467066754e-03  6.3340728324168816e-03  9.9989425963015587e-03  1.2603679706488291e-02  1.7473783882003532e-02  1.4553669714721922e-02  1.2875245636187646e-02  6.7921214152822902e-03  3.6276451619346476e-03  6.4272067690125919e-07  6.1615600239671633e-07  7.9156851888425804e-07  -1.0369296909307983e-06  9.4856504817483569e-06  -1.4788624628634590e-04  1.0190066198049134e-03  1.3643198517350539e-03  -1.9935981373666437e-04  8.7291167484614110e-05  -1.2262727760330525e-05  2.5060536658309728e-06  5.0941984346421972e-07  6.2942891430011248e-07  6.4810352775720264e-07  6.3950774318901933e-07  -9.8038399844198215e-07  2.0322031569314133e-06  5.9294813882225935e-07  6.3566728294734358e-07  6.4228144354749531e-07  6.4076462432682498e-07  6.4070905644692369e-07  6.4143420272397017e-07  6.3945378163392266e-07  6.4070326427979875e-07  6.4225461059352548e-07  6.4186457789017497e-07  6.4036666981604356e-07  6.4315603090877815e-07  6.2913749228111339e-07  8.7958658532388714e-07  -1.1423174376994647e-06  8.6944491016143668e-06  -8.5569139968875540e-05  2.9592271512352502e-04  6.1707237953112755e-03  2.4955526924056740e-02  2.9017547853946540e-02  9.5197269709226123e-03  -2.1487930671679326e-03  7.4927071563718082e-04  -1.6622281522061396e-04  2.2291538289693242e-05  -7.6494400553546333e-08  4.7076375239142615e-08  8.6620560685964312e-07  5.8912149094316306e-07  6.5020370015735872e-07  6.3964302500152846e-07  6.4094692520345291e-07  6.4085540339268022e-07  6.4098920937472262e-07  6.3966187386135317e-07  6.4848998842676370e-07  6.1572210321358753e-07  5.9402199502617046e-07  2.1673802851803779e-06  -1.3103619034798134e-05  9.0237818654396006e-05  1.6600753951723356e-03  7.4881416091543830e-04  -4.7484003446443836e-05  8.5312765662940448e-06  -1.0990774889397110e-07  6.4272912439593548e-07  6.6295463302078218e-07  6.3478937477794644e-07  6.3848921158536080e-07  6.5948988251618615e-07  5.8609993363053012e-07  8.3481594822858092e-07  6.8575704184487776e-07  3.9194567258641879e-07  -1.9428306171201929e-07  -9.9872430216990457e-07  -1.9499539271449606e-06  -6.7656050484732188e-07  9.8569581546705535e-07  5.7772755078417016e-07  6.4940263579069277e-07  6.3988382790272441e-07  6.4036906546350930e-07  6.4884296570103331e-07  5.8683045782650318e-07  8.2905341067343070e-07  8.2204283520782153e-07  -9.8623816659487858e-06  1.0222998735125718e-04  -6.1320670682298614e-04  1.3659663949158641e-02  2.1490463711858566e-02  3.5743026587042887e-03  -1.5063202899877200e-03  8.2198107370026188e-04  -2.9359352913898760e-04  6.8804455773648789e-05  -6.1195823382897582e-07  -5.7528539086740853e-05  4.4279242390251548e-04  1.4534084940826466e-04  8.8043623994222359e-02  -3.7579191958663147e-02  1.0870460371340292e-02  3.9384675273189144e-03  4.5381633740566819e-03  -2.7640848552487355e-03  1.3079592245504958e-02  4.5355676569336735e-02  1.7922701044952041e-02  2.3388204384946487e-03  -9.6194744809261122e-05  -6.1163857267730755e-04  4.5223769410818598e-03  9.8724202818227230e-03  -1.8969747836143825e-04  2.7819474223868845e-03  -9.3372676269071874e-03  5.5219985751567426e-02  1.4745219670371575e-02  6.7692442905454807e-03  1.7427917445534004e-04  -6.8525999878436326e-05  1.5471153070530587e-05  -1.6010829641549719e-06  7.8624032027743455e-07  6.7203077451366790e-07  6.2456002331299599e-07  6.4426983753381062e-07  6.4033153942750832e-07  6.4052459139293795e-07  6.4520632788794428e-07  6.2384663723759999e-07  6.7458744188072425e-07  6.7277434326737975e-07  4.3488508951751751e-07  6.7608475302241465e-07  1.0894284425345010e-06  7.4472995502107362e-07  6.9540802360459860e-07  7.9422603171392165e-07  -3.0809819579289074e-07  1.3613206487291668e-06  2.7794892232176148e-05  -3.2225353066355405e-04  2.8342697976155105e-03  9.5983576993697115e-03  6.6690077597471873e-03  2.7614116830127016e-03  -3.6979406008425707e-04  8.2688975671219535e-05  -3.1986486061226071e-04  1.9990217291235147e-03  2.9323921379456701e-02  2.1689963494283808e-02  -3.0410430881635756e-03  -6.9005816450237289e-04  3.0069551188572677e-03  1.6184957244869509e-03  -3.2290242218731291e-04  1.7365444832770488e-04  4.5363754866035496e-03  4.0667009015487089e-06  1.3341296831188299e-06  9.3414674610517771e-07  1.0080950118539822e-06  4.8987091174663233e-07  6.6295225428820493e-07  6.6867320010895674e-07  6.3775983808801303e-07  6.3957156710707266e-07  6.4150365801018446e-07  6.4069919292668146e-07  6.4088584319582838e-07  6.4085675176449753e-07  6.4085850432369376e-07  6.4085893547707583e-07  6.4085875709895057e-07  6.4085881211864154e-07  6.4085879438869919e-07  6.4085880004182746e-07  6.4085879868478296e-07  6.4085879878559798e-07  6.4085879880956700e-07  6.4085879879793025e-07  6.4085879880035372e-07  6.4085879880034144e-07  6.4085879880016324e-07  6.4085879880007409e-07  6.4085879879937296e-07  6.4085879880153395e-07  6.4085879880043758e-07  6.4085879878697896e-07  6.4085879880648751e-07  6.4085879876355924e-07  6.4085879882667177e-07  6.4085879854265697e-07  6.4085879977270191e-07  6.4085879832858866e-07  6.4085879616531077e-07  6.4085879703820914e-07  6.4085876911184055e-07  6.4085895277092888e-07  6.4085847595171405e-07  6.4085842905179898e-07  6.4086734469930150e-07  6.4081828775922382e-07  6.4094861059605012e-07  6.4062857986979131e-07  6.4146506978178414e-07  6.4014299607648181e-07  6.2534734117837218e-07  6.3144212243745219e-07  7.8099089625095916e-07  8.1569552440106210e-07  6.6225866481597582e-07  6.3392506784016760e-07  6.4751944912421270e-07  5.9485192398918985e-07  8.6225161597625282e-07  -1.0827049311288147e-06  8.3757675127493584e-06  -1.0849989731950044e-05  -1.2772289653795825e-04  3.6835874419421199e-03  1.0210936563017225e-02  1.5775343889215497e-02  1.5180526221205791e-02  1.1381981236356543e-02  7.7033184048356145e-03  3.679869369196580