<?xml version="1.0"?>
<VTKFile type="UnstructuredGrid"  version="0.1"  >
<UnstructuredGrid>
<Piece  NumberOfPoints="3879" NumberOfCells="6881">
<Points>
<DataArray  type="Float64"  NumberOfComponents="3"  format="ascii">0.207524190028372 0.2122422770132111 0  0 0 0  1 0 0  0 1 0  1 1 0  0.6249674373315121 0.2590146544375328 0  0.204663578893616 0.322657230836866 0  0.09605577522599912 0.4018360776629776 0  0.671351124618251 0.08738059142081528 0  0.7842102907526436 0.1666439122351055 0  0.8512483166984784 0.1985391006160637 0  0.6418797837909295 0.4423157172830166 0  0.9292488447973215 0.3869277868069776 0  0.3197896119137055 0.5509935221980964 0  0.3979283685568406 0.5079871620336583 0  0.1572503457993085 0.7345153245035532 0  0.3032914287999163 0.7872981443735918 0  0.3549464687598876 0.8870324161721976 0  0.9691791685505482 0.5159450047798622 0  0.9447564590470373 0.6146164845729313 0  0.7687603548175107 0.7176858127488035 0  0.8926159261971183 0.7422924070424508 0  0.2061587782631535 0.2217389244366831 0  0.2021731605082994 0.2304662099646423 0  0.1958902278109265 0.2377171008267789 0  0.1878189860121365 0.2429041729681512 0  0.1786133191209442 0.2456072006525708 0  0.1690190155206647 0.2456072006525708 0  0.1598133486294724 0.2429041729681512 0  0.1517421068306824 0.2377171008267789 0  0.1454591741333096 0.2304662099646422 0  0.1414735563784554 0.221738924436683 0  0.1401081446132369 0.212242277013211 0  0.1414735563784555 0.202745629589739 0  0.1454591741333096 0.1940183440617798 0  0.1517421068306825 0.1867674531996431 0  0.1598133486294725 0.1815803810582709 0  0.1690190155206649 0.1788773533738513 0  0.1786133191209443 0.1788773533738514 0  0.1878189860121367 0.181580381058271 0  0.1958902278109266 0.1867674531996433 0  0.2021731605082994 0.19401834406178 0  0.2061587782631535 0.2027456295897391 0  0.03333333333333333 0 0  0.06666666666666667 0 0  0.1 0 0  0.1333333333333333 0 0  0.1666666666666667 0 0  0.2 0 0  0.2333333333333333 0 0  0.2666666666666667 0 0  0.3 0 0  0.3333333333333333 0 0  0.3666666666666666 0 0  0.4 0 0  0.4333333333333333 0 0  0.4666666666666667 0 0  0.5 0 0  0.5333333333333333 0 0  0.5666666666666667 0 0  0.6 0 0  0.6333333333333333 0 0  0.6666666666666666 0 0  0.7 0 0  0.7333333333333333 0 0  0.7666666666666667 0 0  0.8 0 0  0.8333333333333334 0 0  0.8666666666666667 0 0  0.9 0 0  0.9333333333333333 0 0  0.9666666666666667 0 0  0 0.9666666666666667 0  0 0.9333333333333333 0  0 0.9 0  0 0.8666666666666667 0  0 0.8333333333333334 0  0 0.8 0  0 0.7666666666666666 0  0 0.7333333333333334 0  0 0.7 0  0 0.6666666666666667 0  0 0.6333333333333333 0  0 0.6 0  0 0.5666666666666667 0  0 0.5333333333333333 0  0 0.5 0  0 0.4666666666666667 0  0 0.4333333333333333 0  0 0.4 0  0 0.3666666666666667 0  0 0.3333333333333334 0  0 0.3 0  0 0.2666666666666667 0  0 0.2333333333333333 0  0 0.2 0  0 0.1666666666666666 0  0 0.1333333333333333 0  0 0.09999999999999998 0  0 0.06666666666666665 0  0 0.03333333333333333 0  1 0.03333333333333333 0  1 0.06666666666666667 0  1 0.1 0  1 0.1333333333333333 0  1 0.1666666666666667 0  1 0.2 0  1 0.2333333333333333 0  1 0.2666666666666667 0  1 0.3 0  1 0.3333333333333333 0  1 0.3666666666666666 0  1 0.4 0  1 0.4333333333333333 0  1 0.4666666666666667 0  1 0.5 0  1 0.5333333333333333 0  1 0.5666666666666667 0  1 0.6 0  1 0.6333333333333333 0  1 0.6666666666666666 0  1 0.7 0  1 0.7333333333333333 0  1 0.7666666666666667 0  1 0.8 0  1 0.8333333333333334 0  1 0.8666666666666667 0  1 0.9 0  1 0.9333333333333333 0  1 0.9666666666666667 0  0.9666666666666667 1 0  0.9333333333333333 1 0  0.9 1 0  0.8666666666666667 1 0  0.8333333333333334 1 0  0.8 1 0  0.7666666666666666 1 0  0.7333333333333334 1 0  0.7 1 0  0.6666666666666667 1 0  0.6333333333333333 1 0  0.6 1 0  0.5666666666666667 1 0  0.5333333333333333 1 0  0.5 1 0  0.4666666666666667 1 0  0.4333333333333333 1 0  0.4 1 0  0.3666666666666667 1 0  0.3333333333333334 1 0  0.3 1 0  0.2666666666666667 1 0  0.2333333333333333 1 0  0.2 1 0  0.1666666666666666 1 0  0.1333333333333333 1 0  0.09999999999999998 1 0  0.06666666666666665 1 0  0.03333333333333333 1 0  0.6247072676344306 0.2689501343248463 0  0.6239274716502419 0.2788583817523955 0  0.6226301867455355 0.2887122389026952 0  0.6208189686880621 0.2984846970382296 0  0.6184987819006211 0.3081489705305245 0  0.6156759858539226 0.317678570277693 0  0.6123583176357204 0.3270473763092224 0  0.6085548707439923 0.3362297093789981 0  0.6042760701622942 0.3452004013503318 0  0.5995336437856049 0.3539348641800754 0  0.5943405902749808 0.3624091573127375 0  0.5887111434291297 0.3706000532998825 0  0.582660733170558 0.3784851014649517 0  0.5762059432532257 0.3860426894390078 0  0.5693644658076293 0.3932521023987353 0  0.5621550528479018 0.4000935798443317 0  0.5545974648738458 0.4065483697616639 0  0.5467124167087765 0.4125987800202355 0  0.5385215207216315 0.4182282268660866 0  0.5300472275889694 0.4234212803767108 0  0.5213127647592257 0.4281637067534002 0  0.512342072787892 0.4324425073350981 0  0.5031597397181163 0.4362459542268262 0  0.493790933686587 0.4395636224450283 0  0.4842613339394185 0.4423864184917269 0  0.4745970604471235 0.4447066052791678 0  0.4648246023115891 0.4465178233366412 0  0.4549707451612894 0.4478151082413475 0  0.4450624977337403 0.4485949042255363 0  0.4351270178464268 0.4488550739226177 0  0.4251915379591132 0.4485949042255363 0  0.4152832905315641 0.4478151082413475 0  0.4054294333812644 0.4465178233366411 0  0.39565697524573 0.4447066052791677 0  0.385992701753435 0.4423864184917267 0  0.3764631020062665 0.4395636224450281 0  0.3670942959747371 0.4362459542268259 0  0.3579119629049616 0.4324425073350978 0  0.3489412709336278 0.4281637067533998 0  0.3402068081038843 0.4234212803767103 0  0.3317325149712221 0.4182282268660862 0  0.3235416189840771 0.412598780020235 0  0.3156565708190078 0.4065483697616634 0  0.3080989828449519 0.4000935798443311 0  0.3008895698852244 0.3932521023987346 0  0.2940480924396279 0.3860426894390071 0  0.2875933025222958 0.3784851014649511 0  0.2815428922637242 0.3706000532998818 0  0.2759134454178731 0.3624091573127368 0  0.2707203919072489 0.3539348641800746 0  0.2659779655305596 0.3452004013503309 0  0.2616991649488616 0.3362297093789972 0  0.2578957180571336 0.3270473763092215 0  0.2545780498389315 0.3176785702776921 0  0.251755253792233 0.3081489705305236 0  0.249435067004792 0.2984846970382286 0  0.2476238489473186 0.2887122389026941 0  0.2463265640426123 0.2788583817523945 0  0.2455467680584236 0.2689501343248454 0  0.2452865983613423 0.2590146544375318 0  0.2455467680584237 0.2490791745502182 0  0.2463265640426126 0.2391709271226692 0  0.247623848947319 0.2293170699723696 0  0.2494350670047924 0.2195446118368351 0  0.2517552537922335 0.2098803383445402 0  0.2545780498389321 0.2003507385973717 0  0.2578957180571343 0.1909819325658423 0  0.2616991649488624 0.1817995994960667 0  0.2659779655305604 0.172828907524733 0  0.2707203919072498 0.1640944446949895 0  0.2759134454178741 0.1556201515623273 0  0.2815428922637251 0.1474292555751825 0  0.2875933025222969 0.1395442074101132 0  0.2940480924396291 0.1319866194360571 0  0.3008895698852256 0.1247772064763297 0  0.3080989828449531 0.1179357290307334 0  0.3156565708190092 0.1114809391134012 0  0.3235416189840785 0.1054305288548295 0  0.3317325149712236 0.09980108200897844 0  0.3402068081038856 0.0946080284983544 0  0.3489412709336291 0.08986560212166514 0  0.357911962904963 0.08558680153996717 0  0.3670942959747386 0.08178335464823916 0  0.3764631020062678 0.07846568643003712 0  0.3859927017534364 0.0756428903833386 0  0.3956569752457313 0.0733227035958976 0  0.4054294333812659 0.07151148553842429 0  0.4152832905315654 0.07021420063371797 0  0.4251915379591144 0.0694344046495293 0  0.435127017846428 0.0691742349524479 0  0.4450624977337415 0.06943440464952938 0  0.4549707451612905 0.07021420063371814 0  0.4648246023115901 0.07151148553842454 0  0.4745970604471245 0.07332270359589793 0  0.4842613339394195 0.07564289038333902 0  0.4937909336865879 0.07846568643003757 0  0.5031597397181173 0.0817833546482398 0  0.5123420727878929 0.08558680153996781 0  0.5213127647592265 0.08986560212166581 0  0.53004722758897 0.0946080284983552 0  0.5385215207216321 0.09980108200897933 0  0.5467124167087771 0.1054305288548305 0  0.5545974648738462 0.1114809391134021 0  0.5621550528479023 0.1179357290307343 0  0.5693644658076298 0.1247772064763308 0  0.576205943253226 0.1319866194360582 0  0.5826607331705582 0.1395442074101142 0  0.5887111434291299 0.1474292555751835 0  0.594340590274981 0.1556201515623285 0  0.5995336437856051 0.1640944446949906 0  0.6042760701622945 0.172828907524734 0  0.6085548707439925 0.1817995994960678 0  0.6123583176357205 0.1909819325658435 0  0.6156759858539227 0.2003507385973728 0  0.6184987819006211 0.2098803383445412 0  0.6208189686880622 0.2195446118368362 0  0.6226301867455355 0.2293170699723706 0  0.6239274716502419 0.2391709271226702 0  0.6247072676344306 0.2490791745502192 0  0.203885768735257 0.3325402459548524 0  0.2015714905276826 0.3421799084407872 0  0.1977777294810124 0.3513388578120612 0  0.1925979005829864 0.3597915703383434 0  0.1861595484119405 0.3673299121842922 0  0.1786212065659918 0.373768264355338 0  0.1701684940397096 0.378948093253364 0  0.1610095446684356 0.3827418543000342 0  0.1513698821825007 0.3850561325076086 0  0.1414868670645144 0.3858339426659677 0  0.1316038519465281 0.3850561325076086 0  0.1219641894605933 0.3827418543000343 0  0.1128052400893193 0.378948093253364 0  0.1043525275630371 0.3737682643553381 0  0.09681418571708833 0.3673299121842922 0  0.09037583354604248 0.3597915703383434 0  0.08519600464801645 0.3513388578120612 0  0.08140224360134621 0.3421799084407872 0  0.07908796539377183 0.3325402459548523 0  0.07831015523541281 0.3226572308368659 0  0.07908796539377186 0.3127742157188796 0  0.08140224360134626 0.3031345532329447 0  0.08519600464801655 0.2939756038616707 0  0.0903758335460426 0.2855228913353884 0  0.0968141857
[...]
<PointData  Scalars="$\epsilon$"> 
<DataArray  type="Float64"  Name="$\epsilon$"  format="ascii">2.8224681533476985e-04  5.7157691250349910e-07  5.7157677118477809e-07  5.7157672495139854e-07  5.7157696317888450e-07  8.7056821475857893e-04  5.9215861553710045e-07  1.5556100564237857e-04  -1.6189401949171572e-05  -1.9598572133179116e-06  5.7159393533561497e-07  -4.2462995838428966e-05  7.2741758053434915e-03  8.1535170182689008e-04  5.7157821708112440e-07  5.0568342607728498e-07  9.1462319651320698e-06  5.7302787819516578e-07  7.2516207647625369e-02  6.6009837594592545e-03  1.0430128508353090e-06  5.7167313684094493e-07  -3.6094724445620961e-05  3.2820107492615295e-06  6.4281310720829897e-07  -6.7432544053578248e-06  1.8057963361066585e-05  -2.8586000173791439e-05  4.7064137902263500e-04  1.4681160864766065e-03  -1.2862218144858356e-04  4.6061900815163521e-06  -3.0077156862602663e-07  7.5043885371722119e-07  5.4048590576193881e-07  5.7545291758410982e-07  5.7137205174835529e-07  5.7145473548471309e-07  5.7428534736460612e-07  5.5002286231251847e-07  6.7640630833433386e-07  -1.6749557212565299e-06  1.8777926443298389e-05  5.7157681338177873e-07  5.7157668316417846e-07  5.7157678882353756e-07  5.7157676240781740e-07  5.7157677697811997e-07  5.7157678861592333e-07  5.7157676053512380e-07  5.7157676767202457e-07  5.7157676632373394e-07  5.7157676653616016e-07  5.7157676637835020e-07  5.7157676648298852e-07  5.7157677150248660e-07  5.7157688772107065e-07  5.7157526376999171e-07  5.7157207779893237e-07  5.7167096886547338e-07  5.7078994564520083e-07  5.7436785999497767e-07  5.7988027131947516e-07  5.9454902721929117e-07  5.7083389202937724e-07  5.6994523555035851e-07  5.7210309605921862e-07  5.7149023102392379e-07  5.7158817460697030e-07  5.7157609842402413e-07  5.7157689187175941e-07  5.7157674283540718e-07  5.7157693820999085e-07  5.7157634228441599e-07  5.7157564750473764e-07  5.7160082459126985e-07  5.7137213961173079e-07  5.7258052046981518e-07  5.5349599957931566e-07  7.1797938118055662e-07  -1.6562555486708407e-07  8.0374578241938825e-06  -4.5479494699118851e-05  1.9115112000183711e-04  -7.0296581789856314e-05  4.6053388675758989e-04  -2.5953724097163653e-04  1.9943195264134966e-03  5.2637362058791807e-03  -1.3074763688078986e-03  1.6635437669168239e-04  -8.9542576683577784e-06  -1.4421890212239313e-07  9.4009128860104649e-07  5.4041671813964124e-07  5.6965100661637472e-07  5.7272042135673904e-07  5.7130049597024822e-07  5.7162681786590128e-07  5.7157123849140661e-07  5.7157695489233884e-07  5.7157678260116407e-07  5.7157664125169217e-07  5.7157749589539160e-07  5.7157394855754610e-07  5.7157930996677098e-07  5.7167995595737719e-07  5.7417544269676211e-07  5.3794921996751597e-07  4.5108486367642071e-07  2.5558871674538806e-06  -3.2672245580927156e-06  1.1864669236412920e-05  -1.2574150295123027e-04  2.2383412193628066e-03  -3.7791091338380944e-03  2.9964504617017405e-02  1.6390597689445098e-02  -2.5953983672638045e-03  2.2941167691395122e-04  -3.9137259998623198e-05  3.1162394835403665e-06  7.4826228762864902e-08  6.2822887101963813e-07  5.6482245680693929e-07  5.7244581844774637e-07  5.7151600252120825e-07  5.7156631344846789e-07  5.7158116418034467e-07  5.7157577635145098e-07  5.7157666500098098e-07  5.7157674497985172e-07  5.7157677312884110e-07  5.7157678145499350e-07  5.7157676154051517e-07  5.7157676749736479e-07  5.7157676659461846e-07  5.7157676641593337e-07  5.7157676653206762e-07  5.7157676649277291e-07  5.7157676649740121e-07  5.7157676649989021e-07  5.7157676648519080e-07  5.7157676662595519e-07  5.7157676564952917e-07  5.7157677320609030e-07  5.7157673628300806e-07  5.7157749129642833e-07  5.7158260192146253e-07  5.7150573688276250e-07  5.7162732456763338e-07  5.7216086209945619e-07  5.7190320233537724e-07  5.7124568858830267e-07  5.7164780286443083e-07  5.7156710766433743e-07  5.7157842902526769e-07  5.7157657967673180e-07  5.7157677146503239e-07  -3.9062402165692336e-05  2.3962854646785590e-06  1.2288786833175773e-06  3.3033596783693617e-07  6.1925466496582341e-07  5.6486507721588555e-07  5.7230365662899273e-07  5.7174815175168249e-07  5.7172131313025682e-07  5.7138192342149430e-07  5.7103599391076565e-07  5.7146777471549598e-07  5.7181483705954674e-07  5.7130978136705881e-07  5.7118439107676136e-07  5.7181184706092937e-07  5.7155634071673819e-07  5.7156733930727312e-07  5.7158184300166331e-07  5.7157492644730090e-07  5.7157710952529048e-07  5.7157672186683129e-07  5.7157676836346159e-07  5.7157676723421770e-07  5.7157676577587567e-07  5.7157677181591028e-07  5.7157672962663924e-07  5.7157694189000807e-07  5.7157613899392562e-07  5.7157814538527800e-07  5.7157279473205219e-07  5.7158310607532323e-07  5.7162817109996850e-07  5.7124397856779319e-07  5.7081624190737541e-07  5.7576869417991499e-07  5.7501603843122124e-07  5.7518005443577471e-07  5.9406989848293110e-07  6.1858991673639726e-07  6.0169826024324016e-07  5.9513219406058861e-07  5.9725807796564017e-07  -4.6816210647931222e-07  1.1903026702755268e-05  -8.4307566472747796e-05  7.8953953526213455e-04  3.0234461412354413e-03  4.6125683618552463e-03  4.8237776507706479e-03  4.3951351350894627e-03  4.8479356971482881e-03  4.6513241862795882e-03  4.0296820850641213e-03  1.6435268622283818e-03  -2.4017465391843973e-05  -7.3034381643287574e-06  3.1478677606827093e-06  1.5678619699354864e-07  6.0641115712463174e-07  5.6295095464810399e-07  6.4281361531313904e-07  5.0028873531835120e-07  2.8313605674913332e-07  3.5160922263790405e-07  5.4568464322024869e-07  6.0400535195119681e-07  5.5909620380256410e-07  5.7505656607586694e-07  5.7082749828914742e-07  5.7170044628723374e-07  5.7156181258729064e-07  5.7157687303438448e-07  5.7157716542166626e-07  5.7157664930226737e-07  5.7157679213051925e-07  5.7157676199383778e-07  5.7157676706150207e-07  5.7157676653532457e-07  5.7157676648779458e-07  5.7157676649404886e-07  5.7157676649821870e-07  5.7157676649771535e-07  5.7157676650021198e-07  5.7157676649880760e-07  5.7157676643165282e-07  5.7157676656665176e-07  5.7157676653749181e-07  5.7157676633056759e-07  5.7157676584854739e-07  5.7157676535311867e-07  5.7157676455541099e-07  5.7157677563882355e-07  5.7157676454615610e-07  5.7157673243407214e-07  5.7157676761390255e-07  5.7157674636143996e-07  5.7157715293467828e-07  5.7157768125406954e-07  5.7156924515373658e-07  5.7160275207850300e-07  5.7148278495280509e-07  5.7166505406831282e-07  5.7174502316386511e-07  5.7268638062429438e-07  5.6926224815548259e-07  5.7566024762753913e-07  5.8926823302912648e-07  5.8906725456480709e-07  6.8434750609035641e-07  4.1194136194777808e-07  7.1115660145541465e-07  7.2996643860874688e-06  -6.6357358026379582e-05  4.4898841018381589e-04  4.6964058295664501e-03  7.4402358552269716e-03  7.2081440570607204e-03  3.3558361892272771e-03  4.5877867660572787e-07  6.4639483942397078e-07  4.9715690138985826e-07  5.5629855245185620e-07  5.8272528683522338e-07  5.6924629650248928e-07  5.6685296392762779e-07  6.1058083177193580e-07  5.4733611347879126e-07  -1.1252036531417489e-06  1.9395577081798756e-05  -1.2638381310669093e-04  1.6079235697195795e-03  -3.3951430062120634e-05  3.7112999934162424e-06  4.0114177274142115e-07  -4.9685889395737182e-07  1.1331480662622451e-07  5.5605724298585102e-07  8.0535013759443069e-07  7.4009259240512436e-07  5.8400151284798196e-07  5.5206854971993748e-07  5.7595007870526752e-07  5.7269378483493514e-07  5.3952318215134743e-07  8.6936025450398780e-07  -1.1157989413705380e-06  6.7558401551533416e-06  -6.7791946588203524e-06  5.5613007999547599e-06  -3.1197203015193157e-05  4.3909135938374473e-04  3.2794664171110620e-04  -4.4382840743102575e-05  4.5762834605253301e-06  7.7812953820712784e-07  4.0767412281518527e-07  9.3690262220109945e-07  -1.4936490864556029e-05  2.6975525830359611e-06  5.7467112658535446e-07  -1.3715748560662871e-06  -1.4147873436726345e-04  8.2412676645122443e-04  -3.6229359886842064e-03  1.0994039065115467e-02  2.7943282808929389e-02  1.7566240934500078e-02  -3.2461521144651838e-03  5.4037977078760866e-04  -6.6193931725082715e-05  4.4524951118652203e-06  3.7926687248583160e-06  -4.3167344587741698e-05  2.7426836386622072e-04  5.2695207281310578e-03  3.2016976495936457e-03  4.2878645568815508e-04  6.2084192396572686e-04  -4.4611851912790363e-05  -1.7032587432660236e-05  7.3563134288375023e-06  -4.2530935169505630e-07  5.2110637344783628e-07  2.1699297994817300e-06  3.6500979842100213e-07  5.8322097934803192e-07  5.6938176578300110e-07  5.7159812051849101e-07  5.7296916148784323e-07  5.6608399646387943e-07  5.7127585498019152e-07  7.2429947896289806e-07  -8.6832706419736496e-07  9.7997120870978533e-06  -3.2422641886698398e-05  1.2533997168108177e-05  -2.0707715686766790e-04  1.4385063411404418e-03  6.8255070445551793e-05  -6.2759170928725338e-06  9.7006799189802144e-07  6.7759098678820968e-07  5.3246638960205432e-07  5.7777691747931415e-07  5.7326985762510429e-07  5.5923076901142605e-07  6.0038444112623639e-07  5.3100172396988235e-07  5.5814251678673210e-07  8.5222981183734692e-07  -1.1045504416998137e-07  -1.8569988517017756e-07  1.3665288509733186e-06  -6.8484702051650405e-07  -6.0053899781185738e-08  -2.0711929902187545e-04  4.4451239064611150e-03  1.4572772324134436e-02  8.9807128951815383e-03  -1.0815378702721469e-03  2.0344964044211335e-04  -4.3409232134909355e-05  1.5571328091096104e-05  -4.6190164900765900e-06  2.0010317322212779e-06  2.4970554449101538e-07  6.2683734812936378e-07  5.6458814535703672e-07  5.7205716802506863e-07  5.7133236636321305e-07  5.7303000282233595e-07  5.6946930543783265e-07  5.4255759710144482e-07  9.3151551129642144e-07  5.7156959385958024e-07  5.7158981550891949e-07  5.7078375749842855e-07  5.7881667902323381e-07  5.8407510968135560e-07  1.3803866358288160e-07  4.7779604480004179e-06  -2.5643420780624914e-05  4.1065661949339649e-05  3.0472961256389901e-05  8.0162529421398269e-07  -5.0184089379093852e-07  7.8166054769313161e-07  5.4337217712716785e-07  5.7363320841338773e-07  5.7173443785363361e-07  5.7151002145453999e-07  2.3659533475444954e-06  5.5990579467860034e-06  2.1957290243008436e-07  5.5119372708491645e-07  5.7249342741475138e-07  5.7183145872163994e-07  5.7150367625601279e-07  5.7146638208278400e-07  5.7249238778518561e-07  5.6755295237364136e-07  5.7018989312114830e-07  7.2271518247125916e-07  -1.0492855250459240e-06  5.3187191351629455e-06  1.2286595112136094e-06  -3.3195615870496125e-05  5.4989229669160540e-03  2.6100187378854511e-03  1.5316903719151734e-03  4.3028166882214770e-04  6.0384557632660026e-04  3.1499720980289053e-03  1.0373603296513385e-02  1.3676854733644260e-02  5.8287187215552167e-03  -6.0219438348364134e-04  2.6541094617725376e-05  1.3428244135907994e-06  -3.9326057396217408e-07  5.8877479012699396e-06  1.4519323274296724e-06  9.1773674346188641e-06  -1.4235935429850026e-04  1.3092581840700715e-03  3.9552632055766960e-03  2.7497112804704179e-03  9.0960553967139120e-04  4.7766831558210436e-05  -1.0625836183050592e-05  2.5551227546830974e-06  3.4780653713415141e-07  5.8021827073372478e-07  5.7385741413228825e-07  6.1574511240829756e-07  2.9315297224083379e-07  1.5207370520002542e-06  1.6732209424932604e-06  -3.8832277090153912e-05  9.0103471841376152e-04  2.7281563338065421e-03  4.3963795006909953e-03  6.6069729113869104e-03  7.7952582761864168e-03  4.0454304802613385e-03  1.2642585825916048e-03  8.6081285466106953e-04  2.1317617189643565e-04  5.7521388542490764e-05  5.8141041953922878e-05  1.2916480073497768e-05  -1.4476867833131618e-06  7.9275291174821589e-07  5.6382694435273884e-07  5.6748831763778780e-07  5.7312363128995423e-07  5.7140249115600629e-07  5.7151806368361079e-07  5.7146423171063767e-07  5.7154188934630070e-07  5.7169903189166242e-07  5.7171668712344429e-07  5.7129425547376210e-07  5.7177907851913484e-07  5.7246901093984949e-07  5.6619279538116164e-07  5.7844010930378695e-07  5.9021301831999240e-07  5.6086294623236332e-07  5.6489238735853550e-07  5.7478450919049931e-07  5.6467671230840849e-07  5.7335135709201174e-07  5.7187779125169848e-07  5.7141260376690323e-07  5.7161531654532800e-07  5.7156519318349434e-07  5.7159363615687723e-07  5.7149466451543095e-07  5.7197703056172789e-07  5.7077988702781243e-07  5.7187557302739653e-07  5.6190200508949193e-07  6.8462007277558661e-07  -6.3056377363444190e-07  4.5301255752838629e-06  4.7678842568276471e-06  -1.7269052318293819e-04  2.3813021028918900e-03  6.6282514719461063e-03  4.9862842470936965e-04  3.9400079828669465e-04  1.0240861986977896e-04  -1.3344361995840894e-05  2.0458021731735868e-06  5.1990580344529356e-07  5.4226195499512695e-07  5.8062365931361983e-07  5.7032014233701723e-07  5.7253101972439147e-07  5.7210785205827110e-07  5.7181325293024078e-07  5.7158548124637850e-07  5.7145898825847988e-07  5.7160297032064764e-07  5.7157642218331845e-07  5.7159723763527259e-07  5.7155785372245088e-07  5.7159133351709219e-07  5.7163772495981729e-07  5.7135057619937887e-07  5.7141111054045065e-07  5.7164731169045102e-07  5.7156051848081877e-07  5.7157661364601078e-07  5.7157674748525934e-07  5.7158786472850676e-07  5.7152544949417781e-07  5.7170543139881178e-07  5.7210665046887337e-07  5.7755638997916413e-07  4.7571011640291358e-07  1.2963716416851642e-06  -2.5913565615110397e-06  1.0316830400607896e-05  3.3289379919089912e-06  -3.7540472119457522e-04  3.8112494827848981e-03  1.5527274611545194e-02  2.4055988481167932e-02  2.8255851538964080e-02  3.6143545314466896e-02  2.7955295096001767e-02  1.6345030077575831e-02  6.2632228507659357e-03  2.6165162029573546e-05  -2.6022438666340098e-05  3.2829352983258007e-05  -5.3061628763096411e-06  5.0805393238427126e-06  -7.0998046612570938e-07  2.3423690162465455e-07  4.0527340888696881e-07  6.8120329153327586e-07  4.3582401072608615e-07  4.3693890354680856e-07  5.0391505897522391e-07  5.4504219240321153e-07  5.5478038891873521e-07  5.4789378089261874e-07  5.6951568391503544e-07  5.7699572314470286e-07  5.7069039845323812e-07  5.7085192157829468e-07  5.7429597532256546e-07  5.6794922912433952e-07  5.6294386911055277e-07  5.6947326344097415e-07  5.6165512059957152e-07  6.0044503827794889e-07  5.4289969778878438e-07  -6.4281580068805007e-08  9.4389938184225322e-06  -6.7339430407787766e-05  3.4692185761346791e-04  3.6128276290859919e-03  6.5145569237651749e-03  8.3318677564480619e-03  1.2584562220100718e-02  9.6983500485975076e-03  8.3879659043414184e-03  3.5871913115439608e-03  1.3756294529719331e-03  5.7121078035276674e-07  5.7345720119234611e-07  5.7009152155254268e-07  9.5399626763252800e-07  -3.0219780461410067e-06  1.7386829534354008e-05  -8.1735596461026555e-05  2.3590034671046293e-04  -4.9779865442936539e-05  -2.5806501453348351e-05  4.2255577594167229e-06  -1.1948927226045543e-07  6.4979481120268517e-07  5.6893696879239702e-07  5.7020488469782364e-07  5.7194483054953144e-07  5.8051265074993516e-07  5.8557156506949866e-07  5.6854243380417289e-07  5.7191528644670871e-07  5.7156053806883335e-07  5.7158116467854796e-07  5.7155427671603783e-07  5.7168020523723587e-07  5.7131907836263365e-07  5.7162098965586764e-07  5.7205619571748679e-07  5.7190071519668733e-07  5.7152102360215782e-07  5.7160348974253588e-07  5.7152271638041359e-07  5.7227465024612465e-07  5.6698615602754033e-07  5.9745625144437732e-07  -1.6644366436912916e-05  -9.9003640444073046e-05  4.3764624569895012e-03  1.8344603146399061e-02  1.6848937772733347e-02  2.3269938896079115e-03  -3.1435022625122503e-04  1.8263079806799073e-05  -4.7569581299630906e-05  9.3603115774031741e-06  2.5606521824223936e-07  2.2582565588156269e-07  7.1298073548511789e-07  5.3736138250791814e-07  5.7794906083046518e-07  5.7074506348622919e-07  5.7163369956788362e-07  5.7158397092845583e-07  5.7157253968608300e-07  5.7157911924562909e-07  5.7157792756432769e-07  5.7147775358556598e-07  5.7245640090014842e-07  5.6571101160489139e-07  5.9712176589338612e-07  -1.5556937366524029e-07  6.6451102787636226e-06  -2.5578490010251487e-08  6.0293394970954096e-07  5.6532222182289679e-07  5.7230621845157361e-07  5.7157295970456160e-07  5.7150082791516265e-07  5.7142986546381255e-07  5.7500640365041388e-07  5.5277746864540960e-07  6.2749792527735947e-07  3.5953154782139960e-07  6.0501553825015272e-07  1.3717053806769586e-06  1.7780524449804699e-06  2.0201052668891480e-06  -7.7790828417945121e-07  5.7151082454636964e-07  5.7155313973239742e-07  5.7157799269989100e-07  5.7161055131671600e-07  5.7148680413486368e-07  5.7127157837730655e-07  5.7709670062285577e-07  5.3271098915974454e-07  7.1415919543968440e-07  6.3297888989088309e-07  -6.5982853756823901e-06  7.2538865605804593e-05  -4.4416805612424256e-04  8.9031581041284207e-03  1.0010392033485164e-02  -2.2396125065205557e-04  2.4845256982857265e-04  2.3262056833795602e-04  -1.2881239279603635e-04  3.4000182032104071e-05  -3.1220980550142001e-06  6.7048498028624644e-07  6.1766601704645394e-07  5.5819774429638062e-07  6.2057815059089950e-02  -2.6068426359089184e-02  6.3203052867903259e-03  2.5267861955837502e-03  3.1053197287348381e-03  -1.9215133338914092e-03  5.9174221430486054e-03  2.7250327578210956e-02  1.2480500786219003e-02  2.2231028991124093e-04  3.9313386996053328e-05  -1.8310022334074510e-04  1.4371425814870384e-03  4.9312418459336654e-03  -5.3498863126803147e-04  1.5553049559680356e-03  -5.5915540717903674e-03  3.8723764247465944e-02  9.7471177319515684e-03  4.6771076972819334e-03  -4.8015419679689696e-05  -2.0898372559375130e-05  8.1121514845365960e-06  -9.2734302124267472e-07  7.5308153359312081e-07  5.7079598779727236e-07  5.6393229978845889e-07  5.7363469890759705e-07  5.7120564910081617e-07  5.7159450346620156e-07  5.7181314212260188e-07  5.7032060539046267e-07  5.7413759112333925e-07  5.7306527254138681e-07  5.5613164579809242e-07  5.6491253023851570e-07  5.8093975318251444e-07  5.6985937322937223e-07  5.6248659539256905e-07  6.4294777978107429e-07  2.9253986215786738e-07  2.0770818244421991e-07  1.4131532915348588e-05  -1.3138573792658139e-04  9.1503290109216744e-04  4.3441046520239441e-03  2.2790393104499952e-03  2.4470645041001823e-04  -5.0196439766806729e-05  4.6354429788930509e-05  -2.7636053333632868e-04  1.5539719857314874e-03  2.0048630245621001e-02  1.3134944955225228e-02  -2.7095703129776296e-03  -3.7436619075809779e-04  3.5634966586481413e-04  1.8089528396454110e-04  -8.6385063885400842e-05  -2.0892931436278882e-04  1.7720725946020167e-03  6.0031129408908011e-07  5.6057976568836584e-07  6.5873719410984288e-07  6.1533093598196714e-07  5.4836500565813255e-07  5.7719102591230828e-07  5.7287637867538153e-07  5.7149865422252799e-07  5.7147120785851819e-07  5.7161618162832978e-07  5.7156939537771868e-07  5.7157726710327203e-07  5.7157699628198219e-07  5.7157668288737572e-07  5.7157678407768988e-07  5.7157676196085177e-07  5.7157676820233877e-07  5.7157676585540688e-07  5.7157676668985440e-07  5.7157676647801887e-07  5.7157676649553488e-07  5.7157676649879024e-07  5.7157676649718204e-07  5.7157676649752382e-07  5.7157676649745637e-07  5.7157676649744928e-07  5.7157676649750232e-07  5.7157676649744705e-07  5.7157676649745319e-07  5.7157676649744081e-07  5.7157676649738893e-07  5.7157676649715525e-07  5.7157676649712677e-07  5.7157676649931233e-07  5.7157676649767734e-07  5.7157676650161001e-07  5.7157676650336019e-07  5.7157676646596697e-07  5.7157676652802770e-07  5.7157676646835391e-07  5.7157676628215510e-07  5.7157676637960306e-07  5.7157676609120359e-07  5.7157676635606137e-07  5.7157676474463794e-07  5.7157680088974773e-07  5.7157650212010149e-07  5.7157846917637258e-07  5.7156706168232676e-07  5.7162537524415714e-07  5.7135507964222466e-07  5.7200897664150172e-07  5.7151024099526417e-07  5.6889942614802822e-07  5.7341453676802318e-07  5.7875863101931514e-07  5.4507496475411100e-07  5.6299835827282076e-07  7.7688114832526980e-07  -1.6194476367521398e-06  1.5908218538276387e-05  -7.2119032620076743e-05  4.9484240314183578e-04  4.7815050399493339e-03  1.0335162827832660e-02  1.0941260339485524e-02  7.2158807193833108e-03  4.2098466487283191e-03  1.7276916410765941e-03  2.93611503898796