<?xml version="1.0"?>
<VTKFile type="UnstructuredGrid"  version="0.1"  >
<UnstructuredGrid>
<Piece  NumberOfPoints="3879" NumberOfCells="6881">
<Points>
<DataArray  type="Float64"  NumberOfComponents="3"  format="ascii">0.207524190028372 0.2122422770132111 0  0 0 0  1 0 0  0 1 0  1 1 0  0.6249674373315121 0.2590146544375328 0  0.204663578893616 0.322657230836866 0  0.09605577522599912 0.4018360776629776 0  0.671351124618251 0.08738059142081528 0  0.7842102907526436 0.1666439122351055 0  0.8512483166984784 0.1985391006160637 0  0.6418797837909295 0.4423157172830166 0  0.9292488447973215 0.3869277868069776 0  0.3197896119137055 0.5509935221980964 0  0.3979283685568406 0.5079871620336583 0  0.1572503457993085 0.7345153245035532 0  0.3032914287999163 0.7872981443735918 0  0.3549464687598876 0.8870324161721976 0  0.9691791685505482 0.5159450047798622 0  0.9447564590470373 0.6146164845729313 0  0.7687603548175107 0.7176858127488035 0  0.8926159261971183 0.7422924070424508 0  0.2061587782631535 0.2217389244366831 0  0.2021731605082994 0.2304662099646423 0  0.1958902278109265 0.2377171008267789 0  0.1878189860121365 0.2429041729681512 0  0.1786133191209442 0.2456072006525708 0  0.1690190155206647 0.2456072006525708 0  0.1598133486294724 0.2429041729681512 0  0.1517421068306824 0.2377171008267789 0  0.1454591741333096 0.2304662099646422 0  0.1414735563784554 0.221738924436683 0  0.1401081446132369 0.212242277013211 0  0.1414735563784555 0.202745629589739 0  0.1454591741333096 0.1940183440617798 0  0.1517421068306825 0.1867674531996431 0  0.1598133486294725 0.1815803810582709 0  0.1690190155206649 0.1788773533738513 0  0.1786133191209443 0.1788773533738514 0  0.1878189860121367 0.181580381058271 0  0.1958902278109266 0.1867674531996433 0  0.2021731605082994 0.19401834406178 0  0.2061587782631535 0.2027456295897391 0  0.03333333333333333 0 0  0.06666666666666667 0 0  0.1 0 0  0.1333333333333333 0 0  0.1666666666666667 0 0  0.2 0 0  0.2333333333333333 0 0  0.2666666666666667 0 0  0.3 0 0  0.3333333333333333 0 0  0.3666666666666666 0 0  0.4 0 0  0.4333333333333333 0 0  0.4666666666666667 0 0  0.5 0 0  0.5333333333333333 0 0  0.5666666666666667 0 0  0.6 0 0  0.6333333333333333 0 0  0.6666666666666666 0 0  0.7 0 0  0.7333333333333333 0 0  0.7666666666666667 0 0  0.8 0 0  0.8333333333333334 0 0  0.8666666666666667 0 0  0.9 0 0  0.9333333333333333 0 0  0.9666666666666667 0 0  0 0.9666666666666667 0  0 0.9333333333333333 0  0 0.9 0  0 0.8666666666666667 0  0 0.8333333333333334 0  0 0.8 0  0 0.7666666666666666 0  0 0.7333333333333334 0  0 0.7 0  0 0.6666666666666667 0  0 0.6333333333333333 0  0 0.6 0  0 0.5666666666666667 0  0 0.5333333333333333 0  0 0.5 0  0 0.4666666666666667 0  0 0.4333333333333333 0  0 0.4 0  0 0.3666666666666667 0  0 0.3333333333333334 0  0 0.3 0  0 0.2666666666666667 0  0 0.2333333333333333 0  0 0.2 0  0 0.1666666666666666 0  0 0.1333333333333333 0  0 0.09999999999999998 0  0 0.06666666666666665 0  0 0.03333333333333333 0  1 0.03333333333333333 0  1 0.06666666666666667 0  1 0.1 0  1 0.1333333333333333 0  1 0.1666666666666667 0  1 0.2 0  1 0.2333333333333333 0  1 0.2666666666666667 0  1 0.3 0  1 0.3333333333333333 0  1 0.3666666666666666 0  1 0.4 0  1 0.4333333333333333 0  1 0.4666666666666667 0  1 0.5 0  1 0.5333333333333333 0  1 0.5666666666666667 0  1 0.6 0  1 0.6333333333333333 0  1 0.6666666666666666 0  1 0.7 0  1 0.7333333333333333 0  1 0.7666666666666667 0  1 0.8 0  1 0.8333333333333334 0  1 0.8666666666666667 0  1 0.9 0  1 0.9333333333333333 0  1 0.9666666666666667 0  0.9666666666666667 1 0  0.9333333333333333 1 0  0.9 1 0  0.8666666666666667 1 0  0.8333333333333334 1 0  0.8 1 0  0.7666666666666666 1 0  0.7333333333333334 1 0  0.7 1 0  0.6666666666666667 1 0  0.6333333333333333 1 0  0.6 1 0  0.5666666666666667 1 0  0.5333333333333333 1 0  0.5 1 0  0.4666666666666667 1 0  0.4333333333333333 1 0  0.4 1 0  0.3666666666666667 1 0  0.3333333333333334 1 0  0.3 1 0  0.2666666666666667 1 0  0.2333333333333333 1 0  0.2 1 0  0.1666666666666666 1 0  0.1333333333333333 1 0  0.09999999999999998 1 0  0.06666666666666665 1 0  0.03333333333333333 1 0  0.6247072676344306 0.2689501343248463 0  0.6239274716502419 0.2788583817523955 0  0.6226301867455355 0.2887122389026952 0  0.6208189686880621 0.2984846970382296 0  0.6184987819006211 0.3081489705305245 0  0.6156759858539226 0.317678570277693 0  0.6123583176357204 0.3270473763092224 0  0.6085548707439923 0.3362297093789981 0  0.6042760701622942 0.3452004013503318 0  0.5995336437856049 0.3539348641800754 0  0.5943405902749808 0.3624091573127375 0  0.5887111434291297 0.3706000532998825 0  0.582660733170558 0.3784851014649517 0  0.5762059432532257 0.3860426894390078 0  0.5693644658076293 0.3932521023987353 0  0.5621550528479018 0.4000935798443317 0  0.5545974648738458 0.4065483697616639 0  0.5467124167087765 0.4125987800202355 0  0.5385215207216315 0.4182282268660866 0  0.5300472275889694 0.4234212803767108 0  0.5213127647592257 0.4281637067534002 0  0.512342072787892 0.4324425073350981 0  0.5031597397181163 0.4362459542268262 0  0.493790933686587 0.4395636224450283 0  0.4842613339394185 0.4423864184917269 0  0.4745970604471235 0.4447066052791678 0  0.4648246023115891 0.4465178233366412 0  0.4549707451612894 0.4478151082413475 0  0.4450624977337403 0.4485949042255363 0  0.4351270178464268 0.4488550739226177 0  0.4251915379591132 0.4485949042255363 0  0.4152832905315641 0.4478151082413475 0  0.4054294333812644 0.4465178233366411 0  0.39565697524573 0.4447066052791677 0  0.385992701753435 0.4423864184917267 0  0.3764631020062665 0.4395636224450281 0  0.3670942959747371 0.4362459542268259 0  0.3579119629049616 0.4324425073350978 0  0.3489412709336278 0.4281637067533998 0  0.3402068081038843 0.4234212803767103 0  0.3317325149712221 0.4182282268660862 0  0.3235416189840771 0.412598780020235 0  0.3156565708190078 0.4065483697616634 0  0.3080989828449519 0.4000935798443311 0  0.3008895698852244 0.3932521023987346 0  0.2940480924396279 0.3860426894390071 0  0.2875933025222958 0.3784851014649511 0  0.2815428922637242 0.3706000532998818 0  0.2759134454178731 0.3624091573127368 0  0.2707203919072489 0.3539348641800746 0  0.2659779655305596 0.3452004013503309 0  0.2616991649488616 0.3362297093789972 0  0.2578957180571336 0.3270473763092215 0  0.2545780498389315 0.3176785702776921 0  0.251755253792233 0.3081489705305236 0  0.249435067004792 0.2984846970382286 0  0.2476238489473186 0.2887122389026941 0  0.2463265640426123 0.2788583817523945 0  0.2455467680584236 0.2689501343248454 0  0.2452865983613423 0.2590146544375318 0  0.2455467680584237 0.2490791745502182 0  0.2463265640426126 0.2391709271226692 0  0.247623848947319 0.2293170699723696 0  0.2494350670047924 0.2195446118368351 0  0.2517552537922335 0.2098803383445402 0  0.2545780498389321 0.2003507385973717 0  0.2578957180571343 0.1909819325658423 0  0.2616991649488624 0.1817995994960667 0  0.2659779655305604 0.172828907524733 0  0.2707203919072498 0.1640944446949895 0  0.2759134454178741 0.1556201515623273 0  0.2815428922637251 0.1474292555751825 0  0.2875933025222969 0.1395442074101132 0  0.2940480924396291 0.1319866194360571 0  0.3008895698852256 0.1247772064763297 0  0.3080989828449531 0.1179357290307334 0  0.3156565708190092 0.1114809391134012 0  0.3235416189840785 0.1054305288548295 0  0.3317325149712236 0.09980108200897844 0  0.3402068081038856 0.0946080284983544 0  0.3489412709336291 0.08986560212166514 0  0.357911962904963 0.08558680153996717 0  0.3670942959747386 0.08178335464823916 0  0.3764631020062678 0.07846568643003712 0  0.3859927017534364 0.0756428903833386 0  0.3956569752457313 0.0733227035958976 0  0.4054294333812659 0.07151148553842429 0  0.4152832905315654 0.07021420063371797 0  0.4251915379591144 0.0694344046495293 0  0.435127017846428 0.0691742349524479 0  0.4450624977337415 0.06943440464952938 0  0.4549707451612905 0.07021420063371814 0  0.4648246023115901 0.07151148553842454 0  0.4745970604471245 0.07332270359589793 0  0.4842613339394195 0.07564289038333902 0  0.4937909336865879 0.07846568643003757 0  0.5031597397181173 0.0817833546482398 0  0.5123420727878929 0.08558680153996781 0  0.5213127647592265 0.08986560212166581 0  0.53004722758897 0.0946080284983552 0  0.5385215207216321 0.09980108200897933 0  0.5467124167087771 0.1054305288548305 0  0.5545974648738462 0.1114809391134021 0  0.5621550528479023 0.1179357290307343 0  0.5693644658076298 0.1247772064763308 0  0.576205943253226 0.1319866194360582 0  0.5826607331705582 0.1395442074101142 0  0.5887111434291299 0.1474292555751835 0  0.594340590274981 0.1556201515623285 0  0.5995336437856051 0.1640944446949906 0  0.6042760701622945 0.172828907524734 0  0.6085548707439925 0.1817995994960678 0  0.6123583176357205 0.1909819325658435 0  0.6156759858539227 0.2003507385973728 0  0.6184987819006211 0.2098803383445412 0  0.6208189686880622 0.2195446118368362 0  0.6226301867455355 0.2293170699723706 0  0.6239274716502419 0.2391709271226702 0  0.6247072676344306 0.2490791745502192 0  0.203885768735257 0.3325402459548524 0  0.2015714905276826 0.3421799084407872 0  0.1977777294810124 0.3513388578120612 0  0.1925979005829864 0.3597915703383434 0  0.1861595484119405 0.3673299121842922 0  0.1786212065659918 0.373768264355338 0  0.1701684940397096 0.378948093253364 0  0.1610095446684356 0.3827418543000342 0  0.1513698821825007 0.3850561325076086 0  0.1414868670645144 0.3858339426659677 0  0.1316038519465281 0.3850561325076086 0  0.1219641894605933 0.3827418543000343 0  0.1128052400893193 0.378948093253364 0  0.1043525275630371 0.3737682643553381 0  0.09681418571708833 0.3673299121842922 0  0.09037583354604248 0.3597915703383434 0  0.08519600464801645 0.3513388578120612 0  0.08140224360134621 0.3421799084407872 0  0.07908796539377183 0.3325402459548523 0  0.07831015523541281 0.3226572308368659 0  0.07908796539377186 0.3127742157188796 0  0.08140224360134626 0.3031345532329447 0  0.08519600464801655 0.2939756038616707 0  0.0903758335460426 0.2855228913353884 0  0.0968141857
[...]
<PointData  Scalars="$\epsilon_{VM}$"> 
<DataArray  type="Float64"  Name="$\epsilon_{VM}$"  format="ascii">1.5547072599470827e-02  6.9597273329126590e-03  7.9897814522353720e-03  8.1723543405565757e-03  7.1465787722494352e-03  1.5651525458041375e-02  1.1958710697044662e-03  1.5982357206847615e-02  1.4551358528484212e-02  1.1310450156989914e-03  5.9035583516524077e-04  8.1499901892748070e-03  2.2333649369029974e-02  1.5677636370868945e-02  1.8280022220255429e-03  2.0208208345655621e-03  9.6349078144879995e-03  1.2110096729966505e-02  1.0320636301756604e-01  2.1132163918946921e-02  1.2417549754344505e-02  5.7393440437803304e-03  9.4959155292572688e-03  2.9223354894232141e-03  4.3189444809530932e-03  5.8513992349574131e-03  6.0917023899557951e-03  5.7782368287251657e-03  1.5206513213195175e-02  1.7468751153953216e-02  1.2933776316907000e-02  7.8227885168976104e-03  5.8416731174571095e-03  2.3470166964183162e-03  7.3247477256037851e-04  2.7349820463483973e-03  4.6057335934943846e-03  3.9415124176517590e-03  1.3509403062418942e-03  2.5649398222957476e-03  7.1442467375348925e-03  1.2450092019295256e-02  1.5284979389831572e-02  6.3802646457755390e-03  5.7932799946545490e-03  4.1679840957011141e-03  3.6913596203546066e-03  2.8388512886166751e-03  2.2618885050462193e-03  1.6992351806268218e-03  1.1969393710501933e-03  6.3296923196841414e-04  3.3367686742167191e-04  4.1883704098296407e-04  5.2074318958158074e-04  6.4242601629174452e-04  8.1349354462239686e-04  1.3873592873271702e-03  2.4198419632840544e-03  3.5720188580179854e-03  3.2948678411829128e-03  1.5870551807606180e-03  2.5974353615042700e-03  2.9900735589488826e-03  1.5393795883498346e-03  5.4689888057503800e-04  8.4149469037778568e-04  1.6414389371105808e-03  2.7259547316393893e-03  3.9600270718417154e-03  5.4983933809204825e-03  6.7185931927419918e-03  8.2339212750825227e-03  8.5294959344011292e-03  8.6979644978260780e-03  8.9557314087714626e-03  9.2842958804699727e-03  9.4514408252962308e-03  1.0295073633895716e-02  1.1277868421195200e-02  1.2616527475325750e-02  1.3000158319475588e-02  1.1869341707987405e-02  9.3504137118830526e-03  5.2039372471127240e-03  5.8954012436750851e-03  1.1237179638559898e-02  1.5967927526991894e-02  1.7762404082132772e-02  1.0305871455776657e-02  1.3760611480296388e-02  1.2410196138194499e-02  9.5501710938060702e-03  8.6763912269345860e-03  8.4794977920455809e-03  8.2858946421108786e-03  8.2824659035225304e-03  8.1403355088798795e-03  8.1375179436001029e-03  7.5818429095764984e-03  8.0076528303553839e-03  8.1062666347736217e-03  8.1902601676616862e-03  8.5853345527712507e-03  8.9887775579351806e-03  9.3522220827676594e-03  1.0024650904030218e-02  1.0111329011250005e-02  1.0011188775953009e-02  8.8339432127122405e-03  6.6125632246716946e-03  4.2046910069299566e-03  3.8498006405280156e-03  7.2417835820577066e-03  1.6472904578989738e-02  1.0754697396856737e-02  5.0565815821184280e-02  3.3661777616899251e-02  4.6750995701713201e-03  4.9581816995523820e-03  6.8115533006385546e-03  8.0264930942758120e-03  8.2839586589952326e-03  8.2206516900295620e-03  8.1353747271785768e-03  7.9514728756876468e-03  7.6178179201016162e-03  7.4093095367026695e-03  7.2687893516204475e-03  7.2034427810710334e-03  6.2808569796033147e-03  5.4380234446250201e-03  4.5215104345935828e-03  3.8093339333076246e-03  3.0920405334413283e-03  2.3868812825958105e-03  1.7430043713055248e-03  1.0436528288275775e-03  5.0057837809927444e-04  3.2790188589000156e-04  5.0483232216526439e-04  6.1817551098612049e-04  7.5352896192026734e-04  7.5453801874241150e-04  9.5041680552365184e-04  1.3899185603092820e-03  2.1729382309114932e-03  2.9632036088014947e-03  2.8693709950165743e-03  1.7160443168385837e-03  1.0180733978779361e-03  1.5897524794985958e-03  1.9112154851426910e-03  1.8331128078224043e-03  2.1426936478468402e-03  3.1020621929500319e-03  4.2176959252033927e-03  5.5549887427072224e-03  6.9331216040715085e-03  1.4339390916122392e-02  1.3110041511773821e-02  1.1950894193616703e-02  1.0533181777539780e-02  9.1978051910578777e-03  7.2304525334069619e-03  5.4174430633053593e-03  3.2550054263812515e-03  2.0381479886666049e-03  8.3995199793430282e-04  2.2988369498934077e-04  2.1495306209806227e-04  5.4073073070689962e-04  1.6973328559153334e-03  3.0298878178696589e-03  5.2653876004548393e-03  6.9742191263717605e-03  8.3502216580985510e-03  8.5852130490384083e-03  8.4829604601298746e-03  8.0799807361698478e-03  7.0322159304706290e-03  5.9040694791281647e-03  4.4608454442640602e-03  2.8747190398439072e-03  1.2727981457137311e-03  3.9255733716845204e-04  7.5441160343831610e-04  1.9909316460331905e-03  2.8010585808145349e-03  3.7129301218384986e-03  4.5840399526571604e-03  6.0849519428654792e-03  7.9308945310776671e-03  9.9615541351914822e-03  1.1090091068079162e-02  1.1713088135206707e-02  1.1449322085866749e-02  1.0498337500846524e-02  8.5099889465318473e-03  5.4779497820703167e-03  1.4511357158563912e-03  1.8565217350920997e-03  5.6547401088883715e-03  1.0562892186867951e-02  1.3019905380317357e-02  1.5556654790434088e-02  1.7801856065364559e-02  1.9007398090355863e-02  1.9214014809257433e-02  1.8722739896466552e-02  1.9125278923242794e-02  1.8879750634336816e-02  1.8140693105722024e-02  1.6235428477009657e-02  1.4526768614092701e-02  1.2506554225812270e-02  1.1146605794478265e-02  9.9952966509678255e-03  9.5506427895973803e-03  9.1073685327031813e-03  7.0642278540233904e-03  4.7739799760623935e-03  2.4064414605819550e-03  9.0434973823112286e-04  6.5603937770367798e-04  7.8386628939560777e-04  1.0817647793080912e-03  1.0757552227548400e-03  9.4591650528349017e-04  4.6160735036409391e-04  2.3321454558655871e-04  6.6311942502127053e-05  5.1222853604648854e-04  8.7698497180275809e-04  1.1332572311422693e-03  1.3357874427578241e-03  1.4483902074222642e-03  1.5594914695905451e-03  1.5205502016468139e-03  1.5100615415808737e-03  1.4625051215410585e-03  1.3960156615923733e-03  1.3260138426584008e-03  1.2867583553014177e-03  1.2359553762112338e-03  1.2135270506293092e-03  1.1954918667703522e-03  1.1928561000360152e-03  1.1952213302293512e-03  1.2249548855318725e-03  1.1816490820031310e-03  1.1193727418969681e-03  1.0872951603216571e-03  8.8563150870956536e-04  6.7009592734389525e-04  2.9600129897267436e-04  4.7813774767546036e-05  1.8303602943973104e-04  4.2128519741318473e-04  5.2143610029498652e-04  3.9761797318772351e-04  4.5987902829040404e-04  1.0573110477536090e-03  1.2456037829515997e-03  7.1868485500788430e-04  7.7593221168180090e-04  2.2951185522780042e-03  3.1700309776763352e-03  3.9633037231968605e-03  4.3402472700401450e-03  6.0142728571012582e-03  8.5186540028440103e-03  1.2078951530530214e-02  1.4883295074230101e-02  1.8559735808512612e-02  2.1296556027539465e-02  2.1088074801424099e-02  1.7587203740510263e-02  2.4275703790847519e-03  2.6209304094471824e-03  1.4283490940405076e-03  2.0836609693323472e-03  5.6080015170045915e-03  8.7421523797478213e-03  9.1328163605840559e-03  6.5337840184914861e-03  4.2396408610804416e-03  2.8566487113894032e-04  4.8823812120664910e-03  9.2004982050898129e-03  1.8844917558367966e-02  1.3337378844261215e-02  1.0534026098861162e-02  9.2955847061860393e-03  1.2133636047176722e-02  7.9377096668572216e-03  8.2003357846674799e-03  8.7798733526123999e-03  9.9520027855796982e-03  9.4865518728920895e-03  8.2817726435090895e-03  6.2697211080305418e-03  3.7537289293912697e-03  1.7129263256967914e-03  5.2730419623058704e-04  1.0811232814536900e-03  3.2571372422201131e-03  3.3460406996399911e-03  1.8163151657079922e-03  1.1735162171360457e-02  1.6388215071380455e-02  1.5002852302268084e-02  1.2776041264730625e-02  9.2744763277903403e-03  7.6609541769968254e-03  5.4901577317465634e-03  2.4033535101569848e-03  1.1963434456655169e-02  6.0212461420062679e-03  4.2580045335051985e-03  1.1131152132684867e-02  1.3277402672498316e-02  6.8857159476476684e-03  3.4840983050654258e-03  2.3832232710592927e-02  4.8697383364371322e-02  3.7037841567795340e-02  6.8803964455546700e-03  3.4467914476333538e-03  1.2592729745962131e-02  1.4850341685213630e-02  1.3576140174203222e-02  9.9041717740737181e-03  1.6046231448921103e-02  2.1752226912809959e-02  1.8525934077944731e-02  9.7374460886929352e-03  6.4240268318163036e-03  7.9452999559590717e-03  3.6704866287108461e-03  3.7189610358110258e-03  8.8808191077144726e-03  1.3266508091285913e-02  1.4245730749425587e-02  1.0965012545471770e-02  6.3526307615587325e-03  2.6843413732562439e-03  8.0918586385311862e-04  4.3433945465387452e-03  6.2420437053468409e-03  6.4946065542584412e-03  4.8352196802528020e-03  1.2954176541318334e-03  2.0817894536163889e-03  7.4717403071121284e-03  2.9259790755252310e-03  9.7780616365018350e-03  1.7782907418726474e-02  1.4397069837931934e-02  1.3716644075268531e-02  1.2012998479304026e-02  9.4633127478137031e-03  4.6752783228503425e-03  1.3844956320681816e-03  2.7921317970126900e-03  5.7789186017721938e-03  7.9394599898562814e-03  9.2841260688600880e-03  9.5881431807319263e-03  8.2969558216505982e-03  4.5231878071762995e-03  2.0212765177926601e-03  3.5009875252712337e-03  8.5814890724499222e-03  1.1360879023309858e-02  1.4268416169766131e-02  2.0017098161150947e-02  3.0088668296656306e-02  2.5190398552791034e-02  1.0627668104390127e-02  3.6781961205204681e-03  1.4252966743872044e-03  3.1100913284808253e-04  1.4501628122469580e-04  8.2987731482871922e-04  2.0839170141684306e-03  3.0773317742449247e-03  3.7392861102221852e-03  3.9795996540718170e-03  3.6778353566642797e-03  3.2178772255306446e-03  2.1281200190524010e-03  1.1406851213139925e-03  8.3577244699662779e-04  4.7212804193051759e-04  1.2504526213067222e-03  3.4420545641685920e-03  4.6509578916900498e-03  5.3822147087351684e-03  2.8492903366017534e-03  3.0860857200283782e-03  5.6300440182053199e-03  5.0359076666584247e-03  8.6106896238587471e-03  1.2822083966688923e-02  1.0121301067850268e-02  4.7811848849181483e-03  1.7952997253733872e-03  2.2722606786982659e-03  2.7296897169948281e-03  1.5245517850909619e-03  3.0508369689032110e-03  2.4342953841161282e-03  5.7385243079780329e-03  7.2172165600263736e-03  6.2001556181241835e-03  2.1573622663111506e-03  1.5216016217208098e-03  1.9068229924324646e-03  1.9043115097522592e-03  5.1375742647585994e-03  1.0632528669767717e-02  9.9646116452865169e-03  5.6347956125729045e-03  5.3348523366652670e-03  9.1396043550285386e-03  1.1889730168965273e-02  2.0043281759285041e-02  1.7349305160258999e-02  1.6387868291543848e-02  1.5117754274147015e-02  1.5511729583534362e-02  1.7639218643723108e-02  2.4333752464248678e-02  2.7561764745737589e-02  2.0603725118671461e-02  1.0400447413473721e-02  3.1152896841799248e-03  5.3295798765272189e-04  6.7305009720559689e-04  -3.6846094789587485e-08  1.4471543576412690e-03  5.6546960196382648e-03  1.2293895160770498e-02  1.6443625195250566e-02  1.9250971949377249e-02  1.8432696830024884e-02  1.6257448237790975e-02  1.4942755728705483e-02  1.3051596956311017e-02  1.1785707203251512e-02  9.1492598501928708e-03  6.8810622757260013e-03  3.3788379324549136e-03  4.8119357651214015e-04  3.5320279046094165e-03  7.5143069539895966e-03  1.1394669717174502e-02  1.4177069587451272e-02  1.5811393194042195e-02  1.7740183804733224e-02  1.8932712649826808e-02  2.0863400695462379e-02  2.1969454926469286e-02  1.7654532980557906e-02  1.5887219812122828e-02  1.5698428055332041e-02  1.4782584762140470e-02  1.4455256952772860e-02  1.4472879573019262e-02  1.4170100233151761e-02  1.3270305136014324e-02  1.1718324819490004e-02  9.5482672767204877e-03  7.1250912907740559e-03  5.1113084524640265e-03  3.3194669807609743e-03  2.8081726054536875e-03  3.1786466353884153e-03  4.3107024910892088e-03  6.0382573104214455e-03  7.1407510615282719e-03  7.0164881986926409e-03  4.9599570169867064e-03  1.5408348040742478e-03  1.1493729623347042e-03  4.5533479611603554e-03  5.8399403556677410e-03  5.7699195302576677e-03  5.2939362733683635e-03  5.7224666360800444e-03  6.4201890618918525e-03  5.9605985933123403e-03  5.1261386267949143e-03  3.9390350663940461e-03  3.4153698186080218e-03  2.7468547438135619e-03  2.1012123083498091e-03  1.2918432984909555e-03  3.1519207629707879e-04  7.1222026735504257e-04  1.9955847030412618e-03  4.0596333614218326e-03  6.0131551088948559e-03  8.6453143565295067e-03  1.0650952382760809e-02  1.3379331104995503e-02  1.4427925202558934e-02  1.7740521375819305e-02  2.1472874566459119e-02  1.5236628055441136e-02  1.5043483534590224e-02  1.4593638303570513e-02  1.3396347117984087e-02  1.1420896376400388e-02  9.0959291192967973e-03  6.4525713835966014e-03  4.0044837983802036e-03  2.0390473122150086e-03  1.0330695860609630e-03  1.1299643713297896e-03  1.9740367471730055e-03  3.6821323499029628e-03  5.1273646189687987e-03  5.9178727284400221e-03  4.4995785854468322e-03  1.5848861380903809e-03  1.2315737637659250e-03  4.8746036936281609e-03  7.9754308373005626e-03  9.3142043009790017e-03  9.3242487894036798e-03  9.2029892472962980e-03  8.6749289303061101e-03  8.2337456773431458e-03  6.4124955655567731e-03  4.8143889742688168e-03  3.6773504785034858e-03  2.9975794688568030e-03  2.1355635495496415e-03  1.0362095129759401e-03  1.3355028967487636e-04  2.1138258540515432e-03  3.5385404762694672e-03  6.6934252152818239e-03  9.6420553409179051e-03  1.3400783732046976e-02  1.8326094383373088e-02  3.1819246058561776e-02  4.4676094617288685e-02  5.0211426908749336e-02  5.8453249570742452e-02  4.9405127417742854e-02  3.3282423950625653e-02  2.1213323011352328e-02  1.4546768312551009e-02  1.0853539008879514e-02  8.0180910672204130e-03  6.6170384424579353e-03  6.1462636006371666e-03  6.8785596193627063e-03  7.6853197068918553e-03  5.8391064970196877e-03  2.7311911710167320e-03  3.6818510871189239e-03  6.0467302982195777e-03  5.7465197904444567e-03  5.1586591150590347e-03  6.0976506567480921e-03  8.8872553489448836e-03  1.1895971742529860e-02  1.3342415292846041e-02  1.3360873626634247e-02  1.2393760530681744e-02  1.2409381412306644e-02  1.1747328878062162e-02  1.2030060920191363e-02  1.0996323960179150e-02  8.0715925975250215e-03  4.9557663712712016e-03  7.2322959751190414e-04  3.1481500827986418e-03  8.0821939914560159e-03  1.2138008002291515e-02  1.5211271857375430e-02  1.8649864482396614e-02  2.1258582249155767e-02  2.3882687355861132e-02  2.9429840215331165e-02  2.4211949405707017e-02  2.3410762096974763e-02  1.8200086991172201e-02  1.6173785905602214e-02  2.4316724181132378e-03  7.2685865282901604e-03  1.0057959128136208e-02  8.7327917854441387e-03  5.0188240003078586e-03  7.1831403164683031e-03  1.2540018059720093e-02  1.2257518906711987e-02  6.4069458855620766e-03  2.2953595436926268e-03  3.9654715218381594e-03  8.2867980543772785e-03  8.1705568995363680e-03  3.6941616831917281e-03  1.6342473738432475e-03  2.4046472129542313e-03  4.2057453506179837e-03  8.3459646152490991e-03  8.6759096952252861e-03  5.7278605408066204e-03  2.0881388918871117e-03  1.1303986953469642e-03  2.4863352576468233e-03  4.6351528089201904e-03  5.2176526164853087e-03  3.6266744530907800e-03  9.8510614575033273e-04  1.2541875902713291e-03  9.2541502185214213e-04  1.8137748077869601e-03  3.8082163959504626e-03  5.6896427956824791e-03  3.2921513694549732e-03  3.1161881204462448e-03  1.2854892204790445e-02  1.4986215416787222e-02  1.9896441557499145e-02  3.4792606450820156e-02  3.2931981071296114e-02  1.6743714862975895e-02  3.2008805624591753e-03  2.6056537397922165e-03  1.4407688458959965e-03  -7.0657770061248584e-05  6.8294830301869570e-04  1.5180687480453659e-03  2.6313538489262972e-03  3.3359975419309600e-03  3.7155178733670156e-03  3.5525801504859024e-03  3.0674858184310855e-03  2.2203644861515186e-03  1.2876178371672585e-03  4.1954051205430666e-04  1.8214034609799406e-04  9.9542534264956614e-04  1.2162384109074876e-03  3.6109182232314722e-03  7.5805179575026936e-03  1.1566620720567930e-02  1.3972607951068989e-02  1.3053887039970392e-02  1.1819286277896213e-02  1.1480990961978708e-02  8.1532366734208238e-03  3.2231098994920915e-03  1.4356107139024282e-03  3.7138915968008461e-03  6.9501815633422215e-03  8.4172029624924472e-03  1.0108509500201439e-02  1.0792294766403695e-02  9.8524101557971276e-03  8.2583261048713736e-03  3.6682342252497536e-03  1.5369390769783735e-03  5.6255233839977723e-03  8.6213790858225489e-03  5.0468458791686627e-03  1.2677318761421749e-03  1.0797051316850568e-03  3.6611805540879990e-03  5.4296296928186358e-03  5.9856652880680246e-03  5.3844212287755449e-03  3.1434666250076196e-03  9.3786755927397370e-04  2.7128080473651766e-03  8.4955144253989583e-03  1.3356745596871143e-02  2.5707072407730673e-02  2.4499560045963042e-02  1.2089183623804617e-02  7.2202797952023922e-03  8.8989536779998085e-03  6.3048495576704527e-03  2.8105536362305690e-03  3.3557120735461508e-03  1.0161294669242569e-02  1.3599880802958686e-02  1.3411420064300413e-02  8.6733746995843117e-02  -1.8849965488574427e-02  1.8641515907434052e-02  2.0579706290993777e-02  2.0806413223136352e-02  1.6062113811955100e-02  2.1302906441927554e-02  4.4414361248571323e-02  3.0055168241384954e-02  1.5951505867100351e-02  8.6340323656496614e-03  6.5072800976597317e-03  1.5873878674570827e-02  2.2421233121676917e-02  1.1751982820981666e-02  5.2472448552429943e-03  6.1675291395958225e-03  6.4746454813451579e-02  2.4448728239844827e-02  1.9990172143746626e-02  1.4623406957467019e-02  1.0978617090214653e-02  6.6275894532838242e-03  3.1079769482312797e-03  7.8604841278762279e-04  1.7804125353309793e-03  3.9449827733696778e-03  5.6460267561581996e-03  3.7244243543867652e-03  3.2181237865460868e-03  4.2380565449287302e-03  8.2886619993004680e-03  6.3296148800393815e-03  4.1295897946605009e-03  3.4926108375497832e-03  3.4252087852442883e-03  4.3935192831233401e-03  5.0083521919418441e-03  5.1747701151092515e-03  4.9146505913210230e-03  5.1435326104443393e-03  6.1917837486661093e-03  8.9857496131855244e-03  1.2421445711729708e-02  1.6383114873226239e-02  1.9951833671474198e-02  1.7902032618901314e-02  1.4112297950406671e-02  6.3498987271161603e-03  3.5985145935650102e-03  6.4993108823666939e-03  1.5315888252000242e-02  4.0063491060591018e-02  3.0119522339316491e-02  8.4219437219428921e-03  1.0254355335685457e-02  1.5824966872825880e-02  1.4471167684868752e-02  1.1541178305622568e-02  1.3550300983979821e-02  1.6645830857740559e-02  9.8918620978161124e-03  7.1924209439921004e-03  5.1484238139301126e-03  3.4590230212328513e-03  3.1380241622994136e-03  2.8118056224960709e-03  2.7759288526938860e-03  2.4143708111253057e-03  2.0477698932512712e-03  1.5296837707764414e-03  1.0045734465203987e-03  4.3190943184806448e-04  1.3558219241577578e-04  2.5002699060045039e-04  7.0475491667705082e-04  1.0920381856227739e-03  1.3646665161302517e-03  1.6029379673924279e-03  1.6678262260549661e-03  1.7671193311195291e-03  1.8151821173005779e-03  1.7703204944265122e-03  1.7377167356124252e-03  1.6826649235600509e-03  1.5694174528423936e-03  1.5153781299842670e-03  1.4254347999795522e-03  1.3663576155379103e-03  1.3105928238562690e-03  1.2953379185183128e-03  1.2676238645522339e-03  1.2773308879920231e-03  1.2663355202156726e-03  1.2966336969777062e-03  1.2982008142315958e-03  1.2862516460878559e-03  1.2890589788004652e-03  1.2190999644170651e-03  1.1387483924009388e-03  1.0238642747722126e-03  8.0484208785937825e-04  6.0179735949563882e-04  3.0220619521683338e-04  7.8741824030610603e-05  9.0862590491506886e-05  2.8794051819700677e-04  2.0849049735064451e-04  2.9636884294578086e-04  4.8886158312103209e-04  9.4807164027985885e-04  1.9756276397137561e-03  1.8988549737817299e-03  1.4156331453544901e-03  5.1716406611030589e-04  1.1517237239758390e-03  2.2932376825211351e-03  2.9211737635396716e-03  3.3829611218668433e-03  4.2530831125730875e-03  6.1865326102002053e-03  8.8610082841263545e-03  1.2741428866129100e-02  1.5030842042888211e-02  1.9141174746394863e-02  2.4930060887190464e-02  2.6371302204564288e-02  2.2003274442386690e-02  1.8460556348963361e-02  1.6493901026774133e-02  1.5109817495954270e-02  1.4011162987651395e-02  1.2930902513430412e-02  1.1350672974456182e-02  9.5848390879422242