<?xml version="1.0"?>
<VTKFile type="UnstructuredGrid"  version="0.1"  >
<UnstructuredGrid>
<Piece  NumberOfPoints="3879" NumberOfCells="6881">
<Points>
<DataArray  type="Float64"  NumberOfComponents="3"  format="ascii">0.207524190028372 0.2122422770132111 0  0 0 0  1 0 0  0 1 0  1 1 0  0.6249674373315121 0.2590146544375328 0  0.204663578893616 0.322657230836866 0  0.09605577522599912 0.4018360776629776 0  0.671351124618251 0.08738059142081528 0  0.7842102907526436 0.1666439122351055 0  0.8512483166984784 0.1985391006160637 0  0.6418797837909295 0.4423157172830166 0  0.9292488447973215 0.3869277868069776 0  0.3197896119137055 0.5509935221980964 0  0.3979283685568406 0.5079871620336583 0  0.1572503457993085 0.7345153245035532 0  0.3032914287999163 0.7872981443735918 0  0.3549464687598876 0.8870324161721976 0  0.9691791685505482 0.5159450047798622 0  0.9447564590470373 0.6146164845729313 0  0.7687603548175107 0.7176858127488035 0  0.8926159261971183 0.7422924070424508 0  0.2061587782631535 0.2217389244366831 0  0.2021731605082994 0.2304662099646423 0  0.1958902278109265 0.2377171008267789 0  0.1878189860121365 0.2429041729681512 0  0.1786133191209442 0.2456072006525708 0  0.1690190155206647 0.2456072006525708 0  0.1598133486294724 0.2429041729681512 0  0.1517421068306824 0.2377171008267789 0  0.1454591741333096 0.2304662099646422 0  0.1414735563784554 0.221738924436683 0  0.1401081446132369 0.212242277013211 0  0.1414735563784555 0.202745629589739 0  0.1454591741333096 0.1940183440617798 0  0.1517421068306825 0.1867674531996431 0  0.1598133486294725 0.1815803810582709 0  0.1690190155206649 0.1788773533738513 0  0.1786133191209443 0.1788773533738514 0  0.1878189860121367 0.181580381058271 0  0.1958902278109266 0.1867674531996433 0  0.2021731605082994 0.19401834406178 0  0.2061587782631535 0.2027456295897391 0  0.03333333333333333 0 0  0.06666666666666667 0 0  0.1 0 0  0.1333333333333333 0 0  0.1666666666666667 0 0  0.2 0 0  0.2333333333333333 0 0  0.2666666666666667 0 0  0.3 0 0  0.3333333333333333 0 0  0.3666666666666666 0 0  0.4 0 0  0.4333333333333333 0 0  0.4666666666666667 0 0  0.5 0 0  0.5333333333333333 0 0  0.5666666666666667 0 0  0.6 0 0  0.6333333333333333 0 0  0.6666666666666666 0 0  0.7 0 0  0.7333333333333333 0 0  0.7666666666666667 0 0  0.8 0 0  0.8333333333333334 0 0  0.8666666666666667 0 0  0.9 0 0  0.9333333333333333 0 0  0.9666666666666667 0 0  0 0.9666666666666667 0  0 0.9333333333333333 0  0 0.9 0  0 0.8666666666666667 0  0 0.8333333333333334 0  0 0.8 0  0 0.7666666666666666 0  0 0.7333333333333334 0  0 0.7 0  0 0.6666666666666667 0  0 0.6333333333333333 0  0 0.6 0  0 0.5666666666666667 0  0 0.5333333333333333 0  0 0.5 0  0 0.4666666666666667 0  0 0.4333333333333333 0  0 0.4 0  0 0.3666666666666667 0  0 0.3333333333333334 0  0 0.3 0  0 0.2666666666666667 0  0 0.2333333333333333 0  0 0.2 0  0 0.1666666666666666 0  0 0.1333333333333333 0  0 0.09999999999999998 0  0 0.06666666666666665 0  0 0.03333333333333333 0  1 0.03333333333333333 0  1 0.06666666666666667 0  1 0.1 0  1 0.1333333333333333 0  1 0.1666666666666667 0  1 0.2 0  1 0.2333333333333333 0  1 0.2666666666666667 0  1 0.3 0  1 0.3333333333333333 0  1 0.3666666666666666 0  1 0.4 0  1 0.4333333333333333 0  1 0.4666666666666667 0  1 0.5 0  1 0.5333333333333333 0  1 0.5666666666666667 0  1 0.6 0  1 0.6333333333333333 0  1 0.6666666666666666 0  1 0.7 0  1 0.7333333333333333 0  1 0.7666666666666667 0  1 0.8 0  1 0.8333333333333334 0  1 0.8666666666666667 0  1 0.9 0  1 0.9333333333333333 0  1 0.9666666666666667 0  0.9666666666666667 1 0  0.9333333333333333 1 0  0.9 1 0  0.8666666666666667 1 0  0.8333333333333334 1 0  0.8 1 0  0.7666666666666666 1 0  0.7333333333333334 1 0  0.7 1 0  0.6666666666666667 1 0  0.6333333333333333 1 0  0.6 1 0  0.5666666666666667 1 0  0.5333333333333333 1 0  0.5 1 0  0.4666666666666667 1 0  0.4333333333333333 1 0  0.4 1 0  0.3666666666666667 1 0  0.3333333333333334 1 0  0.3 1 0  0.2666666666666667 1 0  0.2333333333333333 1 0  0.2 1 0  0.1666666666666666 1 0  0.1333333333333333 1 0  0.09999999999999998 1 0  0.06666666666666665 1 0  0.03333333333333333 1 0  0.6247072676344306 0.2689501343248463 0  0.6239274716502419 0.2788583817523955 0  0.6226301867455355 0.2887122389026952 0  0.6208189686880621 0.2984846970382296 0  0.6184987819006211 0.3081489705305245 0  0.6156759858539226 0.317678570277693 0  0.6123583176357204 0.3270473763092224 0  0.6085548707439923 0.3362297093789981 0  0.6042760701622942 0.3452004013503318 0  0.5995336437856049 0.3539348641800754 0  0.5943405902749808 0.3624091573127375 0  0.5887111434291297 0.3706000532998825 0  0.582660733170558 0.3784851014649517 0  0.5762059432532257 0.3860426894390078 0  0.5693644658076293 0.3932521023987353 0  0.5621550528479018 0.4000935798443317 0  0.5545974648738458 0.4065483697616639 0  0.5467124167087765 0.4125987800202355 0  0.5385215207216315 0.4182282268660866 0  0.5300472275889694 0.4234212803767108 0  0.5213127647592257 0.4281637067534002 0  0.512342072787892 0.4324425073350981 0  0.5031597397181163 0.4362459542268262 0  0.493790933686587 0.4395636224450283 0  0.4842613339394185 0.4423864184917269 0  0.4745970604471235 0.4447066052791678 0  0.4648246023115891 0.4465178233366412 0  0.4549707451612894 0.4478151082413475 0  0.4450624977337403 0.4485949042255363 0  0.4351270178464268 0.4488550739226177 0  0.4251915379591132 0.4485949042255363 0  0.4152832905315641 0.4478151082413475 0  0.4054294333812644 0.4465178233366411 0  0.39565697524573 0.4447066052791677 0  0.385992701753435 0.4423864184917267 0  0.3764631020062665 0.4395636224450281 0  0.3670942959747371 0.4362459542268259 0  0.3579119629049616 0.4324425073350978 0  0.3489412709336278 0.4281637067533998 0  0.3402068081038843 0.4234212803767103 0  0.3317325149712221 0.4182282268660862 0  0.3235416189840771 0.412598780020235 0  0.3156565708190078 0.4065483697616634 0  0.3080989828449519 0.4000935798443311 0  0.3008895698852244 0.3932521023987346 0  0.2940480924396279 0.3860426894390071 0  0.2875933025222958 0.3784851014649511 0  0.2815428922637242 0.3706000532998818 0  0.2759134454178731 0.3624091573127368 0  0.2707203919072489 0.3539348641800746 0  0.2659779655305596 0.3452004013503309 0  0.2616991649488616 0.3362297093789972 0  0.2578957180571336 0.3270473763092215 0  0.2545780498389315 0.3176785702776921 0  0.251755253792233 0.3081489705305236 0  0.249435067004792 0.2984846970382286 0  0.2476238489473186 0.2887122389026941 0  0.2463265640426123 0.2788583817523945 0  0.2455467680584236 0.2689501343248454 0  0.2452865983613423 0.2590146544375318 0  0.2455467680584237 0.2490791745502182 0  0.2463265640426126 0.2391709271226692 0  0.247623848947319 0.2293170699723696 0  0.2494350670047924 0.2195446118368351 0  0.2517552537922335 0.2098803383445402 0  0.2545780498389321 0.2003507385973717 0  0.2578957180571343 0.1909819325658423 0  0.2616991649488624 0.1817995994960667 0  0.2659779655305604 0.172828907524733 0  0.2707203919072498 0.1640944446949895 0  0.2759134454178741 0.1556201515623273 0  0.2815428922637251 0.1474292555751825 0  0.2875933025222969 0.1395442074101132 0  0.2940480924396291 0.1319866194360571 0  0.3008895698852256 0.1247772064763297 0  0.3080989828449531 0.1179357290307334 0  0.3156565708190092 0.1114809391134012 0  0.3235416189840785 0.1054305288548295 0  0.3317325149712236 0.09980108200897844 0  0.3402068081038856 0.0946080284983544 0  0.3489412709336291 0.08986560212166514 0  0.357911962904963 0.08558680153996717 0  0.3670942959747386 0.08178335464823916 0  0.3764631020062678 0.07846568643003712 0  0.3859927017534364 0.0756428903833386 0  0.3956569752457313 0.0733227035958976 0  0.4054294333812659 0.07151148553842429 0  0.4152832905315654 0.07021420063371797 0  0.4251915379591144 0.0694344046495293 0  0.435127017846428 0.0691742349524479 0  0.4450624977337415 0.06943440464952938 0  0.4549707451612905 0.07021420063371814 0  0.4648246023115901 0.07151148553842454 0  0.4745970604471245 0.07332270359589793 0  0.4842613339394195 0.07564289038333902 0  0.4937909336865879 0.07846568643003757 0  0.5031597397181173 0.0817833546482398 0  0.5123420727878929 0.08558680153996781 0  0.5213127647592265 0.08986560212166581 0  0.53004722758897 0.0946080284983552 0  0.5385215207216321 0.09980108200897933 0  0.5467124167087771 0.1054305288548305 0  0.5545974648738462 0.1114809391134021 0  0.5621550528479023 0.1179357290307343 0  0.5693644658076298 0.1247772064763308 0  0.576205943253226 0.1319866194360582 0  0.5826607331705582 0.1395442074101142 0  0.5887111434291299 0.1474292555751835 0  0.594340590274981 0.1556201515623285 0  0.5995336437856051 0.1640944446949906 0  0.6042760701622945 0.172828907524734 0  0.6085548707439925 0.1817995994960678 0  0.6123583176357205 0.1909819325658435 0  0.6156759858539227 0.2003507385973728 0  0.6184987819006211 0.2098803383445412 0  0.6208189686880622 0.2195446118368362 0  0.6226301867455355 0.2293170699723706 0  0.6239274716502419 0.2391709271226702 0  0.6247072676344306 0.2490791745502192 0  0.203885768735257 0.3325402459548524 0  0.2015714905276826 0.3421799084407872 0  0.1977777294810124 0.3513388578120612 0  0.1925979005829864 0.3597915703383434 0  0.1861595484119405 0.3673299121842922 0  0.1786212065659918 0.373768264355338 0  0.1701684940397096 0.378948093253364 0  0.1610095446684356 0.3827418543000342 0  0.1513698821825007 0.3850561325076086 0  0.1414868670645144 0.3858339426659677 0  0.1316038519465281 0.3850561325076086 0  0.1219641894605933 0.3827418543000343 0  0.1128052400893193 0.378948093253364 0  0.1043525275630371 0.3737682643553381 0  0.09681418571708833 0.3673299121842922 0  0.09037583354604248 0.3597915703383434 0  0.08519600464801645 0.3513388578120612 0  0.08140224360134621 0.3421799084407872 0  0.07908796539377183 0.3325402459548523 0  0.07831015523541281 0.3226572308368659 0  0.07908796539377186 0.3127742157188796 0  0.08140224360134626 0.3031345532329447 0  0.08519600464801655 0.2939756038616707 0  0.0903758335460426 0.2855228913353884 0  0.0968141857
[...]
<PointData  Scalars="$\sigma_{VM}$"> 
<DataArray  type="Float64"  Name="$\sigma_{VM}$"  format="ascii">1.4673907390299035e+04  7.4180135035595249e+03  7.4603090046791731e+03  7.6069659656268022e+03  6.7107427497379258e+03  1.4639515228399525e+04  3.7087559636648928e+02  1.5329083413014705e+04  1.4529240280767295e+04  -1.9942052071092201e+02  4.2203794318021716e+02  8.0955007810288243e+03  1.4745312974069551e+04  1.4607415884743110e+04  1.4448077477744873e+03  4.2455200985773911e+02  9.2982106219605594e+03  1.1519762732033132e+04  2.3144707481725865e+04  1.6136328267921494e+04  1.1569002299125399e+04  5.4906329872852375e+03  9.5764377028218860e+03  2.3214370885768703e+03  2.9039566082210440e+03  6.2014487643601342e+03  3.2949029300557941e+03  4.8140203071771211e+03  1.3867368288657259e+04  1.6292216669682677e+04  1.2476264944074177e+04  7.8024512216550047e+03  5.7296150622506020e+03  2.5506528498922617e+03  3.4555800181449479e+02  2.7627382786640023e+03  4.3938461043609832e+03  3.9970831791087448e+03  1.0506711746635381e+03  2.3696325577131233e+03  7.2387178115167408e+03  1.2035368225448665e+04  1.4457646550776395e+04  6.1420219186760114e+03  5.3341246198433519e+03  4.0936074053503712e+03  3.4262562955432927e+03  2.7090283482485434e+03  2.0573698253234761e+03  1.4938327733537756e+03  9.6596440799035611e+02  4.4604282309835150e+02  3.3387215558648523e+02  5.2077987580714591e+02  6.0788155172872757e+02  6.4899304690445433e+02  6.8690747631681302e+02  1.0230158246081533e+03  1.7941292106960727e+03  2.6723667576289386e+03  2.4479532902314459e+03  1.6210409120092179e+03  2.0024835471238116e+03  2.2490719974287017e+03  1.1839858096792580e+03  6.4442804699737997e+02  9.5944206424217657e+02  1.7260658498925518e+03  2.6979045863341967e+03  3.8765442163498624e+03  5.1808264911861270e+03  6.3528548795904444e+03  7.6662124901785946e+03  7.9369327085341583e+03  8.0927464821701742e+03  8.3286245172695762e+03  8.6578320731277436e+03  8.7912622480075697e+03  9.5524205689185783e+03  1.0483859312238494e+04  1.1722621648224967e+04  1.1991659140579502e+04  1.0799874326534582e+04  8.3072839109839206e+03  2.7738236799199526e+03  3.6027516982633947e+03  1.0425386638089181e+04  1.4254452879947115e+04  1.4929284067595896e+04  9.0978457184993567e+03  1.2322130501063648e+04  1.1654338659318455e+04  8.8578381034033901e+03  8.1572682832169294e+03  7.8818401187078716e+03  7.7609139530677312e+03  7.7135363052749735e+03  7.6444020843370299e+03  7.5378773128558259e+03  7.2270345327881050e+03  7.1392572207029425e+03  7.6060292337220408e+03  7.6810835815493456e+03  8.0327863459190958e+03  8.4242289128963857e+03  8.7652542427075077e+03  9.3896623913209642e+03  9.4582981046822988e+03  9.3558997577644132e+03  8.2439197046934387e+03  6.1418752683604844e+03  4.0147756966307925e+03  3.7099963057819150e+03  7.1394790005789700e+03  1.3675316383298323e+04  1.1915955354080914e+04  1.3805323581783425e+04  1.4509762721274814e+04  7.4425762466955657e+03  4.7928782014196804e+03  6.4606153189418665e+03  7.5498786298485220e+03  7.7799072178071156e+03  7.7180921121578958e+03  7.6467677778923717e+03  7.4641356831587027e+03  7.1543546263640328e+03  6.9502399964124670e+03  6.8297995202377442e+03  6.7586083248092191e+03  5.8994312503336159e+03  5.1107057545559301e+03  4.2542992970141177e+03  3.5292806448272645e+03  2.8185864756792007e+03  2.1218851700035138e+03  1.4830566811013748e+03  8.1253480308957285e+02  3.4529112313855200e+02  3.9571679378130483e+02  6.2644241941509688e+02  7.1636929655651795e+02  7.9192516605674814e+02  7.5013432029978253e+02  7.8069748280120086e+02  1.0319535583394118e+03  1.6060761687477086e+03  2.2040680887151975e+03  2.1242432670786416e+03  1.3260150627435594e+03  8.9828279671495659e+02  1.1837872343033750e+03  1.5277651948325185e+03  1.6774841153677476e+03  2.1447580142374845e+03  3.0276586685983516e+03  4.0980888383013680e+03  5.2457594365389996e+03  6.4719211209765463e+03  1.3501470748167565e+04  1.2299998382159165e+04  1.1206197469784580e+04  9.9225867514647143e+03  8.6462843867084521e+03  6.8902258942700610e+03  5.1518963072416627e+03  3.1518098818575700e+03  1.9652781840312141e+03  8.1774892057980674e+02  9.3077981187530895e+01  1.3719339894130005e+02  4.8920653273319726e+02  1.5725226026883211e+03  2.8782968439783585e+03  5.0416224332143147e+03  6.6448356889079432e+03  7.8575398921196247e+03  8.0451899560806378e+03  7.9810816619370544e+03  7.5891468041799862e+03  6.6321460482809907e+03  5.6200645876206136e+03  4.2588469386282050e+03  2.8360653158314863e+03  1.2643577918954072e+03  1.6371159275517226e+02  9.3707033386703006e+02  2.0656697030591645e+03  2.7866887647049994e+03  3.6048174621512862e+03  4.4045394764183657e+03  5.8255231585517158e+03  7.6450778441554621e+03  9.4743394459291358e+03  1.0419332867924966e+04  1.0986160618178939e+04  1.0683529942881851e+04  9.9712570178883179e+03  8.2660592359634247e+03  5.6470738936711468e+03  1.5610666692109742e+03  1.4725644422542146e+03  5.6504230160492471e+03  1.0021877501788209e+04  1.2312350059479943e+04  1.4502479483444740e+04  1.5387391402308083e+04  1.5334618934374121e+04  1.5335219140923713e+04  1.5196914389287162e+04  1.5348009679860283e+04  1.5310608356166011e+04  1.5227692697899041e+04  1.4778055747347737e+04  1.3664081898159571e+04  1.1791219661507224e+04  1.0486359414510676e+04  9.3885556186229896e+03  8.9769705369531894e+03  8.4936102902745733e+03  6.7628359503566862e+03  4.6990839005656171e+03  2.2678347321843803e+03  8.3760708341655425e+02  6.8259320994030475e+02  7.3480279645337669e+02  1.0140583717880235e+03  1.0428548341199196e+03  8.9154137270091746e+02  4.9642034933833230e+02  1.6205143287409962e+02  1.0819930317713772e+02  5.3452299032520716e+02  8.3785633458669861e+02  1.0831000216103657e+03  1.2550201358426878e+03  1.3502214571649617e+03  1.4413418332020269e+03  1.4044683950973354e+03  1.3992369606633583e+03  1.3549245057016822e+03  1.2840229370975396e+03  1.2197286438828671e+03  1.1780179426763393e+03  1.1320049882070061e+03  1.1110479186312880e+03  1.0986247746156625e+03  1.0872985770046960e+03  1.0846878383001283e+03  1.1290295721378727e+03  1.0799768978476623e+03  1.0313162722398811e+03  1.0034950787744684e+03  8.1177233880274252e+02  6.2384269562922100e+02  3.2191577336267841e+02  2.7020488002594135e+01  1.9844302528232458e+02  4.1947095501692320e+02  5.1804238378271339e+02  9.7669202539187168e+01  5.0517963631759294e+01  5.5261862723707691e+02  3.9616813887604064e+02  -2.4189191877664690e+01  5.3828574968001158e+02  2.2998964585084577e+03  3.0253350934799623e+03  3.7574205319795333e+03  4.0235848020053249e+03  5.6345590137454974e+03  8.1623521903515284e+03  1.1317750049414079e+04  1.4081213587587625e+04  1.5372341052487436e+04  1.5440088436335705e+04  1.5426032392900450e+04  1.5049091926869773e+04  1.3979848136721519e+03  2.3196644767547273e+03  5.5058512602104292e+02  2.1367770863151900e+03  5.5086533638401770e+03  8.2884968263100691e+03  8.7043714787298250e+03  6.6069360702286012e+03  3.6443903214124930e+03  -5.2894257080296285e+01  4.7339059949098892e+03  9.5815685922618632e+03  1.7017713860760283e+04  1.1007243172218512e+04  4.5557268392640990e+03  1.0176156355133271e+04  1.1245270918003094e+04  7.3431103037504608e+03  7.7014645046384339e+03  8.3937899928021252e+03  9.4704784614759756e+03  9.1318608959053072e+03  7.9750132790147027e+03  6.1304651048542673e+03  3.7650565376308023e+03  1.7782364213889905e+03  1.8496452130233385e+02  7.2981725643230982e+02  1.8991290456599156e+03  1.1953818077914302e+03  1.1735619788141239e+03  1.0322278997982134e+04  1.4767940907386306e+04  1.3998205768923550e+04  1.2031866653700483e+04  8.7149123865146248e+03  7.1113356276245449e+03  5.1620321528764671e+03  2.3502591103327672e+03  1.1269942393170508e+04  5.3016741588915920e+03  3.3095134817080143e+03  1.0933186729873203e+04  1.3090904537042186e+04  5.8700124837912781e+03  5.2086702033786278e+03  1.5703063577374794e+04  1.8043901301733698e+04  1.7102872749131391e+04  1.0724166249528285e+04  1.4646443193911568e+03  1.2101033155532925e+04  1.3802305353269876e+04  1.0064692045533897e+04  7.4172288943911326e+03  1.6239638461840486e+04  1.7540612653082153e+04  1.5634043410614317e+04  7.0959292256438066e+03  3.1269587394094592e+03  7.4565503914696110e+03  2.6643670856593444e+03  2.5517451000688629e+03  8.6154358104429029e+03  1.2489695746552907e+04  1.3497551715784472e+04  1.0515108839085829e+04  6.3456162078521793e+03  2.5358798357448345e+03  8.2970855606240673e+02  4.3560630743565180e+03  5.9884945263944282e+03  6.1749136586530130e+03  4.8826861439309832e+03  1.2355453830062115e+03  1.9794877386242913e+03  7.7576205829275559e+03  2.6357894472683665e+03  8.9213306324465666e+03  1.6062255310704235e+04  1.3285252085595417e+04  1.3038649402079982e+04  1.1377563465214074e+04  9.1206891257813022e+03  4.7685623070411939e+03  6.8761858618369570e+02  3.0199136358700948e+03  5.7694625983394108e+03  7.6183776442630005e+03  8.7117710866017933e+03  8.9127798004973665e+03  8.0328935870788728e+03  4.6355242031547541e+03  8.2383878102743154e+02  3.4184468053959181e+03  8.3652823119172390e+03  1.0831534381755151e+04  1.3691882496805507e+04  1.6781276854684776e+04  1.6451990519748506e+04  1.7506797272863816e+04  1.1155717516074117e+04  2.3776861640758216e+03  -3.5559066287076683e+02  1.9386239663472606e+00  -6.1394588118217364e+01  8.8377931269768237e+02  2.0977142935179941e+03  2.9506016649641538e+03  3.5095868012507217e+03  3.6924943107212966e+03  3.4820086530961858e+03  3.0320281288664237e+03  2.0545091725622428e+03  1.3707135712515280e+03  5.1988121297586349e+02  2.6813193928609485e+02  1.3298434033232074e+03  3.2256714491436701e+03  4.5175062624098628e+03  5.2854976012103052e+03  2.7631942435830197e+03  1.9725013100884769e+03  4.9453652360877559e+03  2.3226708018503423e+03  7.3119622665145598e+03  1.2283221797257369e+04  9.9652910880778691e+03  4.7076080836197480e+03  5.8130771394009867e+02  2.2864511996730557e+03  2.6465727445861089e+03  1.4289018690527485e+03  2.9599226174247478e+03  2.4524572428054566e+03  5.3118813605218547e+03  6.7844434285899515e+03  5.9991239206640766e+03  2.2425164450427860e+03  1.0208052083166040e+03  1.7322955768645486e+03  9.9101182582867636e+02  5.3215447806818765e+03  1.0112438976790088e+04  9.4749948687882134e+03  5.5960199113736835e+03  5.1978661068869560e+03  8.8509515886962090e+03  1.1300578864436537e+04  1.4605291242482628e+04  1.4915336720339208e+04  1.4804834651648491e+04  1.4039817671459619e+04  1.4497893065981962e+04  1.5294083080470238e+04  1.6358610115395099e+04  1.6731202322941153e+04  1.5738367129241411e+04  1.0283752333410437e+04  3.1097226706021625e+03  4.8942943381100497e+02  8.5334420554045528e+02  4.9339090229150059e+02  1.0246047962132409e+03  5.6823312608887054e+03  1.1703650646311151e+04  1.5266580053131052e+04  1.6004176362848037e+04  1.6073804421029541e+04  1.5008874689158874e+04  1.4201657707571148e+04  1.2383198517077535e+04  1.1280245803413611e+04  8.9088317684652084e+03  6.7879025213623563e+03  3.7778110501076308e+03  1.7711654799544110e+02  3.4209066884273643e+03  7.3419270639967926e+03  1.0741304953939651e+04  1.3353776817244143e+04  1.4734233996713641e+04  1.5518836730848900e+04  1.5390071658967046e+04  1.5187067882729181e+04  1.5268504226881347e+04  1.5104162260000663e+04  1.4735551203693734e+04  1.4731860360994195e+04  1.3796311753527940e+04  1.3506176587674327e+04  1.3521660268899865e+04  1.3232670704990562e+04  1.2393245553819173e+04  1.1022797729895738e+04  8.9799432410929403e+03  6.7931237170992054e+03  4.8633748316618075e+03  3.1660562510006275e+03  2.6238366680196555e+03  2.9884851434912366e+03  4.0918030896118480e+03  5.7225970555436570e+03  6.6947945816807660e+03  6.6261821180050383e+03  4.9159620189471252e+03  1.3665946236084917e+03  1.1556724109809634e+03  4.4888114700884016e+03  5.6412707557410358e+03  5.4815357722882636e+03  4.8574419197176676e+03  5.2741605458042914e+03  5.8813503862450416e+03  5.5236633296295649e+03  4.7508010146286324e+03  3.7601368371069334e+03  3.2077554932390635e+03  2.6217768866344250e+03  2.0408006921297608e+03  1.3054761541376813e+03  9.2214724582365932e+01  6.5201777624889348e+02  2.1655800099179628e+03  4.1032352463296074e+03  6.0721207321771481e+03  8.3755568124669062e+03  1.0365502581080516e+04  1.2785979358691986e+04  1.4014673233540354e+04  1.5014177064535603e+04  1.4509358485473207e+04  1.4295820770323566e+04  1.4080110176162420e+04  1.3601432946146753e+04  1.2556709897331071e+04  1.0770549078562341e+04  8.5516512748213645e+03  6.1068594688261574e+03  3.8260468368507059e+03  1.9080318291951160e+03  8.9400398945491690e+02  9.6143403115561500e+02  1.8586627108008324e+03  3.4083754325334621e+03  4.7744442920988267e+03  5.4419656990469548e+03  4.3917205974572180e+03  1.5411613814398268e+03  8.3617976158097622e+02  5.0178263184726011e+03  7.5492860302779882e+03  8.7510340263595790e+03  8.6082127137552452e+03  8.4777153511556080e+03  8.1384787415503570e+03  7.5874818701400263e+03  5.9296625275200931e+03  4.4855785511054846e+03  3.4386575430677844e+03  2.8357353249945832e+03  2.1082692663340899e+03  8.6357113396597185e+02  6.7162294465614892e+01  2.3087487544032474e+03  3.8205917366296594e+03  6.7759816999771738e+03  9.5340217987435717e+03  1.2934819352107486e+04  1.4891781921919164e+04  1.5443166306527624e+04  1.3493758934474199e+04  1.5384552893992557e+04  1.5408895464032226e+04  1.5899302458837748e+04  1.5404400061667115e+04  1.6026302241402338e+04  1.3955203765175815e+04  1.0395963537902791e+04  7.7471711324251064e+03  6.2522389292718317e+03  5.8337456927626126e+03  6.6642772887706242e+03  7.3179498451007239e+03  5.6798976003734724e+03  1.2347770681134855e+03  3.5286796769105567e+03  5.6963979279727128e+03  5.2683556896501632e+03  4.9629596396738089e+03  5.9420946954445053e+03  8.5656646127168187e+03  1.1190847868118200e+04  1.2616629802320693e+04  1.2647472393559050e+04  1.1751168680688395e+04  1.1664930955580845e+04  1.1067250052288353e+04  1.1204753759727759e+04  1.0375852860738947e+04  7.8429751185874120e+03  5.0590765584318087e+03  5.8745496118606343e+02  3.1877810886777320e+03  7.9724504082887161e+03  1.1701002205456911e+04  1.4566194459241517e+04  1.5389012473082834e+04  1.5339466604383313e+04  1.4826766463691531e+04  1.4955325994241506e+04  1.4934573203864171e+04  1.4509878871049872e+04  1.5312240544085611e+04  1.4810121977607951e+04  1.9384583760367452e+03  7.1894677233061839e+03  9.5426353959200478e+03  8.2190780122917276e+03  5.2934598360274995e+03  7.0095176303366825e+03  1.1906066071781179e+04  1.1465261577206647e+04  6.6682202530365112e+03  2.1962131729876432e+03  4.0840478915603958e+03  7.6602090071454077e+03  7.9359158811002817e+03  3.7349293808590310e+03  6.8563661421085828e+02  2.5333938388605720e+03  2.7152510246590628e+03  7.8463316044809089e+03  7.9147736715524798e+03  5.5470705024174695e+03  2.1149949730392964e+03  1.0777305817023648e+03  2.6389017620069772e+03  4.7083636093417135e+03  5.0844677505383961e+03  3.9291171220085876e+03  4.1650240135272310e+02  1.1613258409551481e+03  1.1858375327398358e+03  5.5638537727699475e+02  3.2383982553822234e+03  5.5183491914854230e+03  3.2633515308747078e+03  1.1700644891291097e+03  1.2306458789990977e+04  1.4410992093878369e+04  1.6500917922714987e+04  1.5875710910934748e+04  1.7985106245800212e+04  1.4378200926470881e+04  3.4996354276441384e+03  3.0891735141575600e+02  -1.9484096452105928e+02  3.7819369036492006e+01  4.2374467795199593e+02  1.6565039924184132e+03  2.5341528447990477e+03  3.1446423015596320e+03  3.4258835330219722e+03  3.3132410586637734e+03  2.8268081989983489e+03  2.1172036855129586e+03  1.2811818982460873e+03  2.8537567502249721e+02  1.6376673424546181e+02  1.0328183938360123e+03  1.3408823639922759e+03  3.6943087215221612e+03  7.0516563150947013e+03  1.0626988311236513e+04  1.2943605048965028e+04  1.1904938769657483e+04  1.0989934082234913e+04  1.0839200623394532e+04  7.9945137213182552e+03  3.2176328526642110e+03  7.2154333841516393e+02  3.9344497646410496e+03  6.6071173499409088e+03  7.9692433756717592e+03  9.4650135197833933e+03  1.0169494169999853e+04  9.4454949989517954e+03  7.6757274515464151e+03  3.4748868766807518e+03  7.6333822066133780e+02  5.5679758796448523e+03  8.4731717257235923e+03  5.0901002658038287e+03  1.2750699348721939e+03  9.9590630840830454e+02  3.7462365152948087e+03  5.0831474283294119e+03  5.6176178552546735e+03  5.0796407367818028e+03  3.2234425502036065e+03  4.5900357359079976e+02  3.0240424489861030e+03  8.7463601225252405e+03  1.3281312517850207e+04  1.7854988800226936e+04  1.7635374633229578e+04  1.1787826038827920e+04  1.3674153896752689e+03  7.7642521327337163e+03  6.3135257023067670e+03  1.1397113316634945e+03  3.5185200344362870e+03  9.8126291235516110e+03  1.2762865320070357e+04  1.2664149083653010e+04  1.4480815162362813e+04  3.6739098766236489e+03  1.1434239545191847e+04  1.8766273510117226e+04  1.8041937818253082e+04  7.1066773007782967e+03  1.3592399157011623e+04  2.3315340620654857e+04  1.9173146128863576e+04  1.5616305209538959e+04  7.4895299633199102e+03  4.4440663375397480e+03  1.5374476695923149e+04  1.9052362523849522e+04  1.2036116780584513e+04  2.7565563215141433e+03  1.2235408965835655e+04  1.7222721371663607e+04  1.6214666281667131e+04  1.6026051711995136e+04  1.4264174680246635e+04  1.0691153625666633e+04  6.7831332584627107e+03  3.1845888343338329e+03  1.5127352640707534e+02  1.6052200731387384e+03  3.9712123144199072e+03  5.7964052131379976e+03  3.1242910990778278e+03  1.7193397823728749e+03  4.4667256474808401e+03  7.9340165138509956e+03  5.9357630244467973e+03  4.0815984406576640e+03  3.2173623690202517e+03  3.3014341713039630e+03  4.1567292093344349e+03  4.7684985195783402e+03  4.8614077493126242e+03  4.6561605562421073e+03  4.8141313346259130e+03  5.8882845246948773e+03  8.6141661722422650e+03  1.1977526980351751e+04  1.5400135993883823e+04  1.6772122656152089e+04  1.6138573754410452e+04  1.3294719870617437e+04  6.5551223917261450e+03  1.0729025241762943e+03  6.6205933258712876e+03  1.4782602994071276e+04  1.7761647050396899e+04  1.8625772158972908e+04  7.7973327299486155e+03  8.7932358859170181e+03  1.5294571917400866e+04  1.4283050776864045e+04  1.0668766472658059e+04  1.2909624901026447e+04  1.5356015504860767e+04  9.2413565757833876e+03  6.8139730726679436e+03  4.8845209157870559e+03  3.2722005893572268e+03  2.8922806142640311e+03  2.6602442561205921e+03  2.5811014659016296e+03  2.2707083718734470e+03  1.9290031524854071e+03  1.4650398661854583e+03  9.7578990609911250e+02  4.4541191569045611e+02  2.8113228283041671e+01  2.9477617323761768e+02  7.2659262430240790e+02  1.0548841851983643e+03  1.2898473476126458e+03  1.5007402696931238e+03  1.5552881272458449e+03  1.6429608759740775e+03  1.6827434088273101e+03  1.6368664780769368e+03  1.6042993564303076e+03  1.5544887551431227e+03  1.4461668404570923e+03  1.3986205846375678e+03  1.3128682815695340e+03  1.2529001059316065e+03  1.1952925609046547e+03  1.1814391479415954e+03  1.1531493545773831e+03  1.1619153214769328e+03  1.1518268083347743e+03  1.1788594800010017e+03  1.1821129947021175e+03  1.1666105416904529e+03  1.1797303299598057e+03  1.1119341273157195e+03  1.0448811113270531e+03  9.4349106987600373e+02  7.4090548360494768e+02  5.7416405289384159e+02  3.1692501460813941e+02  4.4277455509003225e+01  1.0875297264076981e+02  2.8431973688805130e+02  2.4348537318206186e+02  4.8197359630689242e+01  2.2013859289287245e+02  1.0027654545957148e+03  1.6185089109905894e+03  1.5872912485147092e+03  8.3331601374294848e+02  1.8571769729214498e+01  1.2296313808640598e+03  2.3032120613497100e+03  2.8407143755395500e+03  3.1834994425776517e+03  4.1107256840288592e+03  5.9059115617127518e+03  8.4195503722391550e+03  1.2028294494228716e+04  1.4318495515970131e+04  1.5265143520019163e+04  1.4888355436081090e+04  1.4741449396517783e+04  1.4994103810800782e+04  1.5061624225400847e+04  1.4909456933692787e+04  1.4248396619756091e+04  1.3232672825160951e+04  1.2211261888244284e+04  1.0706484118525030e+04  9.0833395532728919e