<?xml version="1.0"?>
<VTKFile type="UnstructuredGrid"  version="0.1"  >
<UnstructuredGrid>
<Piece  NumberOfPoints="3879" NumberOfCells="6881">
<Points>
<DataArray  type="Float64"  NumberOfComponents="3"  format="ascii">0.207524190028372 0.2122422770132111 0  0 0 0  1 0 0  0 1 0  1 1 0  0.6249674373315121 0.2590146544375328 0  0.204663578893616 0.322657230836866 0  0.09605577522599912 0.4018360776629776 0  0.671351124618251 0.08738059142081528 0  0.7842102907526436 0.1666439122351055 0  0.8512483166984784 0.1985391006160637 0  0.6418797837909295 0.4423157172830166 0  0.9292488447973215 0.3869277868069776 0  0.3197896119137055 0.5509935221980964 0  0.3979283685568406 0.5079871620336583 0  0.1572503457993085 0.7345153245035532 0  0.3032914287999163 0.7872981443735918 0  0.3549464687598876 0.8870324161721976 0  0.9691791685505482 0.5159450047798622 0  0.9447564590470373 0.6146164845729313 0  0.7687603548175107 0.7176858127488035 0  0.8926159261971183 0.7422924070424508 0  0.2061587782631535 0.2217389244366831 0  0.2021731605082994 0.2304662099646423 0  0.1958902278109265 0.2377171008267789 0  0.1878189860121365 0.2429041729681512 0  0.1786133191209442 0.2456072006525708 0  0.1690190155206647 0.2456072006525708 0  0.1598133486294724 0.2429041729681512 0  0.1517421068306824 0.2377171008267789 0  0.1454591741333096 0.2304662099646422 0  0.1414735563784554 0.221738924436683 0  0.1401081446132369 0.212242277013211 0  0.1414735563784555 0.202745629589739 0  0.1454591741333096 0.1940183440617798 0  0.1517421068306825 0.1867674531996431 0  0.1598133486294725 0.1815803810582709 0  0.1690190155206649 0.1788773533738513 0  0.1786133191209443 0.1788773533738514 0  0.1878189860121367 0.181580381058271 0  0.1958902278109266 0.1867674531996433 0  0.2021731605082994 0.19401834406178 0  0.2061587782631535 0.2027456295897391 0  0.03333333333333333 0 0  0.06666666666666667 0 0  0.1 0 0  0.1333333333333333 0 0  0.1666666666666667 0 0  0.2 0 0  0.2333333333333333 0 0  0.2666666666666667 0 0  0.3 0 0  0.3333333333333333 0 0  0.3666666666666666 0 0  0.4 0 0  0.4333333333333333 0 0  0.4666666666666667 0 0  0.5 0 0  0.5333333333333333 0 0  0.5666666666666667 0 0  0.6 0 0  0.6333333333333333 0 0  0.6666666666666666 0 0  0.7 0 0  0.7333333333333333 0 0  0.7666666666666667 0 0  0.8 0 0  0.8333333333333334 0 0  0.8666666666666667 0 0  0.9 0 0  0.9333333333333333 0 0  0.9666666666666667 0 0  0 0.9666666666666667 0  0 0.9333333333333333 0  0 0.9 0  0 0.8666666666666667 0  0 0.8333333333333334 0  0 0.8 0  0 0.7666666666666666 0  0 0.7333333333333334 0  0 0.7 0  0 0.6666666666666667 0  0 0.6333333333333333 0  0 0.6 0  0 0.5666666666666667 0  0 0.5333333333333333 0  0 0.5 0  0 0.4666666666666667 0  0 0.4333333333333333 0  0 0.4 0  0 0.3666666666666667 0  0 0.3333333333333334 0  0 0.3 0  0 0.2666666666666667 0  0 0.2333333333333333 0  0 0.2 0  0 0.1666666666666666 0  0 0.1333333333333333 0  0 0.09999999999999998 0  0 0.06666666666666665 0  0 0.03333333333333333 0  1 0.03333333333333333 0  1 0.06666666666666667 0  1 0.1 0  1 0.1333333333333333 0  1 0.1666666666666667 0  1 0.2 0  1 0.2333333333333333 0  1 0.2666666666666667 0  1 0.3 0  1 0.3333333333333333 0  1 0.3666666666666666 0  1 0.4 0  1 0.4333333333333333 0  1 0.4666666666666667 0  1 0.5 0  1 0.5333333333333333 0  1 0.5666666666666667 0  1 0.6 0  1 0.6333333333333333 0  1 0.6666666666666666 0  1 0.7 0  1 0.7333333333333333 0  1 0.7666666666666667 0  1 0.8 0  1 0.8333333333333334 0  1 0.8666666666666667 0  1 0.9 0  1 0.9333333333333333 0  1 0.9666666666666667 0  0.9666666666666667 1 0  0.9333333333333333 1 0  0.9 1 0  0.8666666666666667 1 0  0.8333333333333334 1 0  0.8 1 0  0.7666666666666666 1 0  0.7333333333333334 1 0  0.7 1 0  0.6666666666666667 1 0  0.6333333333333333 1 0  0.6 1 0  0.5666666666666667 1 0  0.5333333333333333 1 0  0.5 1 0  0.4666666666666667 1 0  0.4333333333333333 1 0  0.4 1 0  0.3666666666666667 1 0  0.3333333333333334 1 0  0.3 1 0  0.2666666666666667 1 0  0.2333333333333333 1 0  0.2 1 0  0.1666666666666666 1 0  0.1333333333333333 1 0  0.09999999999999998 1 0  0.06666666666666665 1 0  0.03333333333333333 1 0  0.6247072676344306 0.2689501343248463 0  0.6239274716502419 0.2788583817523955 0  0.6226301867455355 0.2887122389026952 0  0.6208189686880621 0.2984846970382296 0  0.6184987819006211 0.3081489705305245 0  0.6156759858539226 0.317678570277693 0  0.6123583176357204 0.3270473763092224 0  0.6085548707439923 0.3362297093789981 0  0.6042760701622942 0.3452004013503318 0  0.5995336437856049 0.3539348641800754 0  0.5943405902749808 0.3624091573127375 0  0.5887111434291297 0.3706000532998825 0  0.582660733170558 0.3784851014649517 0  0.5762059432532257 0.3860426894390078 0  0.5693644658076293 0.3932521023987353 0  0.5621550528479018 0.4000935798443317 0  0.5545974648738458 0.4065483697616639 0  0.5467124167087765 0.4125987800202355 0  0.5385215207216315 0.4182282268660866 0  0.5300472275889694 0.4234212803767108 0  0.5213127647592257 0.4281637067534002 0  0.512342072787892 0.4324425073350981 0  0.5031597397181163 0.4362459542268262 0  0.493790933686587 0.4395636224450283 0  0.4842613339394185 0.4423864184917269 0  0.4745970604471235 0.4447066052791678 0  0.4648246023115891 0.4465178233366412 0  0.4549707451612894 0.4478151082413475 0  0.4450624977337403 0.4485949042255363 0  0.4351270178464268 0.4488550739226177 0  0.4251915379591132 0.4485949042255363 0  0.4152832905315641 0.4478151082413475 0  0.4054294333812644 0.4465178233366411 0  0.39565697524573 0.4447066052791677 0  0.385992701753435 0.4423864184917267 0  0.3764631020062665 0.4395636224450281 0  0.3670942959747371 0.4362459542268259 0  0.3579119629049616 0.4324425073350978 0  0.3489412709336278 0.4281637067533998 0  0.3402068081038843 0.4234212803767103 0  0.3317325149712221 0.4182282268660862 0  0.3235416189840771 0.412598780020235 0  0.3156565708190078 0.4065483697616634 0  0.3080989828449519 0.4000935798443311 0  0.3008895698852244 0.3932521023987346 0  0.2940480924396279 0.3860426894390071 0  0.2875933025222958 0.3784851014649511 0  0.2815428922637242 0.3706000532998818 0  0.2759134454178731 0.3624091573127368 0  0.2707203919072489 0.3539348641800746 0  0.2659779655305596 0.3452004013503309 0  0.2616991649488616 0.3362297093789972 0  0.2578957180571336 0.3270473763092215 0  0.2545780498389315 0.3176785702776921 0  0.251755253792233 0.3081489705305236 0  0.249435067004792 0.2984846970382286 0  0.2476238489473186 0.2887122389026941 0  0.2463265640426123 0.2788583817523945 0  0.2455467680584236 0.2689501343248454 0  0.2452865983613423 0.2590146544375318 0  0.2455467680584237 0.2490791745502182 0  0.2463265640426126 0.2391709271226692 0  0.247623848947319 0.2293170699723696 0  0.2494350670047924 0.2195446118368351 0  0.2517552537922335 0.2098803383445402 0  0.2545780498389321 0.2003507385973717 0  0.2578957180571343 0.1909819325658423 0  0.2616991649488624 0.1817995994960667 0  0.2659779655305604 0.172828907524733 0  0.2707203919072498 0.1640944446949895 0  0.2759134454178741 0.1556201515623273 0  0.2815428922637251 0.1474292555751825 0  0.2875933025222969 0.1395442074101132 0  0.2940480924396291 0.1319866194360571 0  0.3008895698852256 0.1247772064763297 0  0.3080989828449531 0.1179357290307334 0  0.3156565708190092 0.1114809391134012 0  0.3235416189840785 0.1054305288548295 0  0.3317325149712236 0.09980108200897844 0  0.3402068081038856 0.0946080284983544 0  0.3489412709336291 0.08986560212166514 0  0.357911962904963 0.08558680153996717 0  0.3670942959747386 0.08178335464823916 0  0.3764631020062678 0.07846568643003712 0  0.3859927017534364 0.0756428903833386 0  0.3956569752457313 0.0733227035958976 0  0.4054294333812659 0.07151148553842429 0  0.4152832905315654 0.07021420063371797 0  0.4251915379591144 0.0694344046495293 0  0.435127017846428 0.0691742349524479 0  0.4450624977337415 0.06943440464952938 0  0.4549707451612905 0.07021420063371814 0  0.4648246023115901 0.07151148553842454 0  0.4745970604471245 0.07332270359589793 0  0.4842613339394195 0.07564289038333902 0  0.4937909336865879 0.07846568643003757 0  0.5031597397181173 0.0817833546482398 0  0.5123420727878929 0.08558680153996781 0  0.5213127647592265 0.08986560212166581 0  0.53004722758897 0.0946080284983552 0  0.5385215207216321 0.09980108200897933 0  0.5467124167087771 0.1054305288548305 0  0.5545974648738462 0.1114809391134021 0  0.5621550528479023 0.1179357290307343 0  0.5693644658076298 0.1247772064763308 0  0.576205943253226 0.1319866194360582 0  0.5826607331705582 0.1395442074101142 0  0.5887111434291299 0.1474292555751835 0  0.594340590274981 0.1556201515623285 0  0.5995336437856051 0.1640944446949906 0  0.6042760701622945 0.172828907524734 0  0.6085548707439925 0.1817995994960678 0  0.6123583176357205 0.1909819325658435 0  0.6156759858539227 0.2003507385973728 0  0.6184987819006211 0.2098803383445412 0  0.6208189686880622 0.2195446118368362 0  0.6226301867455355 0.2293170699723706 0  0.6239274716502419 0.2391709271226702 0  0.6247072676344306 0.2490791745502192 0  0.203885768735257 0.3325402459548524 0  0.2015714905276826 0.3421799084407872 0  0.1977777294810124 0.3513388578120612 0  0.1925979005829864 0.3597915703383434 0  0.1861595484119405 0.3673299121842922 0  0.1786212065659918 0.373768264355338 0  0.1701684940397096 0.378948093253364 0  0.1610095446684356 0.3827418543000342 0  0.1513698821825007 0.3850561325076086 0  0.1414868670645144 0.3858339426659677 0  0.1316038519465281 0.3850561325076086 0  0.1219641894605933 0.3827418543000343 0  0.1128052400893193 0.378948093253364 0  0.1043525275630371 0.3737682643553381 0  0.09681418571708833 0.3673299121842922 0  0.09037583354604248 0.3597915703383434 0  0.08519600464801645 0.3513388578120612 0  0.08140224360134621 0.3421799084407872 0  0.07908796539377183 0.3325402459548523 0  0.07831015523541281 0.3226572308368659 0  0.07908796539377186 0.3127742157188796 0  0.08140224360134626 0.3031345532329447 0  0.08519600464801655 0.2939756038616707 0  0.0903758335460426 0.2855228913353884 0  0.0968141857
[...]
<PointData  Scalars="$\sigma_{VM}$"> 
<DataArray  type="Float64"  Name="$\sigma_{VM}$"  format="ascii">1.2760437593229908e+04  6.5111578386377851e+03  6.7163395186573025e+03  6.6193012818201469e+03  6.1058375031860887e+03  1.2893120865418003e+04  4.2239311932687127e+02  1.3668997666919626e+04  1.2685993449105947e+04  -1.6774892774405598e+02  1.0349028645627232e+02  7.0615146320269505e+03  1.5257105740172932e+04  1.3172550620110735e+04  1.2355750976639304e+03  6.3621414799881734e+01  8.2112667612739224e+03  9.9030777501281354e+03  2.2498233276235569e+04  1.5355688304852674e+04  9.8998024618861164e+03  5.0626581220745084e+03  8.3001856465631699e+03  2.0238481433748441e+03  2.5573377440159338e+03  5.2778651095305631e+03  2.8074661414939274e+03  4.1802371806587716e+03  1.1864250989211958e+04  1.4002610144648370e+04  1.0655482446969660e+04  6.7014469404851588e+03  4.9967346637175269e+03  2.3552544802565671e+03  3.0869629976603790e+02  2.2229854756697150e+03  3.7096128316431714e+03  3.4167193477836095e+03  8.9575256178026382e+02  2.0842054099681523e+03  6.3124637615274369e+03  1.0496047676194199e+04  1.2565038563666445e+04  5.3969196148834262e+03  4.6921387940223076e+03  3.6159515785923954e+03  3.0344126690302933e+03  2.4036001298234505e+03  1.8272363343992249e+03  1.3279874433012378e+03  8.5888123921605541e+02  3.8478703718450600e+02  2.4218180840864244e+02  4.0430047340522901e+02  4.7651052121266684e+02  5.0950212898714426e+02  5.4290249462370969e+02  8.3924042526178664e+02  1.4974994190811324e+03  2.2430112424216627e+03  2.0470670851973498e+03  1.3280721128755297e+03  1.6828987207570274e+03  1.9163989901367142e+03  1.0004726946182243e+03  6.0290592514664149e+02  9.0972516721217892e+02  1.5994117562125525e+03  2.4775050809883719e+03  3.5314417550222443e+03  4.6989197369236572e+03  5.7338172768451068e+03  6.6755794116024754e+03  6.9089204038751204e+03  7.0460533530526300e+03  7.2559979171160321e+03  7.5337735827451943e+03  7.6382631137435928e+03  8.2652662449223189e+03  9.0349508195232975e+03  1.0100255299754244e+04  1.0117582892014370e+04  8.9050355176933590e+03  6.5727074235532391e+03  2.8172478872885945e+03  3.3438325922925833e+03  8.3508906605107732e+03  1.2044550645847270e+04  1.2777418966713083e+04  8.0754157523466420e+03  1.0582308259220226e+04  1.0129114193526564e+04  7.7321407820136419e+03  7.1516963029382223e+03  6.9388636921780308e+03  6.8381921072283067e+03  6.7869222677635944e+03  6.7184912131507153e+03  6.6162192970304168e+03  6.3402717723046844e+03  6.2632667423620887e+03  6.8438046807762903e+03  6.9140166301748150e+03  7.2303220505295694e+03  7.5768392776094388e+03  7.8895898397476667e+03  8.4456116950776322e+03  8.5159611419852536e+03  8.3931979559005777e+03  7.3965154321191230e+03  5.5762972400145545e+03  3.8519429686516187e+03  3.8143138937239237e+03  6.7402909738957806e+03  1.1440473564013284e+04  9.2965690125490000e+03  1.3047994295724306e+04  1.4238030158621037e+04  7.8967422046764941e+03  5.3730961440024612e+03  6.3377793948391436e+03  7.1129840363725953e+03  7.2019092804089723e+03  7.0889413713655058e+03  7.0036433398286572e+03  6.8283418817985657e+03  6.5383254013943842e+03  6.3441594285767378e+03  6.2247896869748856e+03  6.1501600766131824e+03  5.3680819631378481e+03  4.6474488594454651e+03  3.8547194584941008e+03  3.1849212043503021e+03  2.5212811679613865e+03  1.8785948440613809e+03  1.2976391720729955e+03  6.8827230790722922e+02  2.4607172862082581e+02  2.9478446025441536e+02  4.9594018915519331e+02  5.6879347183775496e+02  6.2992157569839662e+02  5.9451353622823422e+02  6.2357845589956753e+02  8.5091666098144833e+02  1.3545542259486081e+03  1.8736545355622336e+03  1.8045890945230456e+03  1.1123057451387538e+03  7.3941628064001827e+02  1.0385890172917873e+03  1.3689931382913592e+03  1.5159556296728222e+03  1.9245588385021665e+03  2.6915944209205418e+03  3.6111766252518687e+03  4.5981866988722231e+03  5.6504443735924206e+03  1.1783229483295836e+04  1.0667249076835922e+04  9.7076930194500401e+03  8.5983850400939791e+03  7.4936607296319589e+03  5.9867929477547177e+03  4.4981793099124679e+03  2.7804753792320366e+03  1.7707260752450022e+03  7.7735110944384417e+02  1.8491217630211526e+02  2.2975359766328305e+02  5.6338339682514550e+02  1.5225685439287422e+03  2.6755551458781379e+03  4.5402752190541114e+03  5.9388693840836804e+03  6.9875884590985543e+03  7.1585014007490026e+03  7.1014495355655154e+03  6.7605540356146548e+03  5.9134753966870630e+03  5.0055297318218763e+03  3.7837302913040257e+03  2.5029295559676298e+03  1.0822515183900232e+03  1.4298250080571066e+02  9.3148033628598046e+02  1.9281982561315442e+03  2.5813723359505857e+03  3.2913300418577774e+03  3.9817045647744312e+03  5.1802135004685260e+03  6.7185774920320682e+03  8.2766803804496922e+03  9.1101554223925832e+03  9.6270794183239468e+03  9.4165685718653149e+03  8.8717037515464835e+03  7.4695976396752831e+03  5.2722563060081702e+03  1.7543511048710604e+03  1.0362645731860118e+03  4.5868691668002639e+03  8.5077999784002586e+03  1.0610354844300005e+04  1.2657115673700580e+04  1.3986100762973325e+04  1.4346019631751706e+04  1.4473809130250896e+04  1.4269087602945430e+04  1.4404333537274917e+04  1.4225142294400783e+04  1.3930294765698867e+04  1.3138418179428036e+04  1.2007564388784345e+04  1.0428103645079933e+04  9.3162685528202273e+03  8.3994675537488329e+03  8.0502104309104370e+03  7.6119674334214687e+03  6.0984921837903112e+03  4.2931821298236473e+03  2.1547875082161527e+03  9.0373767952124399e+02  7.1960219118901489e+02  7.5469068665673603e+02  9.7267048496459859e+02  9.8266806238818594e+02  8.3925130548561344e+02  4.9401804747566143e+02  1.9391193744532004e+02  4.8137732195012688e+01  4.1093360264679501e+02  6.8014724038376312e+02  8.9791581001041766e+02  1.0454583350093358e+03  1.1294679814689691e+03  1.2057992369800190e+03  1.1733501781730406e+03  1.1646755783820565e+03  1.1243550173116423e+03  1.0591910469609454e+03  9.9998711629951424e+02  9.6070875424962480e+02  9.1630548178560628e+02  8.9654607084633187e+02  8.8277246310896896e+02  8.7129101088826337e+02  8.6914457809455359e+02  9.0482100959133675e+02  8.6615180869642984e+02  8.2595286964152046e+02  8.0427004735746107e+02  6.4675979559898997e+02  4.9161205533169181e+02  2.3567409463289422e+02  1.3991889866850601e+01  1.9428983297041199e+02  3.7745421852509844e+02  4.4890155722588997e+02  1.0996489180601883e+02  3.2458203720354426e+01  4.1559719603156191e+02  2.7999230162746443e+02  -3.5978713950548304e+01  5.3087272969957655e+02  2.0140350618738478e+03  2.6069499973085985e+03  3.1708382739635153e+03  3.3703891774321337e+03  4.7138900781721732e+03  6.9105704652130644e+03  9.7155366782634555e+03  1.2253481808995753e+04  1.4172131753215737e+04  1.4841177022490512e+04  1.4846171411391830e+04  1.3829389797284473e+04  7.8045130428092602e+02  1.4047558245629762e+03  3.5363048989744584e+02  2.2557632015849354e+03  5.1178201694583404e+03  7.4889074945329512e+03  7.7662909471308085e+03  5.7384744182349368e+03  2.9800345714383016e+03  -9.3062819108846675e+00  4.6582264515948036e+03  8.7205008452496786e+03  1.5871875276910838e+04  9.9105149746329062e+03  4.1624587701885339e+03  8.9262797096402373e+03  9.8986865618892825e+03  6.5953085007683467e+03  6.9835791578957642e+03  7.6868652918147045e+03  8.6547250542151560e+03  8.3560212196451757e+03  7.2973655765196245e+03  5.6144630623148660e+03  3.4998151371805907e+03  1.6749559195738846e+03  2.0054876468895520e+02  6.2186726430681915e+02  1.6837047397838146e+03  1.1138950773633530e+03  9.8071478792779396e+02  8.6859051095050800e+03  1.2471905167417837e+04  1.1877368856005112e+04  1.0147084886013115e+04  7.3336640694788921e+03  5.9995437023461645e+03  4.4004543955344398e+03  2.1295544108658646e+03  9.8441227377010491e+03  4.3576707713219039e+03  3.2982621907209245e+03  1.0021356634294056e+04  1.1696615250520843e+04  4.7574758160673809e+03  5.1853322337646987e+03  1.5766760801831366e+04  1.9146449707949410e+04  1.7745359701011392e+04  9.4468588111400659e+03  1.1547984313367213e+03  1.0937215017838724e+04  1.2393858522107841e+04  9.0520380644402667e+03  6.6246554144454985e+03  1.4523886323016854e+04  1.6114022997460452e+04  1.3621702936319642e+04  6.0840651367206046e+03  2.5352090892156302e+03  6.2659550799911021e+03  2.4005626203480042e+03  2.1666807371375103e+03  7.2832784348403975e+03  1.0624074668177354e+04  1.1474998778419387e+04  8.9665709627842498e+03  5.4154296989212007e+03  2.1982607555911345e+03  6.7257162276353483e+02  3.6381007852671069e+03  5.0222917766290520e+03  5.1776173474441985e+03  4.0667974790041862e+03  9.6641925086667175e+02  1.8530284771753156e+03  6.8685615318199189e+03  2.4393697497490193e+03  7.8446527958967399e+03  1.3991496361180722e+04  1.1563712548360751e+04  1.1344446309451292e+04  9.9084056647499565e+03  7.9129166600430290e+03  4.0631976650812235e+03  5.8760402971728729e+02  2.7675790699595213e+03  5.1371075594453559e+03  6.6984213086695972e+03  7.5832950697970373e+03  7.6629126857184037e+03  6.7837763928016520e+03  3.7637955606143514e+03  7.0553936131717205e+02  3.1749667501425724e+03  7.4623738959625580e+03  9.6522486971358212e+03  1.2192962567577273e+04  1.5921309017026602e+04  1.6537371732508469e+04  1.6554365342946247e+04  1.0258471775975124e+04  2.3905394907961872e+03  -3.0492964553511695e+02  -8.2905562398786081e+00  -5.2489109804153784e+01  7.8193375737335657e+02  1.8138410505494658e+03  2.5566097214590059e+03  3.0196054160918848e+03  3.1701359839169700e+03  2.9851511119392403e+03  2.5711108453977195e+03  1.7351257440652957e+03  1.0950795250263047e+03  3.1153811592687794e+02  3.1260260042890206e+02  1.1244351568319853e+03  2.7237217965567352e+03  3.8739506803211261e+03  4.6233144192147865e+03  2.4930044389572531e+03  1.6622803474637876e+03  4.0749053807206824e+03  1.9350964355750805e+03  6.4574685438927463e+03  1.0675576793616612e+04  8.6096255905308608e+03  4.0769990638356130e+03  5.1180893481076481e+02  1.8334451962637063e+03  2.0038366289425478e+03  8.4951135171400017e+02  2.6201430912977266e+03  2.0013931591202306e+03  4.2952604283713281e+03  5.5189147639642460e+03  4.9252114180247590e+03  1.8701640609368349e+03  8.6422264637284445e+02  1.4639434269717772e+03  8.6343243319779310e+02  4.5873867974490713e+03  8.7219150267012046e+03  8.1957151184905833e+03  4.8457796389064415e+03  4.4137540075773150e+03  7.5142079809358293e+03  9.6438046963584438e+03  1.4826106873170404e+04  1.4358114492890936e+04  1.3547308745705395e+04  1.2345283789412675e+04  1.2521547392543509e+04  1.3440760960373076e+04  1.5408737071283367e+04  1.5849406862581016e+04  1.4346077743221285e+04  8.9199347404998098e+03  3.0579925185201887e+03  1.1958355098842246e+03  1.7489618607885936e+03  1.7513161881916567e+03  3.4703807973859000e+02  3.8536921285757517e+03  9.4190137925565577e+03  1.2958401807969205e+04  1.4583684669784478e+04  1.4648538660763406e+04  1.3591659685712430e+04  1.2872930978506012e+04  1.1341392513735180e+04  1.0429514140125017e+04  8.3824673335979405e+03  6.5602066296302364e+03  4.0481341227319658e+03  3.5209375078033651e+02  2.3981030323512432e+03  5.9765748071092357e+03  9.0489476605420805e+03  1.1489887554918500e+04  1.2910256380305604e+04  1.4157609424883607e+04  1.4557100257573284e+04  1.4849231795872180e+04  1.5092680765404661e+04  1.3994799620371898e+04  1.3055762353863927e+04  1.2969685768232139e+04  1.2022823659633363e+04  1.1733939607577002e+04  1.1717348945760552e+04  1.1477215536510434e+04  1.0756819772414929e+04  9.5868426099330827e+03  7.8339641497861112e+03  5.9594613399447107e+03  4.2987771451662675e+03  2.8429753719009304e+03  2.3862680058317937e+03  2.7156464248246821e+03  3.6778769936854114e+03  5.0981690282895479e+03  5.9488344956547216e+03  5.8756180929356642e+03  4.4097984999693817e+03  1.3015891437476416e+03  9.3581943085160310e+02  3.8706775554757296e+03  4.9234604065322865e+03  4.8030754874879976e+03  4.2833888440386299e+03  4.6274358930190674e+03  5.1234440490600546e+03  4.7801060911281793e+03  4.1029470066418262e+03  3.2464528524981974e+03  2.7537227116435556e+03  2.2213013609941559e+03  1.6389763943531045e+03  8.7594776366186568e+02  -1.6632757383212496e+01  9.2497396766895645e+02  2.2892518079588808e+03  4.0931856278854311e+03  5.8725724701631616e+03  7.9748741422027633e+03  9.8036725630655128e+03  1.2086201109385125e+04  1.3203437533080489e+04  1.4858398498652647e+04  1.5056568563890680e+04  1.2627198983252494e+04  1.2337538302302204e+04  1.1845198594323741e+04  1.0849639445658137e+04  9.2480022447329848e+03  7.2514359322057771e+03  5.0748597717408738e+03  3.0776599341039855e+03  1.4010070392783218e+03  5.2279816382384752e+02  5.9892680387045039e+02  1.3829525547450310e+03  2.7079560451910625e+03  3.8704801418071720e+03  4.4307112974895099e+03  3.5486595440891047e+03  1.1328888162884266e+03  8.5499170082851583e+02  4.3824886869757129e+03  6.5012824693573757e+03  7.5180323443567358e+03  7.4644990280653992e+03  7.3524137781035133e+03  7.0059356586174790e+03  6.3935648952764623e+03  4.8414926523023032e+03  3.5468625415354977e+03  2.6681430982258280e+03  2.1492656259283663e+03  1.4221464056473108e+03  2.7121763853837490e+02  4.4332507346490780e+02  2.7255255889741206e+03  4.1513617705388115e+03  6.8518109830552849e+03  9.5482213446689329e+03  1.2476678250151304e+04  1.4441528101034764e+04  1.5450495956312589e+04  1.3968881932169754e+04  1.4652798473877176e+04  1.4132998316056648e+04  1.5151992476537511e+04  1.4812178272163217e+04  1.5386168935116004e+04  1.2905701891911962e+04  9.9500394937120018e+03  7.6144107542118718e+03  6.0172001444411962e+03  5.5624860572268744e+03  6.1744493298379484e+03  6.7886244817329361e+03  5.4066924955479753e+03  1.3643465188248163e+03  2.7355973433855502e+03  4.7443438078866147e+03  4.4336585537214760e+03  4.1592497739262581e+03  5.0724247741819199e+03  7.4864393473030314e+03  9.8723030902556584e+03  1.1269258353674646e+04  1.1347970692564983e+04  1.0536105764696635e+04  1.0448130310754097e+04  9.8182381072176959e+03  9.8902737527241497e+03  9.0993026019872068e+03  6.8406466008886473e+03  4.3658928290353206e+03  5.0280199538203965e+02  2.9224492009912956e+03  7.1558643067834246e+03  1.0546883372831033e+04  1.3203052189766680e+04  1.4913606904550090e+04  1.5347590315378855e+04  1.5355045649911177e+04  1.5862684154017923e+04  1.5409056201899433e+04  1.5156295308700779e+04  1.4846530565399849e+04  1.3701674753034655e+04  1.7385252005091122e+03  6.2782670541332227e+03  8.2474591491347019e+03  7.0927680762179143e+03  4.4596476495537399e+03  5.7075640667313519e+03  9.7067563393546516e+03  9.6568671081902612e+03  5.6736953366940843e+03  1.8733069962364364e+03  3.3582592403345507e+03  6.3239232071149736e+03  6.4124271182390421e+03  2.7683830577282556e+03  6.0561201610369471e+02  2.2885405074590749e+03  2.5240896994458276e+03  6.4625906070856299e+03  6.3141244072222944e+03  4.3063822344728424e+03  1.6064349555826548e+03  1.0214179777918002e+03  2.6536837279261817e+03  4.6682815645625105e+03  4.9905181746963708e+03  3.9745805155933158e+03  5.6065366469914466e+02  1.1138614465895407e+03  1.3829382728935041e+03  3.6042832686995558e+02  2.5103855779906353e+03  4.7956526463347700e+03  3.1209138686738893e+03  7.9702486516530689e+02  1.1013645083812902e+04  1.2914016913951917e+04  1.5846767429391295e+04  1.6476424914250161e+04  1.7671065878072492e+04  1.3455064126084151e+04  3.3449253198885167e+03  4.8081062848749986e+02  -2.6674289475326862e+02  6.7756249437436850e+01  4.4106182925397400e+02  1.4502628502355990e+03  2.1787067747291339e+03  2.6615929709612360e+03  2.8486142246041395e+03  2.7187028307001078e+03  2.2648152376806147e+03  1.6238313290112060e+03  8.5459048477793294e+02  1.0090940300605040e+02  3.7699673673914396e+02  1.1457806068180523e+03  1.5156708776012238e+03  3.4396614801032615e+03  6.0162603985043443e+03  8.7573874169622195e+03  1.0518085256260831e+04  9.7873549937816097e+03  9.1262960933404902e+03  9.0668613834853022e+03  6.6985608238907489e+03  2.6918059732810884e+03  6.2402094299079829e+02  3.3289186587300860e+03  5.5804156595276318e+03  6.7561658451591147e+03  8.0016082945292565e+03  8.5438519554058512e+03  7.8202234199708009e+03  6.2269217465570273e+03  2.6201319343781915e+03  7.5548735879498145e+02  5.0014691948873942e+03  7.3088649578978720e+03  4.4255745811110219e+03  1.1517060400359021e+03  8.0588388180250899e+02  3.1539026957101951e+03  4.3038708876717374e+03  4.7502296030182633e+03  4.2775089046251824e+03  2.6197340960825622e+03  3.6169402047775105e+02  2.8732175324491523e+03  7.9348239139823436e+03  1.1890466170105450e+04  1.7060672799700020e+04  1.6376423638629896e+04  1.0167377071701379e+04  1.4174345094704847e+03  6.1432111701355170e+03  5.7277805856067835e+03  1.1560068977420181e+03  2.7306445965520456e+03  8.1959896551820439e+03  1.0847030811028320e+04  1.0818158226728241e+04  1.5054102021664970e+04  3.1104174858196398e+03  9.3752962225955798e+03  1.7895296777141732e+04  1.8089182658243968e+04  7.2883202254907374e+03  1.0954064860933981e+04  2.1370017926616772e+04  1.8459902130037299e+04  1.2949888739240518e+04  6.4400922659305916e+03  3.2296982478551463e+03  1.1842832931334460e+04  1.5855848860745169e+04  8.5731194970081742e+03  2.3094758977393626e+03  1.3286139717754142e+04  1.7612007841501236e+04  1.5904735085683860e+04  1.5377167914060801e+04  1.2904287887852999e+04  9.6820188268909860e+03  6.1977339462706086e+03  2.9194527204290230e+03  2.0525340167242643e+02  1.3247726675256226e+03  3.4645798266309234e+03  5.0009410581424163e+03  2.5624890496157841e+03  1.6655090987250392e+03  4.1899295766557470e+03  7.2076048055524052e+03  5.4563956926465107e+03  3.8304814905840358e+03  3.0672360953772086e+03  3.1254869011608748e+03  3.8095407506546753e+03  4.2626301053572188e+03  4.2598987175567690e+03  4.0132529063958214e+03  4.1392276483903188e+03  5.0996649433724660e+03  7.5203477748327914e+03  1.0452540357415692e+04  1.3312252263766195e+04  1.4797630250663948e+04  1.3270640990859865e+04  1.0184380308483911e+04  3.5211024292854336e+03  2.0596233511971750e+03  7.3439856058154865e+03  1.4948663260317775e+04  1.7800873789657973e+04  1.7628880768732379e+04  7.2918290897496781e+03  7.3877373736650470e+03  1.2746487091087505e+04  1.1842999288139457e+04  8.6810077447832773e+03  1.0652579428601886e+04  1.3207732478094462e+04  7.8721547022993091e+03  5.7587992780025243e+03  4.0990490706447490e+03  2.7216933977303643e+03  2.4095785582706890e+03  2.2291860924725720e+03  2.1667915654958310e+03  1.9068608499561860e+03  1.6131284201949222e+03  1.2054586622047671e+03  7.8489940663864934e+02  3.2013822013597735e+02  9.6644475528657363e+00  3.3280237216944158e+02  6.8790998459510115e+02  9.6280785547480070e+02  1.1601703164709777e+03  1.3313585331281067e+03  1.3716767201053628e+03  1.4306233533999077e+03  1.4597543874055682e+03  1.4057817703590722e+03  1.3655997405506735e+03  1.3131116994551103e+03  1.2084778548517759e+03  1.1598502569619693e+03  1.0781557099696597e+03  1.0202861302025289e+03  9.6710242250661065e+02  9.5058383099247646e+02  9.2478549249497553e+02  9.3103977661852514e+02  9.2235020872221105e+02  9.4582244920998824e+02  9.4995617745902598e+02  9.3936819283736384e+02  9.5203159586124127e+02  8.9773688675580593e+02  8.4443608756732306e+02  7.5999141506791432e+02  5.9206004965193972e+02  4.5198243384368368e+02  2.2985055194937109e+02  2.1035816256790508e+01  1.2937778886500843e+02  2.7386263962522270e+02  2.5212516326545600e+02  7.1472327350561102e+01  1.1993096520324589e+02  7.2792123966572296e+02  1.2061703830834574e+03  1.0839498653678654e+03  4.2723767924406553e+02  1.8322072561618540e+02  1.3425670749220826e+03  2.2329054044988302e+03  2.6368685558505686e+03  2.8842863264607527e+03  3.6332784386431063e+03  5.1660295369643309e+03  7.3652599761375759e+03  1.0632370085976452e+04  1.2813829950066249e+04  1.4749864608224667e+04  1.5355135064775868e+04  1.5471437004564701e+04  1.5185658032010839e+04  1.4582792915606698e+04  1.3823479941389724e+04  1.2797478160340279e+04  1.1832439423608843e+04  1.0892085171595325e+04  9.5353993475199986e+03  8.089846274033506