<?xml version="1.0"?>
<VTKFile type="UnstructuredGrid"  version="0.1"  >
<UnstructuredGrid>
<Piece  NumberOfPoints="3879" NumberOfCells="6881">
<Points>
<DataArray  type="Float64"  NumberOfComponents="3"  format="ascii">0.207524190028372 0.2122422770132111 0  0 0 0  1 0 0  0 1 0  1 1 0  0.6249674373315121 0.2590146544375328 0  0.204663578893616 0.322657230836866 0  0.09605577522599912 0.4018360776629776 0  0.671351124618251 0.08738059142081528 0  0.7842102907526436 0.1666439122351055 0  0.8512483166984784 0.1985391006160637 0  0.6418797837909295 0.4423157172830166 0  0.9292488447973215 0.3869277868069776 0  0.3197896119137055 0.5509935221980964 0  0.3979283685568406 0.5079871620336583 0  0.1572503457993085 0.7345153245035532 0  0.3032914287999163 0.7872981443735918 0  0.3549464687598876 0.8870324161721976 0  0.9691791685505482 0.5159450047798622 0  0.9447564590470373 0.6146164845729313 0  0.7687603548175107 0.7176858127488035 0  0.8926159261971183 0.7422924070424508 0  0.2061587782631535 0.2217389244366831 0  0.2021731605082994 0.2304662099646423 0  0.1958902278109265 0.2377171008267789 0  0.1878189860121365 0.2429041729681512 0  0.1786133191209442 0.2456072006525708 0  0.1690190155206647 0.2456072006525708 0  0.1598133486294724 0.2429041729681512 0  0.1517421068306824 0.2377171008267789 0  0.1454591741333096 0.2304662099646422 0  0.1414735563784554 0.221738924436683 0  0.1401081446132369 0.212242277013211 0  0.1414735563784555 0.202745629589739 0  0.1454591741333096 0.1940183440617798 0  0.1517421068306825 0.1867674531996431 0  0.1598133486294725 0.1815803810582709 0  0.1690190155206649 0.1788773533738513 0  0.1786133191209443 0.1788773533738514 0  0.1878189860121367 0.181580381058271 0  0.1958902278109266 0.1867674531996433 0  0.2021731605082994 0.19401834406178 0  0.2061587782631535 0.2027456295897391 0  0.03333333333333333 0 0  0.06666666666666667 0 0  0.1 0 0  0.1333333333333333 0 0  0.1666666666666667 0 0  0.2 0 0  0.2333333333333333 0 0  0.2666666666666667 0 0  0.3 0 0  0.3333333333333333 0 0  0.3666666666666666 0 0  0.4 0 0  0.4333333333333333 0 0  0.4666666666666667 0 0  0.5 0 0  0.5333333333333333 0 0  0.5666666666666667 0 0  0.6 0 0  0.6333333333333333 0 0  0.6666666666666666 0 0  0.7 0 0  0.7333333333333333 0 0  0.7666666666666667 0 0  0.8 0 0  0.8333333333333334 0 0  0.8666666666666667 0 0  0.9 0 0  0.9333333333333333 0 0  0.9666666666666667 0 0  0 0.9666666666666667 0  0 0.9333333333333333 0  0 0.9 0  0 0.8666666666666667 0  0 0.8333333333333334 0  0 0.8 0  0 0.7666666666666666 0  0 0.7333333333333334 0  0 0.7 0  0 0.6666666666666667 0  0 0.6333333333333333 0  0 0.6 0  0 0.5666666666666667 0  0 0.5333333333333333 0  0 0.5 0  0 0.4666666666666667 0  0 0.4333333333333333 0  0 0.4 0  0 0.3666666666666667 0  0 0.3333333333333334 0  0 0.3 0  0 0.2666666666666667 0  0 0.2333333333333333 0  0 0.2 0  0 0.1666666666666666 0  0 0.1333333333333333 0  0 0.09999999999999998 0  0 0.06666666666666665 0  0 0.03333333333333333 0  1 0.03333333333333333 0  1 0.06666666666666667 0  1 0.1 0  1 0.1333333333333333 0  1 0.1666666666666667 0  1 0.2 0  1 0.2333333333333333 0  1 0.2666666666666667 0  1 0.3 0  1 0.3333333333333333 0  1 0.3666666666666666 0  1 0.4 0  1 0.4333333333333333 0  1 0.4666666666666667 0  1 0.5 0  1 0.5333333333333333 0  1 0.5666666666666667 0  1 0.6 0  1 0.6333333333333333 0  1 0.6666666666666666 0  1 0.7 0  1 0.7333333333333333 0  1 0.7666666666666667 0  1 0.8 0  1 0.8333333333333334 0  1 0.8666666666666667 0  1 0.9 0  1 0.9333333333333333 0  1 0.9666666666666667 0  0.9666666666666667 1 0  0.9333333333333333 1 0  0.9 1 0  0.8666666666666667 1 0  0.8333333333333334 1 0  0.8 1 0  0.7666666666666666 1 0  0.7333333333333334 1 0  0.7 1 0  0.6666666666666667 1 0  0.6333333333333333 1 0  0.6 1 0  0.5666666666666667 1 0  0.5333333333333333 1 0  0.5 1 0  0.4666666666666667 1 0  0.4333333333333333 1 0  0.4 1 0  0.3666666666666667 1 0  0.3333333333333334 1 0  0.3 1 0  0.2666666666666667 1 0  0.2333333333333333 1 0  0.2 1 0  0.1666666666666666 1 0  0.1333333333333333 1 0  0.09999999999999998 1 0  0.06666666666666665 1 0  0.03333333333333333 1 0  0.6247072676344306 0.2689501343248463 0  0.6239274716502419 0.2788583817523955 0  0.6226301867455355 0.2887122389026952 0  0.6208189686880621 0.2984846970382296 0  0.6184987819006211 0.3081489705305245 0  0.6156759858539226 0.317678570277693 0  0.6123583176357204 0.3270473763092224 0  0.6085548707439923 0.3362297093789981 0  0.6042760701622942 0.3452004013503318 0  0.5995336437856049 0.3539348641800754 0  0.5943405902749808 0.3624091573127375 0  0.5887111434291297 0.3706000532998825 0  0.582660733170558 0.3784851014649517 0  0.5762059432532257 0.3860426894390078 0  0.5693644658076293 0.3932521023987353 0  0.5621550528479018 0.4000935798443317 0  0.5545974648738458 0.4065483697616639 0  0.5467124167087765 0.4125987800202355 0  0.5385215207216315 0.4182282268660866 0  0.5300472275889694 0.4234212803767108 0  0.5213127647592257 0.4281637067534002 0  0.512342072787892 0.4324425073350981 0  0.5031597397181163 0.4362459542268262 0  0.493790933686587 0.4395636224450283 0  0.4842613339394185 0.4423864184917269 0  0.4745970604471235 0.4447066052791678 0  0.4648246023115891 0.4465178233366412 0  0.4549707451612894 0.4478151082413475 0  0.4450624977337403 0.4485949042255363 0  0.4351270178464268 0.4488550739226177 0  0.4251915379591132 0.4485949042255363 0  0.4152832905315641 0.4478151082413475 0  0.4054294333812644 0.4465178233366411 0  0.39565697524573 0.4447066052791677 0  0.385992701753435 0.4423864184917267 0  0.3764631020062665 0.4395636224450281 0  0.3670942959747371 0.4362459542268259 0  0.3579119629049616 0.4324425073350978 0  0.3489412709336278 0.4281637067533998 0  0.3402068081038843 0.4234212803767103 0  0.3317325149712221 0.4182282268660862 0  0.3235416189840771 0.412598780020235 0  0.3156565708190078 0.4065483697616634 0  0.3080989828449519 0.4000935798443311 0  0.3008895698852244 0.3932521023987346 0  0.2940480924396279 0.3860426894390071 0  0.2875933025222958 0.3784851014649511 0  0.2815428922637242 0.3706000532998818 0  0.2759134454178731 0.3624091573127368 0  0.2707203919072489 0.3539348641800746 0  0.2659779655305596 0.3452004013503309 0  0.2616991649488616 0.3362297093789972 0  0.2578957180571336 0.3270473763092215 0  0.2545780498389315 0.3176785702776921 0  0.251755253792233 0.3081489705305236 0  0.249435067004792 0.2984846970382286 0  0.2476238489473186 0.2887122389026941 0  0.2463265640426123 0.2788583817523945 0  0.2455467680584236 0.2689501343248454 0  0.2452865983613423 0.2590146544375318 0  0.2455467680584237 0.2490791745502182 0  0.2463265640426126 0.2391709271226692 0  0.247623848947319 0.2293170699723696 0  0.2494350670047924 0.2195446118368351 0  0.2517552537922335 0.2098803383445402 0  0.2545780498389321 0.2003507385973717 0  0.2578957180571343 0.1909819325658423 0  0.2616991649488624 0.1817995994960667 0  0.2659779655305604 0.172828907524733 0  0.2707203919072498 0.1640944446949895 0  0.2759134454178741 0.1556201515623273 0  0.2815428922637251 0.1474292555751825 0  0.2875933025222969 0.1395442074101132 0  0.2940480924396291 0.1319866194360571 0  0.3008895698852256 0.1247772064763297 0  0.3080989828449531 0.1179357290307334 0  0.3156565708190092 0.1114809391134012 0  0.3235416189840785 0.1054305288548295 0  0.3317325149712236 0.09980108200897844 0  0.3402068081038856 0.0946080284983544 0  0.3489412709336291 0.08986560212166514 0  0.357911962904963 0.08558680153996717 0  0.3670942959747386 0.08178335464823916 0  0.3764631020062678 0.07846568643003712 0  0.3859927017534364 0.0756428903833386 0  0.3956569752457313 0.0733227035958976 0  0.4054294333812659 0.07151148553842429 0  0.4152832905315654 0.07021420063371797 0  0.4251915379591144 0.0694344046495293 0  0.435127017846428 0.0691742349524479 0  0.4450624977337415 0.06943440464952938 0  0.4549707451612905 0.07021420063371814 0  0.4648246023115901 0.07151148553842454 0  0.4745970604471245 0.07332270359589793 0  0.4842613339394195 0.07564289038333902 0  0.4937909336865879 0.07846568643003757 0  0.5031597397181173 0.0817833546482398 0  0.5123420727878929 0.08558680153996781 0  0.5213127647592265 0.08986560212166581 0  0.53004722758897 0.0946080284983552 0  0.5385215207216321 0.09980108200897933 0  0.5467124167087771 0.1054305288548305 0  0.5545974648738462 0.1114809391134021 0  0.5621550528479023 0.1179357290307343 0  0.5693644658076298 0.1247772064763308 0  0.576205943253226 0.1319866194360582 0  0.5826607331705582 0.1395442074101142 0  0.5887111434291299 0.1474292555751835 0  0.594340590274981 0.1556201515623285 0  0.5995336437856051 0.1640944446949906 0  0.6042760701622945 0.172828907524734 0  0.6085548707439925 0.1817995994960678 0  0.6123583176357205 0.1909819325658435 0  0.6156759858539227 0.2003507385973728 0  0.6184987819006211 0.2098803383445412 0  0.6208189686880622 0.2195446118368362 0  0.6226301867455355 0.2293170699723706 0  0.6239274716502419 0.2391709271226702 0  0.6247072676344306 0.2490791745502192 0  0.203885768735257 0.3325402459548524 0  0.2015714905276826 0.3421799084407872 0  0.1977777294810124 0.3513388578120612 0  0.1925979005829864 0.3597915703383434 0  0.1861595484119405 0.3673299121842922 0  0.1786212065659918 0.373768264355338 0  0.1701684940397096 0.378948093253364 0  0.1610095446684356 0.3827418543000342 0  0.1513698821825007 0.3850561325076086 0  0.1414868670645144 0.3858339426659677 0  0.1316038519465281 0.3850561325076086 0  0.1219641894605933 0.3827418543000343 0  0.1128052400893193 0.378948093253364 0  0.1043525275630371 0.3737682643553381 0  0.09681418571708833 0.3673299121842922 0  0.09037583354604248 0.3597915703383434 0  0.08519600464801645 0.3513388578120612 0  0.08140224360134621 0.3421799084407872 0  0.07908796539377183 0.3325402459548523 0  0.07831015523541281 0.3226572308368659 0  0.07908796539377186 0.3127742157188796 0  0.08140224360134626 0.3031345532329447 0  0.08519600464801655 0.2939756038616707 0  0.0903758335460426 0.2855228913353884 0  0.0968141857
[...]
<PointData  Scalars="$\sigma_{VM}$"> 
<DataArray  type="Float64"  Name="$\sigma_{VM}$"  format="ascii">9.2207632829942522e+03  4.7636959535799842e+03  4.9815588203201587e+03  4.8125054535407116e+03  4.5605877146874627e+03  9.2612085757932582e+03  4.0047479261951185e+02  1.0193212240743189e+04  9.1550953332980371e+03  -1.1062120816253888e+02  8.7478401170924194e+00  5.1378466173556890e+03  1.1934222929033635e+04  9.5614762393275396e+03  9.0944671858175172e+02  -6.4807519302945238e+01  5.9979511600771229e+03  7.1202495668954998e+03  2.0770093644300970e+04  1.1239139450264684e+04  7.0754894755059786e+03  3.8157952266144644e+03  5.9946533290674988e+03  1.4993704674853291e+03  1.9117100226974846e+03  3.7546930387619782e+03  2.0782781060003972e+03  3.0219607486555747e+03  8.4409463538951240e+03  9.9422764681748704e+03  7.6339311206462116e+03  4.8057058103635281e+03  3.6143083582837380e+03  1.7667271468607003e+03  2.4406241156527176e+02  1.5450427511976277e+03  2.6360377278506426e+03  2.4532879730917343e+03  6.5472129230706480e+02  1.5241226476763184e+03  4.5775027644137645e+03  7.6159276043478376e+03  9.0507236547197699e+03  3.9467292931397119e+03  3.4261212831750172e+03  2.6513069762645609e+03  2.2292639524637293e+03  1.7640982680350205e+03  1.3382503977457673e+03  9.7036449974176776e+02  6.2824992275049738e+02  2.7607064754539061e+02  1.5014872347889323e+02  2.6829333728721843e+02  3.1826343962243692e+02  3.4065586751192029e+02  3.6433536897116818e+02  5.8464047109395744e+02  1.0523465249026017e+03  1.5840965611572947e+03  1.4413115355572274e+03  9.1969240299633623e+02  1.1853631932755009e+03  1.3581870271657397e+03  7.0617655516902448e+02  4.5490142673675501e+02  6.9600110501188669e+02  1.2067518696837935e+03  1.8612267102563499e+03  2.6388033856942648e+03  3.5060110742009215e+03  4.2560868613784205e+03  4.8616178474794078e+03  5.0249871244113147e+03  5.1230386189432747e+03  5.2755159366620846e+03  5.4633222242245347e+03  5.5266931744783515e+03  5.9521451954543554e+03  6.4688503635042935e+03  7.2000778302948547e+03  7.0742959473518467e+03  6.0559649651277659e+03  4.4130265272197821e+03  2.3773552540402879e+03  2.5078348057134663e+03  5.6537818618394585e+03  8.3735908542304678e+03  8.9670533939889865e+03  5.9773576248959289e+03  7.5496225669338883e+03  7.3225938316972961e+03  5.6222518084558751e+03  5.2238997456957095e+03  5.0955155680768685e+03  5.0204339129096506e+03  4.9761109632275011e+03  4.9213868696597638e+03  4.8389788826875856e+03  4.6342152689176482e+03  4.5788651994405718e+03  5.0728990836784715e+03  5.1258342670929542e+03  5.3628725689221947e+03  5.6133504220775940e+03  5.8472538692433500e+03  6.2542743279300330e+03  6.3187712578540240e+03  6.1964469832340301e+03  5.4727726985837953e+03  4.1534977429618375e+03  2.9502380075768588e+03  3.0059271525809309e+03  5.0635035371325475e+03  7.5499628098564299e+03  6.3791543077268270e+03  9.0513083166539982e+03  1.0593050873888804e+04  6.4982399236554993e+03  4.3655989025555009e+03  4.9322289596130468e+03  5.4223039471685051e+03  5.4435099341556888e+03  5.3276642506575608e+03  5.2521106474632497e+03  5.1181615247064119e+03  4.8985270406920135e+03  4.7510905089763291e+03  4.6550902640392096e+03  4.5952027052365547e+03  4.0061371550189588e+03  3.4683246123544591e+03  2.8673577847851971e+03  2.3631249523819915e+03  1.8554112174574541e+03  1.3712578233555589e+03  9.4133794710133736e+02  4.8720658578617036e+02  1.5010558335519491e+02  1.9258926160460175e+02  3.3684578429733642e+02  3.8675229858652602e+02  4.2819256463027375e+02  4.0345875078909637e+02  4.2564887192960839e+02  5.9279061693516337e+02  9.5710599028920399e+02  1.3323544392340921e+03  1.2843326976182129e+03  7.8635028114266152e+02  5.1253654313873551e+02  7.4972488125035341e+02  1.0012839069650805e+03  1.1213685010940203e+03  1.4224311250293679e+03  1.9855442195602764e+03  2.6440204365417308e+03  3.3572506566495995e+03  4.1156799238354579e+03  8.4699777069713855e+03  7.6536071149567260e+03  6.9684944649479294e+03  6.1762908108769507e+03  5.3772945937585246e+03  4.3002497206354101e+03  3.2434137771465148e+03  2.0091192099664863e+03  1.2998232221341582e+03  5.6961423204456719e+02  1.7795745195495451e+02  1.9215909853236079e+02  4.6175830147664362e+02  1.1659061246748686e+03  2.0157805625767694e+03  3.3403535149289687e+03  4.3598813270404389e+03  5.1098201727451997e+03  5.2405490187188816e+03  5.1985964922676112e+03  4.9538247490542299e+03  4.3408624973823862e+03  3.6727999371513210e+03  2.7743182064250609e+03  1.8325056257501606e+03  7.8722104918079572e+02  1.1788670718299353e+02  7.1718399730138356e+02  1.4420532577987572e+03  1.9331322951994810e+03  2.4457798401248542e+03  2.9605974600732102e+03  3.8203748046530304e+03  4.9198498395798488e+03  6.0313501470048213e+03  6.6504300551345304e+03  7.0245717591491375e+03  6.8886762076424766e+03  6.5116043685645773e+03  5.5137689403926333e+03  3.9309702990211463e+03  1.4310741241093720e+03  7.0195948745965438e+02  3.1935607761208676e+03  6.0668752231192993e+03  7.6015799417448679e+03  9.0747777206595474e+03  1.0037096609029846e+04  1.0298389989264251e+04  1.0367841524459785e+04  1.0201881639775493e+04  1.0282324557929467e+04  1.0143634586238639e+04  9.9488109236618220e+03  9.4182340639943068e+03  8.6392243767644432e+03  7.5650150885543771e+03  6.7778609134868193e+03  6.1625116478049013e+03  5.9239972820500252e+03  5.5937169257452615e+03  4.5017664207466541e+03  3.1960159216949219e+03  1.6412887810846137e+03  7.4310452354291351e+02  5.6561083675226030e+02  5.9589007481297745e+02  7.3661432415479874e+02  7.3470660489937632e+02  6.2520290987720466e+02  3.7945956645245377e+02  1.5401188187435716e+02  2.4628743019052521e+01  2.8256768637949904e+02  4.7482212364627787e+02  6.3542682323840882e+02  7.3784412592383683e+02  7.9940703675412260e+02  8.5090835274524534e+02  8.2693295405903484e+02  8.1687570976367022e+02  7.8710091462622108e+02  7.3705375549125654e+02  6.9228499111821930e+02  6.6276923936326136e+02  6.2724768828029073e+02  6.1295543516498037e+02  6.0139741261789698e+02  5.9181559053971375e+02  5.9141648326558266e+02  6.1438797008041035e+02  5.8978157676889964e+02  5.6014710602307480e+02  5.4698466011659582e+02  4.3692916549564887e+02  3.3009760747364214e+02  1.4750839508248237e+02  1.0199261732325571e+01  1.4949601389204122e+02  2.8197356354159916e+02  3.1349208498932984e+02  1.0060992875536827e+02  2.5234410715779145e+01  2.7798558208707539e+02  1.8803114750029272e+02  -2.0641426021324737e+01  3.9374763930284280e+02  1.4370925546518115e+03  1.8592234103228350e+03  2.2262349326537133e+03  2.3881528740912308e+03  3.3170588963653918e+03  4.9025517684863225e+03  6.9244991349694283e+03  8.7671376949435598e+03  1.0152180595963993e+04  1.0695528050191153e+04  1.0700016661733553e+04  9.9472406032670842e+03  3.6920457562973280e+02  7.0375431657901993e+02  2.9040181911715723e+02  1.8697121369860276e+03  3.9221925565481242e+03  5.6053408144340256e+03  5.7716445773018286e+03  4.1627245210829042e+03  2.0932363989010114e+03  1.0639780049285643e+02  3.7230000727207853e+03  6.5077047183863606e+03  1.2053910314968796e+04  7.2382911736844799e+03  3.2487229558345302e+03  6.5732693504203507e+03  7.2459145458675412e+03  5.0061921316169282e+03  5.2589936258021762e+03  5.8330395034056737e+03  6.5186940494422315e+03  6.2879315582642421e+03  5.4759886671681170e+03  4.1965757674772731e+03  2.6430364283114059e+03  1.2536503082307565e+03  1.4964051210199813e+02  4.9192427844077480e+02  1.2833973032684880e+03  9.1204476689610351e+02  7.0887285370135351e+02  6.0975515256782855e+03  8.7827422145533565e+03  8.4687150824055971e+03  7.1578648241895562e+03  5.1971184464722501e+03  4.2794606623966538e+03  3.1629520291970330e+03  1.6288026579838197e+03  7.2221594171151010e+03  3.0650123980725043e+03  2.6616108077436629e+03  7.5680271423877030e+03  8.6499253383507767e+03  3.1454037709908671e+03  4.6520801463861371e+03  1.3481822491568728e+04  1.7871251967572316e+04  1.6153104626928129e+04  7.2535914314302036e+03  9.0496195216591491e+02  8.1770824862666796e+03  9.2337450051369196e+03  6.6730518524363752e+03  5.0138053695254202e+03  1.0833118225319058e+04  1.1628413498151704e+04  9.7873469478935167e+03  4.3629880721622312e+03  1.7504646523650385e+03  4.4270294481085130e+03  1.7667912761590835e+03  1.5891412943472228e+03  5.2078058044293866e+03  7.6117219677322355e+03  8.1867542453470296e+03  6.4309277475716572e+03  3.8773119510455904e+03  1.5965340919449054e+03  4.7126476476132763e+02  2.5589790222377851e+03  3.5436632094606075e+03  3.6490827992120394e+03  2.8541467897676566e+03  6.7613024104491365e+02  1.3825646357629028e+03  4.9901023869737573e+03  1.8772709032312305e+03  5.7781671764037619e+03  9.9640620237198873e+03  8.4009004122431088e+03  8.1969767036251633e+03  7.1926863770229847e+03  5.7432791380986746e+03  2.9406382063088708e+03  4.5712980247260873e+02  2.0278296169803145e+03  3.7431736348025288e+03  4.8602718341415321e+03  5.4803162826631160e+03  5.5284319345832546e+03  4.8483557763333501e+03  2.6628379593497993e+03  5.5081451397811497e+02  2.3779246524880868e+03  5.4781827265390202e+03  7.0381968173532059e+03  8.9346901326243387e+03  1.1763113516553309e+04  1.2932000406249481e+04  1.2354613031410323e+04  7.6482749783123818e+03  1.8823878335808190e+03  -1.9140069225570258e+02  -1.8377886389983956e+01  -3.7585292964307563e+01  5.6702657044665318e+02  1.2982676609893488e+03  1.8493425547983870e+03  2.1673028707614608e+03  2.2768190093474254e+03  2.1477367848872173e+03  1.8304569814191086e+03  1.2498737533143244e+03  7.5156127584898968e+02  1.6652730130463411e+02  2.7386575844115220e+02  8.0885285708044000e+02  1.9538657515010989e+03  2.7746443502288184e+03  3.3619259436269831e+03  1.8441490854109447e+03  1.2157650336000331e+03  2.8112121533885165e+03  1.3999721145585922e+03  4.7377598602718499e+03  7.7224662984563283e+03  6.2191184420936215e+03  2.9659758603382597e+03  3.9027794345211743e+02  1.2385512316636605e+03  1.2987546783304876e+03  4.1957607103360766e+02  1.8954859825231788e+03  1.4206626461638059e+03  3.0210870445172677e+03  3.8419577138368245e+03  3.4763299514439959e+03  1.3406688385102500e+03  6.2687462802426114e+02  1.0598698313527050e+03  6.4371767266930146e+02  3.2962441357377111e+03  6.2395825841653668e+03  5.8998999825971550e+03  3.5241738974476257e+03  3.1873461496165073e+03  5.4450658749747336e+03  6.9272330826591406e+03  1.1287609745209207e+04  1.0695276771209183e+04  9.9222980097165200e+03  8.8696849760688656e+03  8.7521462376857908e+03  9.1748841565497278e+03  1.0461674225959272e+04  1.0910922977644912e+04  9.7491516722385277e+03  6.1875474407042384e+03  2.3422750428631794e+03  1.2596483342031370e+03  1.7494807099473537e+03  1.9125536898690423e+03  4.2377958995433971e+02  2.2710381492486199e+03  6.3956945376690637e+03  9.1430579499762971e+03  1.0507326817579404e+04  1.0649329908183316e+04  9.9943011682775541e+03  9.5186788721891098e+03  8.4619912788309557e+03  7.8252927376275893e+03  6.3662316679296391e+03  5.0680934631788932e+03  3.2898536268814591e+03  4.5647896378191223e+02  1.4577577883676463e+03  4.1113854062253031e+03  6.3683553595722942e+03  8.1889489078953293e+03  9.2686547542619228e+03  1.0194241099272273e+04  1.0512846686425371e+04  1.0797816638290462e+04  1.0975409820419014e+04  1.0124636305703938e+04  9.4166157394893944e+03  9.3405470837021603e+03  8.6768574662845531e+03  8.4643952106379347e+03  8.4362971247583118e+03  8.2898616509244093e+03  7.7727460752017005e+03  6.9414357363436002e+03  5.6884164862500529e+03  4.3522465502972909e+03  3.1593799592461032e+03  2.1137495372450248e+03  1.7840694934656799e+03  2.0231575592405288e+03  2.7116450915749147e+03  3.7293811425069157e+03  4.3453702254088075e+03  4.2703904220946688e+03  3.2386513620495921e+03  9.7499920203549584e+02  6.7062004532450612e+02  2.7936757418738853e+03  3.5788940334207114e+03  3.4804651332171247e+03  3.1312697876070256e+03  3.3651517671180832e+03  3.7085384549905489e+03  3.4419286869488451e+03  2.9505009877416001e+03  2.3424596868511458e+03  1.9714765480264562e+03  1.5809236508192864e+03  1.1120351517753818e+03  5.0188234510340823e+02  1.8430046378200657e+01  8.5399366648876060e+02  1.8682500813946117e+03  3.2379346483272179e+03  4.5487731524411029e+03  6.1188993103870234e+03  7.5068568596950863e+03  9.1909091270801709e+03  1.0006344346284934e+04  1.1344443763770443e+04  1.1752397170143340e+04  9.1265628074333890e+03  8.8958521238205994e+03  8.5257228575189602e+03  7.7751951014895703e+03  6.6227399984761769e+03  5.1577809237435413e+03  3.5721340268457257e+03  2.1364767339079881e+03  9.1665966281397004e+02  2.7876824113072939e+02  3.2745273618952018e+02  8.8448796288650738e+02  1.8197132302433099e+03  2.6403650890741583e+03  3.0254779243119965e+03  2.4127570333532485e+03  7.0712188986225283e+02  7.0722956850319724e+02  3.1852779515767020e+03  4.6683213617512838e+03  5.3646397437254636e+03  5.3839215324329971e+03  5.2740939786481049e+03  5.0009673434519045e+03  4.4668362408610383e+03  3.2933635385485286e+03  2.3205993470197109e+03  1.7141812848957954e+03  1.3150119144300543e+03  6.9373310801184061e+02  6.8988479782996492e+01  7.1121065056514806e+02  2.4987333829415138e+03  3.5982423409429716e+03  5.7134719295576724e+03  7.8223624882336553e+03  1.0104285805365293e+04  1.1715396539345120e+04  1.4391301644262630e+04  1.4858778901936184e+04  1.5901594027310142e+04  1.5398846305670855e+04  1.5529147163917125e+04  1.4193443392151257e+04  1.2642698679964276e+04  1.0366202341248121e+04  8.0456191026212146e+03  6.2270571458958193e+03  4.8264078178825484e+03  4.4606392254894754e+03  4.7857414965356693e+03  5.2457683503214485e+03  4.2482605052625922e+03  1.2374166517339684e+03  1.7444464754382725e+03  3.2746724668780439e+03  3.1077848968856815e+03  2.8950599225170463e+03  3.6064447600622602e+03  5.4318498049848131e+03  7.1840496273250219e+03  8.3121904285763139e+03  8.4126378729352873e+03  7.7953565664815187e+03  7.7555236029266671e+03  7.2242994126406957e+03  7.2851043795038131e+03  6.6612218227486765e+03  5.0005681180036845e+03  3.1958057418385533e+03  4.1093598306969409e+02  2.1251969618743487e+03  5.1837028341392743e+03  7.6599541460725159e+03  9.6235906630659574e+03  1.0977940953708081e+04  1.1538750193239395e+04  1.1978865552151185e+04  1.2717727764928830e+04  1.1625402133311534e+04  1.1597730882757520e+04  1.0865311085637222e+04  9.9816245932903603e+03  1.3011306205289764e+03  4.5563157304924234e+03  5.9000253544924808e+03  5.1226565322027564e+03  3.2109077377581193e+03  4.0339660595501905e+03  6.9142555046430516e+03  6.8775789609718886e+03  4.1360498933803729e+03  1.3825621194841792e+03  2.4004883442052956e+03  4.4864024416068078e+03  4.4636130112543542e+03  1.8578978537995508e+03  4.6943767146625470e+02  1.6749164436587700e+03  1.9617443544163857e+03  4.5283686928109037e+03  4.2749501811185255e+03  2.8415269182908924e+03  1.0312368943426970e+03  7.8716806815814300e+02  2.1328514950227814e+03  3.7318993045711350e+03  3.9688928123255237e+03  3.2557924121426331e+03  5.8717017110101904e+02  8.5194194280908403e+02  1.1903221487536478e+03  3.3710878720694410e+02  1.6841766420566537e+03  3.5312107007001723e+03  2.4301409272989426e+03  5.6194789379034728e+02  8.0797253346302841e+03  9.5050603509139382e+03  1.1874421498932050e+04  1.3453240294721430e+04  1.3886310375360403e+04  9.9650224208375548e+03  2.6905848860422425e+03  4.3643495819557967e+02  -2.2943706318268644e+02  5.5602610463326208e+01  3.6969799976415487e+02  1.0543541853788613e+03  1.5698339015092308e+03  1.9019273094621574e+03  2.0035504990571737e+03  1.8952949064356837e+03  1.5453974221748592e+03  1.0621619275195028e+03  4.6833644661510351e+02  5.7952281794411363e+01  4.3010774001877360e+02  9.8679033352517274e+02  1.3195677623893641e+03  2.6474642588800657e+03  4.3147919352451472e+03  6.1045921452644498e+03  7.2089612700523421e+03  6.8080477867181498e+03  6.3903780523198475e+03  6.4098867379498997e+03  4.7702898683118019e+03  1.9789773829409819e+03  4.3686870208218352e+02  2.2884818011174139e+03  3.8915339641513265e+03  4.7657019440759814e+03  5.6624936260051272e+03  6.0589513881368985e+03  5.5154499700058323e+03  4.3710385283363112e+03  1.7577311650006520e+03  6.2178442119877604e+02  3.7112755915678472e+03  5.2540613096379011e+03  3.2073628197725475e+03  8.5659614008468509e+02  5.5915769081604481e+02  2.2267317847120385e+03  3.0556983803454486e+03  3.3650403619866765e+03  3.0323399389836582e+03  1.8258312578340774e+03  2.6384357380209894e+02  2.1631264605676911e+03  5.7899514156045107e+03  8.6078556009997501e+03  1.2791737224578595e+04  1.1708339394744318e+04  7.2673055307644345e+03  1.0699713938120681e+03  4.1575935498050112e+03  4.2489607722763467e+03  9.1676884499989615e+02  1.8930660084226727e+03  5.8072421425770563e+03  7.7430474259323837e+03  7.7334019701322641e+03  1.5282610044550336e+04  3.1079825011701137e+03  5.8053497726939104e+03  1.3251563589542609e+04  1.3760053083644194e+04  6.1983602323995365e+03  6.9435790322134017e+03  1.5924068427976395e+04  1.3867483669450992e+04  8.7999693104810904e+03  4.5687562244959754e+03  1.9420735535374165e+03  7.7028961440070434e+03  1.0470195520964391e+04  4.8956909763359281e+03  2.0748386875404044e+03  1.2006105885336008e+04  1.7920681318064679e+04  1.1899925536949677e+04  1.1383471814228571e+04  9.5568814105705223e+03  7.1550924714182256e+03  4.6697443742899350e+03  2.1850569470856822e+03  2.0922171681801669e+02  9.2537328596014265e+02  2.5287127340658599e+03  3.5655928728185586e+03  1.8025953160825013e+03  1.3302895613144490e+03  3.1805731752406978e+03  5.3072241622280217e+03  4.0836268167785943e+03  2.9023666215473099e+03  2.3387600184886969e+03  2.3729335743708357e+03  2.8260903457032687e+03  3.1132399452715554e+03  3.0721135184805885e+03  2.8605937298613931e+03  2.9493260064885062e+03  3.6616594234319841e+03  5.4265902796489836e+03  7.5321324952389969e+03  9.5300710294429300e+03  1.0460402180240095e+04  9.1307572336367430e+03  6.6387744251413887e+03  1.6597155788807202e+03  2.3421193431589068e+03  6.1187853301238183e+03  1.1774198209006647e+04  1.5553775089877316e+04  1.3890227875253553e+04  6.0327837649198327e+03  4.8690844111107435e+03  8.4774828820071034e+03  7.9495147455074903e+03  5.9710540581340356e+03  7.4611929664161462e+03  9.4110719203403369e+03  5.6083517149265062e+03  4.0782479147570671e+03  2.8847593457618618e+03  1.9042899439543637e+03  1.6775603264485208e+03  1.5580113258646843e+03  1.5095972000660120e+03  1.3325473000392974e+03  1.1208349618020700e+03  8.2241256628871076e+02  5.2380242614868303e+02  1.8587685513375109e+02  1.4322448114802294e+01  2.9338853925115365e+02  5.3572618213523538e+02  7.2711459143569300e+02  8.6674376489650399e+02  9.8295454301632094e+02  1.0078892306816447e+03  1.0398365608023221e+03  1.0598463710812484e+03  1.0130992274272282e+03  9.7537735028666236e+02  9.3354256650807974e+02  8.5228884496891828e+02  8.1266415511567868e+02  7.5075721103316380e+02  7.0522907805277669e+02  6.6630243717689211e+02  6.5108116682316631e+02  6.3208533018099899e+02  6.3601219653187752e+02  6.2989632163701378e+02  6.4659757126006696e+02  6.5040078317829580e+02  6.4399545017351397e+02  6.5407161226800417e+02  6.1576256417038053e+02  5.8127362600551783e+02  5.2041996308777959e+02  4.0383448647015734e+02  3.0572267690183429e+02  1.4583097080476736e+02  1.3386819395646773e+01  1.0746559690306533e+02  2.0503168092865647e+02  1.9765074616295803e+02  6.3618269396064960e+01  6.6493539969053970e+01  4.7193189430071698e+02  7.9587724667497309e+02  6.7468511958574368e+02  2.2039026156389775e+02  2.1999920912959107e+02  1.0609655954372577e+03  1.6923894138469161e+03  1.9457051481962369e+03  2.1156707654915294e+03  2.6203642252409500e+03  3.7076167231222912e+03  5.2813193076159396e+03  7.6399715534428478e+03  9.2347382901642468e+03  1.0687262522739120e+04  1.1449138599284706e+04  1.1704233615056899e+04  1.1244436619804877e+04  1.0612224357215682e+04  1.0049930870263010e+04  9.2960383578617475e+03  8.5986808955371162e+03  7.9234149144388184e+03  6.9348946473301239e+03  5.8888690343354165