<?xml version="1.0"?>
<VTKFile type="UnstructuredGrid"  version="0.1"  >
<UnstructuredGrid>
<Piece  NumberOfPoints="5315" NumberOfCells="9662">
<Points>
<DataArray  type="Float64"  NumberOfComponents="3"  format="ascii">0.9383417250393384 0.7810510922572833 0  0.9383282298820241 0.7810242803624872 0  0.9472834055107267 0.7054256366624485 0  0.9472640296027117 0.7054485620013109 0  0.9464120568866234 0.7043395083395503 0  0.9372410560007193 0.781904100283751 0  0.04521288617916097 0.1978300074291259 0  0.04523556536887616 0.1978496708806864 0  0.04590636616372086 0.1966224563762946 0  0.1492569462756062 0.2237231472702706 0  0.06692783531467876 0.2718452833258628 0  0.06571803075630589 0.2711436428982344 0  0.06570883130835044 0.2711722150372983 0  -1.283695372222837e-16 0.2654635807830092 0  3.261280134836397e-16 0.3664105061137909 0  0.02000147608661187 0.4089457032769034 0  0.01528550312625743 0.4312766591087117 0  0.01470389143750248 0.432548470898809 0  0.0147332179087278 0.4325548705127726 0  0.05628913353529023 0.5399680703479819 0  0.0562717501353341 0.539992541032063 0  0.05755792939699154 0.5405417835017421 0  0.09045547387954682 0.5910542967230966 0  -9.436895709313831e-16 0.6335894938862081 0  -9.228728892196614e-16 0.7341221747744301 0  0.04149340793163411 0.6948256372967154 0  0.04151739377022871 0.6948436838066345 0  0.04210161847863902 0.6935730310756629 0  0.1472126316680457 0.7172778160578334 0  0.06827937632895009 0.7671603564625653 0  0.06702391111803147 0.7665441391416086 0  0.06701671140652207 0.7665732795109867 0  9.26342336171615e-16 0.7658778252255699 0  0 1 0  1 1 0  0.9999999999999997 0.7649100009264292 0  1 0.7350899990735708 0  1 0.6334121084863596 0  0.9848244019657383 0.5687476662031448 0  0.9854039684437665 0.5674749513842294 0  0.9853746317783596 0.5674685986654247 0  0.9918448528339722 0.5353725309217559 0  0.9436470377019366 0.4601219754535451 0  0.9436643819560937 0.4600974770082662 0  0.9423773417014343 0.4595502983937699 0  0.9999999999999992 0.3665878915136391 0  1.000000000000001 0.2652390200918393 0  0.9353904212482798 0.2743210923895326 0  0.9353798525675212 0.2742929979067921 0  0.9342053747590718 0.2750522331492244 0  0.9515692368171582 0.198901988168515 0  0.9522984840879554 0.2000953050185889 0  0.9523201871111637 0.2000745691617947 0  0.9999999999999989 0.2347609799081606 0  1 0 0  0 0 0  1.214306433183765e-16 0.2345364192169908 0  0.305215664090506 0.2936781248970669 0  0.3353403067435849 0.3428714379721583 0  0.3039620205253303 0.2930582575392755 0  0.2309185281950801 0.3177675870070853 0  0.3039807371142542 0.2930347908336602 0  0.231569940952066 0.3165300392678707 0  0.2684589845040326 0.1834779803931458 0  0.2315410154959674 0.3165220196068543 0  0.2684300590479332 0.1834699607321291 0  0.2399712745024607 0.2801118317605056 0  0.2690814718104952 0.1822324129819893 0  0.1960192628857458 0.2069652091663398 0  0.2751166432225738 0.1571285620278417 0  0.1960379794746699 0.2069417424607238 0  0.1947843359094878 0.2063218751029299 0  0.4337178282889013 0.269302510581669 0  0.4337094418408728 0.2692736893314696 0  0.5437170247334775 0.3034297197255156 0  0.4324802580816673 0.2699407754387841 0  0.5437402517927662 0.3034107065540236 0  0.4556239999439031 0.1953436134036907 0  0.5443760000596267 0.3046563866030146 0  0.4562597482072335 0.1965892934459756 0  0.6484749240948534 0.2789296756123322 0  0.4562829752665225 0.1965702802744844 0  0.5675197419183327 0.2300592245612159 0  0.5662821717110962 0.2306974894183328 0  0.5662905581591263 0.2307263106685281 0  0.7798304030360812 0.3137706346652173 0  0.7905938378207512 0.3465279948932767 0  0.778986723172983 0.3126552717749082 0  0.7026080001343705 0.302062956518375 0  0.7790139628859669 0.3126426624525684 0  0.703744404975472 0.3012477621991588 0  0.7962778731307888 0.1987723545340473 0  0.7037221268692112 0.3012276454659527 0  0.7962555950245311 0.198752237800841 0  0.7363147175813424 0.2353653628376719 0  0.7973919998656277 0.1979370434816263 0  0.7209860371140331 0.1873573375474317 0  0.8198631121454075 0.1534720051067233 0  0.7210132768270182 0.1873447282250918 0  0.7201695969639171 0.1862293653347803 0  0.2108278519495062 0.556845897113204 0  0.2108031391099122 0.5568288597268836 0  0.3176457442794259 0.5137828328864951 0  0.2102720266506906 0.5581226872561326 0  0.317651730647919 0.5137534192779845 0  0.18106831812134 0.4856828855006018 0  0.3189316818829861 0.5143171145012384 0  0.1823482693520803 0.4862465807220139 0  0.3957781288288479 0.4634953894500853 0  0.182354255720574 0.4862171671135048 0  0.289727973349311 0.4418773127438637 0  0.2891721480504937 0.4431541028867961 0  0.2891968608900874 0.4431711402731144 0  0.2772253281553554 0.8149256620313232 0  0.2866994975442591 0.8458566815514763 0  0.2764274223947957 0.8137769907338196 0  0.2005399427259773 0.8001024167318449 0  0.2764551500720457 0.8137654940870103 0  0.2017083842273942 0.799333893496923 0  0.2983130615381074 0.700687108315271 0  0.2016869384618926 0.799312891684729 0  0.2982916157726054 0.7006661065030773 0  0.2369860309231427 0.7314710225611797 0  0.2994600572740198 0.6998975832681571 0  0.2235448499279541 0.6862345059129897 0  0.3237574524218996 0.6541433184485237 0  0.2235725776052021 0.686223009266181 0  0.2227746718446422 0.6850743379686733 0  0.5360284848824997 0.560485548847775 0  0.5502724531252636 0.5975052011450379 0  0.535077965992703 0.5594596460072669 0  0.4580243235304093 0.5565206964953298 0  0.5351038156748464 0.5594443885203708 0  0.459073928215074 0.5555964913438773 0  0.5409502412182801 0.4444213085287246 0  0.4590497587817201 0.5555786914712754 0  0.5409260717849249 0.4444035086561227 0  0.4853375113295811 0.4950439781421843 0  0.5419756764696033 0.4434793035046589 0  0.4648961843251536 0.4405556114796292 0  0.5601844968408951 0.4024947988549621 0  0.4649220340072954 0.4405403539927317 0  0.4639715151174973 0.4395144511522217 0  0.6816894323853737 0.5099789555396559 0  0.6816851000020003 0.5099492532261477 0  0.7859324100739919 0.5589472230708886 0  0.6803756808293892 0.5104404826618774 0  0.7859580368743627 0.5589315941209516 0  0.713584038884435 0.4397469470907706 0  0.7864159611114019 0.5602530528976899 0  0.7140419631256381 0.4410684058790466 0  0.8935953706376238 0.5415104583854273 0  0.7140675899260081 0.4410527769291114 0  0.8196243191706254 0.4895595173381174 0  0.8183105676146263 0.4900210444603442 0  0.818314899997999 0.4900507467738521 0  0.4394225177438617 0.7831101471606778 0  0.4394081272092579 0.7830838049989005 0  0.5541879656929705 0.7927735616421175 0  0.4383512509683095 0.7839997014245138 0  0.5542065584750293 0.7927499967226691 0  0.4449045719140036 0.7061702416486235 0  0.5550954280848417 0.7938297583500094 0  0.4457934415249711 0.7072500032773338 0  0.6525152811405122 0.7581916879014979 0  0.4458120343070295 0.7072264383578825 0  0.5616487490411817 0.7160002985674693 0  0.5605774822561382 0.7168898528393224 0  0.560591872790743 0.7169161950010996 0  0.7740754517391399 0.8161583159373151 0  0.7821168302880678 0.8448560924900503 0  0.7733336756253832 0.8149727079880787 0  0.6981906217711793 0.7976689698930802 0  0.7733619234917981 0.8149625563864158 0  0.6993945836345069 0.7969574811501823 0  0.8006258286504407 0.7030645264756947 0  0.6993741713495593 0.7969354735243053 0  0.800605416365495 0.7030425188498197 0  0.7379866199845687 0.7268883553049884 0  0.8018093782288205 0.7023310301069199 0  0.7266380765082017 0.6850374436135841 0  0.828340119678091 0.6551439075099497 0  0.7266663243746169 0.6850272920119197 0  0.7259245482608569 0.6838416840626798 0  0.9248514205331598 0.7892771526318353 0  0.9109756654412255 0.7931923012337647 0  0.896559400223506 0.7933827352614367 0  0.8825850692395265 0.7898354769544172 0  0.8700049997700365 0.7827922660325908 0  0.8596765025058487 0.7727330855386245 0  0.8523034472583413 0.7603434517965105 0  0.8483882954092236 0.7464676976207953 0  0.8481978580078736 0.7320514324476413 0  0.851745113044636 0.7180771006335368 0  0.8587883210224886 0.7054970295158031 0  0.8688474990993915 0.6951685298975775 0  0.8812371311160712 0.6877954717506622 0  0.8951128843755666 0.6838803166543564 0  0.9095291495041543 0.6836898758793285 0  0.923503482148383 0.6872371276458336 0  0.9360835549143599 0.6942803326797121 0  0.05460163735836486 0.1850487472764164 0  0.06600567179856157 0.1761321065432846 0  0.07933497189498522 0.1704851390016373 0  0.09367376748331965 0.1684958113381042 0  0.1080369324806472 0.1703007974146385 0  0.1214376665392713 0.1757760882897402 0  0.1329552917284643 0.1845455120723046 0  0.1417985063717886 0.1960065782639393 0  0.1473597502771549 0.2093718709918208 0  0.147394161880715 0.2379459288899959 0  0.1419314672699168 0.2512092787795752 0  0.1332373615653827 0.2626184859695 0  0.1218983264484882 0.2714039151179297 0  0.108679263636159 0.2769729241022949 0  0.09447189660725058 0.278949842110238 0  0.08023461726384062 0.2772013114122072 0  0.0131607216245031 0.2622306588830076 0  0.02667244003747291 0.2611867033198771 0  0.04017357225902224 0.2623596510703848 0  0.05330281860310741 0.2657181132371368 0  0 0.3519895167808221 0  0 0.3375685274478533 0  0 0.3231475381148845 0  0 0.3087265487819156 0  0 0.2943055594489469 0  0 0.279884570115978 0  0.008425804746360253 0.3751135117564395 0  0.01475158589861832 0.3854440967182649 0  0.01867302646995386 0.3969052832486918 0  0.01880962249704128 0.4203574514922827 0  0.04401419447728516 0.5329649639060212 0  0.03310816901665904 0.5239774037606122 0  0.0238884333034123 0.5132669368196683 0  0.01662329078459424 0.5011452482864469 0  0.01152416430807486 0.4879650913112198 0  0.008739443508127998 0.4741100215249823 0  0.008350166520003255 0.4599832351904445 0  0.01036766168987228 0.4459958357911736 0  0.06852563401182979 0.5469931420808204 0  0.07772577304179705 0.5557833647095973 0  0.08466998265248739 0.5664458468276121 0  0.08898964875868487 0.5784146001781143 0  0.08871954309105307 0.6047922792731993 0  0.08362087760996845 0.
[...]
<PointData  Tensors="$\sigma$"> 
<DataArray  type="Float64"  Name="$\sigma$"  NumberOfComponents="9" format="ascii">-3.9341908604135591e+05 -1.2273178454616836e+05 0.0000000000000000e+00 -1.2273178454616836e+05 -3.1618953186723578e+05 0.0000000000000000e+00 0.0000000000000000e+00 0.0000000000000000e+00 0.0000000000000000e+00  6.1053685942224255e+06 -2.8169415775118168e+06 0.0000000000000000e+00 -2.8169415775118168e+06 8.2950004221043678e+05 0.0000000000000000e+00 0.0000000000000000e+00 0.0000000000000000e+00 0.0000000000000000e+00  3.6907418661406753e+06 1.5803042810397868e+06 0.0000000000000000e+00 1.5803042810397868e+06 -1.7991776233274254e+05 0.0000000000000000e+00 0.0000000000000000e+00 0.0000000000000000e+00 0.0000000000000000e+00  2.7999817008132278e+06 4.6157179787838478e+06 0.0000000000000000e+00 4.6157179787838478e+06 4.8365458295704527e+06 0.0000000000000000e+00 0.0000000000000000e+00 0.0000000000000000e+00 0.0000000000000000e+00  -3.7803924356912877e+06 -3.7061509692016826e+06 0.0000000000000000e+00 -3.7061509692016826e+06 -1.4534601451222955e+06 0.0000000000000000e+00 0.0000000000000000e+00 0.0000000000000000e+00 0.0000000000000000e+00  -5.6154005151712131e+06 2.5987082914885366e+06 0.0000000000000000e+00 2.5987082914885366e+06 5.1056376964489784e+04 0.0000000000000000e+00 0.0000000000000000e+00 0.0000000000000000e+00 0.0000000000000000e+00  1.6740297442518792e+06 -1.3095663232445566e+06 0.0000000000000000e+00 -1.3095663232445566e+06 4.9355310660339915e+05 0.0000000000000000e+00 0.0000000000000000e+00 0.0000000000000000e+00 0.0000000000000000e+00  3.8476188993341534e+05 -1.8663087948526351e+06 0.0000000000000000e+00 -1.8663087948526351e+06 3.7260689604977686e+06 0.0000000000000000e+00 0.0000000000000000e+00 0.0000000000000000e+00 0.0000000000000000e+00  2.3804305831806615e+05 -4.9852807441074174e+05 0.0000000000000000e+00 -4.9852807441074174e+05 2.0653396261699102e+06 0.0000000000000000e+00 0.0000000000000000e+00 0.0000000000000000e+00 0.0000000000000000e+00  1.3364570353501412e+08 8.3271654523179261e+06 0.0000000000000000e+00 8.3271654523179261e+06 5.7165684278376698e+08 0.0000000000000000e+00 0.0000000000000000e+00 0.0000000000000000e+00 0.0000000000000000e+00  -2.6077151543216263e+06 -5.2285621108895121e+06 0.0000000000000000e+00 -5.2285621108895121e+06 2.3282154054161793e+05 0.0000000000000000e+00 0.0000000000000000e+00 0.0000000000000000e+00 0.0000000000000000e+00  -1.2570796917260174e+07 -4.6452868347600447e+06 0.0000000000000000e+00 -4.6452868347600447e+06 -6.0335736741231484e+06 0.0000000000000000e+00 0.0000000000000000e+00 0.0000000000000000e+00 0.0000000000000000e+00  -6.7813086699747397e+06 -2.6085127733534295e+06 0.0000000000000000e+00 -2.6085127733534295e+06 -6.1264379895868500e+04 0.0000000000000000e+00 0.0000000000000000e+00 0.0000000000000000e+00 0.0000000000000000e+00  -1.4244865624690588e+05 2.5860962644706914e+05 0.0000000000000000e+00 2.5860962644706914e+05 -2.0775273855283743e+05 0.0000000000000000e+00 0.0000000000000000e+00 0.0000000000000000e+00 0.0000000000000000e+00  4.8579562312137906e+05 -2.5154863980824040e+05 0.0000000000000000e+00 -2.5154863980824040e+05 -2.1633405052636713e+06 0.0000000000000000e+00 0.0000000000000000e+00 0.0000000000000000e+00 0.0000000000000000e+00  1.7648185236178073e+06 8.1703308370767452e+05 0.0000000000000000e+00 8.1703308370767452e+05 5.3866443147037931e+07 0.0000000000000000e+00 0.0000000000000000e+00 0.0000000000000000e+00 0.0000000000000000e+00  1.0688154250635470e+06 -7.0808634156786390e+06 0.0000000000000000e+00 -7.0808634156786390e+06 3.0511309766398229e+07 0.0000000000000000e+00 0.0000000000000000e+00 0.0000000000000000e+00 0.0000000000000000e+00  6.4383344025677834e+06 -9.7990705349531565e+06 0.0000000000000000e+00 -9.7990705349531565e+06 5.6998134177762950e+06 0.0000000000000000e+00 0.0000000000000000e+00 0.0000000000000000e+00 0.0000000000000000e+00  6.2467161088320659e+05 -3.5428683828162313e+06 0.0000000000000000e+00 -3.5428683828162313e+06 1.4814455292948470e+07 0.0000000000000000e+00 0.0000000000000000e+00 0.0000000000000000e+00 0.0000000000000000e+00  -3.1522086670326069e+07 -2.7265674244067460e+07 0.0000000000000000e+00 -2.7265674244067460e+07 -1.3972596033156540e+07 0.0000000000000000e+00 0.0000000000000000e+00 0.0000000000000000e+00 0.0000000000000000e+00  -7.3589161078686446e+07 -2.8755872011575993e+07 0.0000000000000000e+00 -2.8755872011575993e+07 -1.8383792601192471e+07 0.0000000000000000e+00 0.0000000000000000e+00 0.0000000000000000e+00 0.0000000000000000e+00  -8.3257860532439515e+07 -3.0512964588932306e+07 0.0000000000000000e+00 -3.0512964588932306e+07 -4.2196285350947184e+06 0.0000000000000000e+00 0.0000000000000000e+00 0.0000000000000000e+00 0.0000000000000000e+00  1.3501350683474721e+07 -1.5217876303269730e+06 0.0000000000000000e+00 -1.5217876303269730e+06 3.7169369557778388e+08 0.0000000000000000e+00 0.0000000000000000e+00 0.0000000000000000e+00 0.0000000000000000e+00  -5.4857403692994476e+03 -9.0395745060998597e+03 0.0000000000000000e+00 -9.0395745060998597e+03 -1.4178622565852236e+04 0.0000000000000000e+00 0.0000000000000000e+00 0.0000000000000000e+00 0.0000000000000000e+00  -1.1627872461307700e+02 -9.7970466944835394e+01 0.0000000000000000e+00 -9.7970466944835394e+01 5.1229333599040260e+01 0.0000000000000000e+00 0.0000000000000000e+00 0.0000000000000000e+00 0.0000000000000000e+00  9.2561363880465615e+03 -9.1810300505942778e+03 0.0000000000000000e+00 -9.1810300505942778e+03 4.7939443363301689e+03 0.0000000000000000e+00 0.0000000000000000e+00 0.0000000000000000e+00 0.0000000000000000e+00  -5.7723736730006067e+03 -2.8231251717796436e+04 0.0000000000000000e+00 -2.8231251717796436e+04 6.4311717622886954e+03 0.0000000000000000e+00 0.0000000000000000e+00 0.0000000000000000e+00 0.0000000000000000e+00  7.5396062218844218e+03 2.0329612897312909e+04 0.0000000000000000e+00 2.0329612897312909e+04 6.0077858355798526e+04 0.0000000000000000e+00 0.0000000000000000e+00 0.0000000000000000e+00 0.0000000000000000e+00  1.2952005771450363e+07 2.6312962109310977e+07 0.0000000000000000e+00 2.6312962109310977e+07 3.9030519624881339e+08 0.0000000000000000e+00 0.0000000000000000e+00 0.0000000000000000e+00 0.0000000000000000e+00  -3.9920871131195456e+07 -1.1628880522191027e+07 0.0000000000000000e+00 -1.1628880522191027e+07 -8.6625851128920549e+04 0.0000000000000000e+00 0.0000000000000000e+00 0.0000000000000000e+00 0.0000000000000000e+00  1.0540321698060235e+07 -4.8805726274921456e+06 0.0000000000000000e+00 -4.8805726274921456e+06 -7.0866727345302477e+06 0.0000000000000000e+00 0.0000000000000000e+00 0.0000000000000000e+00 0.0000000000000000e+00  -2.1395248096138388e+07 -5.3452349021871891e+06 0.0000000000000000e+00 -5.3452349021871891e+06 -1.5623694153921420e+06 0.0000000000000000e+00 0.0000000000000000e+00 0.0000000000000000e+00 0.0000000000000000e+00  2.6801592656816303e+05 -9.5338655058693653e+05 0.0000000000000000e+00 -9.5338655058693653e+05 1.0430684668766668e+06 0.0000000000000000e+00 0.0000000000000000e+00 0.0000000000000000e+00 0.0000000000000000e+00  -3.9877084088628406e+04 1.0164704726817228e+06 0.0000000000000000e+00 1.0164704726817228e+06 -6.9369257089345738e+07 0.0000000000000000e+00 0.0000000000000000e+00 0.0000000000000000e+00 0.0000000000000000e+00  -1.2700846009548601e+05 -4.5070897084719653e+05 0.0000000000000000e+00 -4.5070897084719653e+05 -4.0239879565917306e+07 0.0000000000000000e+00 0.0000000000000000e+00 0.0000000000000000e+00 0.0000000000000000e+00  8.2199898352938311e+04 1.2982717033316572e+05 0.0000000000000000e+00 1.2982717033316572e+05 1.8839453951156815e+05 0.0000000000000000e+00 0.0000000000000000e+00 0.0000000000000000e+00 0.0000000000000000e+00  6.7149677955334773e+03 -2.2655239958919887e+04 0.0000000000000000e+00 -2.2655239958919887e+04 4.8812069869458945e+04 0.0000000000000000e+00 0.0000000000000000e+00 0.0000000000000000e+00 0.0000000000000000e+00  -1.4479118352133678e+06 -4.0182413056626259e+06 0.0000000000000000e+00 -4.0182413056626259e+06 -8.7815798151386175e+06 0.0000000000000000e+00 0.0000000000000000e+00 0.0000000000000000e+00 0.0000000000000000e+00  -1.1450383372497717e+07 6.8833216366110042e+07 0.0000000000000000e+00 6.8833216366110042e+07 -2.1062677778945664e+08 0.0000000000000000e+00 0.0000000000000000e+00 0.0000000000000000e+00 0.0000000000000000e+00  -7.1267299359895498e+07 1.1022180052648227e+08 0.0000000000000000e+00 1.1022180052648227e+08 -1.5923609041725969e+08 0.0000000000000000e+00 0.0000000000000000e+00 0.0000000000000000e+00 0.0000000000000000e+00  -6.0893293391702035e+06 4.2964403607760735e+07 0.0000000000000000e+00 4.2964403607760735e+07 -1.7273490355293268e+08 0.0000000000000000e+00 0.0000000000000000e+00 0.0000000000000000e+00 0.0000000000000000e+00  6.2106053879166162e+06 -2.6193788005721909e+06 0.0000000000000000e+00 -2.6193788005721909e+06 -1.1925842273179667e+08 0.0000000000000000e+00 0.0000000000000000e+00 0.0000000000000000e+00 0.0000000000000000e+00  -1.1658931191202466e+08 -7.6163589471820787e+07 0.0000000000000000e+00 -7.6163589471820787e+07 -3.9764376827402316e+07 0.0000000000000000e+00 0.0000000000000000e+00 0.0000000000000000e+00 0.0000000000000000e+00  -1.9621590575625488e+08 -6.6821373653123565e+07 0.0000000000000000e+00 -6.6821373653123565e+07 -3.8780433563306443e+07 0.0000000000000000e+00 0.0000000000000000e+00 0.0000000000000000e+00 0.0000000000000000e+00  -1.4644034255407330e+08 -7.0983049483157605e+07 0.0000000000000000e+00 -7.0983049483157605e+07 -1.5734744135712482e+07 0.0000000000000000e+00 0.0000000000000000e+00 0.0000000000000000e+00 0.0000000000000000e+00  2.5759427964419365e+05 1.4501645543309376e+04 0.0000000000000000e+00 1.4501645543309376e+04 -8.8486605276668663e+04 0.0000000000000000e+00 0.0000000000000000e+00 0.0000000000000000e+00 0.0000000000000000e+00  -8.6902396079399157e+04 -1.9890050582513231e+04 0.0000000000000000e+00 -1.9890050582513231e+04 -6.8154401811404590e+04 0.0000000000000000e+00 0.0000000000000000e+00 0.0000000000000000e+00 0.0000000000000000e+00  -5.6482443469591690e+06 2.2094722204605131e+06 0.0000000000000000e+00 2.2094722204605131e+06 -5.8751246842386248e+05 0.0000000000000000e+00 0.0000000000000000e+00 0.0000000000000000e+00 0.0000000000000000e+00  -3.2991409510126030e+06 3.0650956148620900e+06 0.0000000000000000e+00 3.0650956148620900e+06 -4.0280001046643183e+06 0.0000000000000000e+00 0.0000000000000000e+00 0.0000000000000000e+00 0.0000000000000000e+00  -8.7496709988756720e+06 5.6747940815203115e+06 0.0000000000000000e+00 5.6747940815203115e+06 -1.3886819312727514e+06 0.0000000000000000e+00 0.0000000000000000e+00 0.0000000000000000e+00 0.0000000000000000e+00  5.0157863045154139e+05 6.0364282755336433e+05 0.0000000000000000e+00 6.0364282755336433e+05 1.4808756551621812e+06 0.0000000000000000e+00 0.0000000000000000e+00 0.0000000000000000e+00 0.0000000000000000e+00  9.8591557948274701e+05 2.0175259820345449e+06 0.0000000000000000e+00 2.0175259820345449e+06 3.2796340844984804e+06 0.0000000000000000e+00 0.0000000000000000e+00 0.0000000000000000e+00 0.0000000000000000e+00  9.6186056311311421e+05 9.7109340601751092e+05 0.0000000000000000e+00 9.7109340601751092e+05 7.1590666351725569e+05 0.0000000000000000e+00 0.0000000000000000e+00 0.0000000000000000e+00 0.0000000000000000e+00  -2.4487081099846491e+04 6.9060290742559619e+03 0.0000000000000000e+00 6.9060290742559619e+03 3.3734347777632420e+03 0.0000000000000000e+00 0.0000000000000000e+00 0.0000000000000000e+00 0.0000000000000000e+00  -3.0929162728026428e+05 4.4115778375913238e+05 0.0000000000000000e+00 4.4115778375913238e+05 -3.8855763856832609e+07 0.0000000000000000e+00 0.0000000000000000e+00 0.0000000000000000e+00 0.0000000000000000e+00  -9.2372346244667564e+06 -2.1319732538585057e+06 0.0000000000000000e+00 -2.1319732538585057e+06 -4.6414472818636812e+07 0.0000000000000000e+00 0.0000000000000000e+00 0.0000000000000000e+00 0.0000000000000000e+00  -1.9110168500818811e+04 -3.7233741122207539e+03 0.0000000000000000e+00 -3.7233741122207539e+03 -2.4897392108747430e+04 0.0000000000000000e+00 0.0000000000000000e+00 0.0000000000000000e+00 0.0000000000000000e+00  -8.2300921072166428e+07 -3.1327366066270318e+07 0.0000000000000000e+00 -3.1327366066270318e+07 -9.8131513571148720e+06 0.0000000000000000e+00 0.0000000000000000e+00 0.0000000000000000e+00 0.0000000000000000e+00  1.1415495133105867e+07 9.3308039231440537e+06 0.0000000000000000e+00 9.3308039231440537e+06 1.3389552035639565e+08 0.0000000000000000e+00 0.0000000000000000e+00 0.0000000000000000e+00 0.0000000000000000e+00  -1.2176431084410971e+08 -6.1221793703912474e+07 0.0000000000000000e+00 -6.1221793703912474e+07 -3.9423884908413336e+07 0.0000000000000000e+00 0.0000000000000000e+00 0.0000000000000000e+00 0.0000000000000000e+00  -7.4068751243966240e+06 2.9611978053045932e+07 0.0000000000000000e+00 2.9611978053045932e+07 -6.3676238766066946e+07 0.0000000000000000e+00 0.0000000000000000e+00 0.0000000000000000e+00 0.0000000000000000e+00  -6.6057433603583232e+07 -4.9545967159745097e+07 0.0000000000000000e+00 -4.9545967159745097e+07 -2.3217827002690300e+07 0.0000000000000000e+00 0.0000000000000000e+00 0.0000000000000000e+00 0.0000000000000000e+00  -2.8698557033902019e+07 3.7174860865621492e+07 0.0000000000000000e+00 3.7174860865621492e+07 -6.0128764923553765e+07 0.0000000000000000e+00 0.0000000000000000e+00 0.0000000000000000e+00 0.0000000000000000e+00  -2.7721250777049153e+06 1.4074836492305191e+07 0.0000000000000000e+00 1.4074836492305191e+07 -2.7380285658469997e+07 0.0000000000000000e+00 0.0000000000000000e+00 0.0000000000000000e+00 0.0000000000000000e+00  -5.9634360778739573e+06 2.3024957174857315e+07 0.0000000000000000e+00 2.3024957174857315e+07 -6.1048739819683954e+07 0.0000000000000000e+00 0.0000000000000000e+00 0.0000000000000000e+00 0.0000000000000000e+00  -5.7540506336916946e+06 1.9145786129073501e+07 0.0000000000000000e+00 1.9145786129073501e+07 -6.4254928753229290e+07 0.0000000000000000e+00 0.0000000000000000e+00 0.0000000000000000e+00 0.0000000000000000e+00  4.2045486721943803e+06 5.5540661970513302e+05 0.0000000000000000e+00 5.5540661970513302e+05 -6.9587066609414965e+07 0.0000000000000000e+00 0.0000000000000000e+00 0.0000000000000000e+00 0.0000000000000000e+00  -1.1883588322874270e+07 4.7965640506695695e+06 0.0000000000000000e+00 4.7965640506695695e+06 2.0464509776833452e+07 0.0000000000000000e+00 0.0000000000000000e+00 0.0000000000000000e+00 0.0000000000000000e+00  -1.5482367487394428e+08 -1.3952998354083505e+08 0.0000000000000000e+00 -1.3952998354083505e+08 -9.0361656682801679e+07 0.0000000000000000e+00 0.0000000000000000e+00 0.0000000000000000e+00 0.0000000000000000e+00  4.6155167746543204e+06 1.8633234768468872e+07 0.0000000000000000e+00 1.8633234768468872e+07 1.4837480520652610e+08 0.0000000000000000e+00 0.0000000000000000e+00 0.0000000000000000e+00 0.0000000000000000e+00  -3.1934857790228450e+08 -1.0886604979104419e+08 0.0000000000000000e+00 -1.0886604979104419e+08 -3.9081722016834997e+07 0.0000000000000000e+00 0.0000000000000000e+00 0.0000000000000000e+00 0.0000000000000000e+00  -2.5643299763569799e+08 -1.5180642872798881e+08 0.0000000000000000e+00 -1.5180642872798881e+08 -8.5995209736097112e+07 0.0000000000000000e+00 0.0000000000000000e+00 0.0000000000000000e+00 0.0000000000000000e+00  -6.9947107948282689e+07 2.5217212143002421e+07 0.0000000000000000e+00 2.5217212143002421e+07 -4.7675516284377789e+06 0.0000000000000000e+00 0.0000000000000000e+00 0.0000000000000000e+00 0.0000000000000000e+00  -6.7549187799558774e+07 4.5244570325580113e+07 0.0000000000000000e+00 4.5244570325580113e+07 -3.3984794604311429e+07 0.0000000000000000e+00 0.0000000000000000e+00 0.0000000000000000e+00 0.0000000000000000e+00  -6.1097678137210146e+07 -8.4376053540441245e+07 0.0000000000000000e+00 -8.4376053540441245e+07 -9.6289156663195387e+07 0.0000000000000000e+00 0.0000000000000000e+00 0.0000000000000000e+00 0.0000000000000000e+00  -7.7256837917169154e+07 3.7377478791688032e+07 0.0000000000000000e+00 3.7377478791688032e+07 -1.3922646859170854e+07 0.0000000000000000e+00 0.0000000000000000e+00 0.0000000000000000e+00 0.0000000000000000e+00  -1.2821590321605939e+07 -5.8209796161417671e+07 0.0000000000000000e+00 -5.8209796161417671e+07 -1.9720563530439824e+08 0.0000000000000000e+00 0.0000000000000000e+00 0.0000000000000000e+00 0.0000000000000000e+00  -1.5159844101853512e+07 -2.2391571341234345e+07 0.0000000000000000e+00 -2.2391571341234345e+07 -2.9144430721000150e+07 0.0000000000000000e+00 0.0000000000000000e+00 0.0000000000000000e+00 0.0000000000000000e+00  -7.3274507105269387e+07 -1.2290407325847904e+08 0.0000000000000000e+00 -1.2290407325847904e+08 -1.7591401542392233e+08 0.0000000000000000e+00 0.0000000000000000e+00 0.0000000000000000e+00 0.0000000000000000e+00  1.0770699271867170e+06 -5.5986321944915634e+06 0.0000000000000000e+00 -5.5986321944915634e+06 -2.6630408073157262e+07 0.0000000000000000e+00 0.0000000000000000e+00 0.0000000000000000e+00 0.0000000000000000e+00  3.2809309539637085e+07 -2.8691652761261173e+07 0.0000000000000000e+00 -2.8691652761261173e+07 4.0108039161520267e+08 0.0000000000000000e+00 0.0000000000000000e+00 0.0000000000000000e+00 0.0000000000000000e+00  -8.8548799181360081e+06 -1.3405719430188231e+07 0.0000000000000000e+00 -1.3405719430188231e+07 -1.7357902525198471e+07 0.0000000000000000e+00 0.0000000000000000e+00 0.0000000000000000e+00 0.0000000000000000e+00  -5.9835973791442953e+07 1.6098124285798363e+07 0.0000000000000000e+00 1.6098124285798363e+07 -4.3768366099379417e+06 0.0000000000000000e+00 0.0000000000000000e+00 0.0000000000000000e+00 0.0000000000000000e+00  -3.4993283877766415e+07 1.0011575568344096e+07 0.0000000000000000e+00 1.0011575568344096e+07 -2.7700091136525287e+06 0.0000000000000000e+00 0.0000000000000000e+00 0.0000000000000000e+00 0.0000000000000000e+00  -8.1475156542741889e+06 2.2747695136364046e+07 0.0000000000000000e+00 2.2747695136364046e+07 -1.6601559459998270e+07 0.0000000000000000e+00 0.0000000000000000e+00 0.0000000000000000e+00 0.0000000000000000e+00  -2.0856509301272098e+07 -3.1484006136057951e+07 0.0000000000000000e+00 -3.1484006136057951e+07 -3.7687922586732566e+07 0.0000000000000000e+00 0.0000000000000000e+00 0.0000000000000000e+00 0.0000000000000000e+00  -5.0937003301209118e+05 -2.1783232944921786e+06 0.0000000000000000e+00 -2.1783232944921786e+06 2.0532970416440453e+07 0.0000000000000000e+00 0.0000000000000000e+00 0.0000000000000000e+00 0.0000000000000000e+00  -3.4041611362842962e+07 -3.6271567693192333e+07 0.0000000000000000e+00 -3.6271567693192333e+07 -5.0387435609925091e+07 0.0000000000000000e+00 0.0000000000000000e+00 0.0000000000000000e+00 0.0000000000000000e+00  -6.2036688404827133e+07 6.8601067506013900e+07 0.0000000000000000e+00 6.8601067506013900e+07 -3.9368152683881536e+07 0.0000000000000000e+00 0.0000000000000000e+00 0.0000000000000000e+00 0.0000000000000000e+00  -1.2968492020471441e+07 -2.9137460617767584e+07 0.0000000000000000e+00 -2.9137460617767584e+07 -4.6380955733463474e+07 0.0000000000000000e+00 0.0000000000000000e+00 0.0000000000000000e+00 0.0000000000000000e+00  -7.2788856574678108e+07 2.1941482266769022e+07 0.0000000000000000e+00 2.1941482266769022e+07 -8.1594974829656510e+06 0.0000000000000000e+00 0.0000000000000000e+00 0.0000000000000000e+00 0.0000000000000000e+00  -5.2601594665828243e+07 8.0275972273121819e+07 0.0000000000000000e+00 8.0275972273121819e+07 -1.0354623093113072e+08 0.0000000000000000e+00 0.0000000000000000e+00 0.0000000000000000e+00 0.0000000000000000e+00  -2.1323116839810506e+07 3.5193134631721288e+07 0.0000000000000000e+00 3.5193134631721288e+07 -4.7456421586390644e+07 0.0000000000000000e+00 0.0000000000000000e+00 0.0000000000000000e+00 0.0000000000000000e+00  -1.7624744323223364e+08 1.0173198343881853e+08 0.0000000000000000e+00 1.0173198343881853e+08 -6.3627093320675075e+07 0.0000000000000000e+00 0.0000000000000000e+00 0.0000000000000000e+00 0.0000000000000000e+00  4.1758719976730517e+05 -9.6461788122650434e+05 0.0000000000000000e+00 -9.6461788122650434e+05 4.2847