<?xml version="1.0"?>
<VTKFile type="UnstructuredGrid"  version="0.1"  >
<UnstructuredGrid>
<Piece  NumberOfPoints="3760" NumberOfCells="6810">
<Points>
<DataArray  type="Float64"  NumberOfComponents="3"  format="ascii">-2.775557561562891e-17 0.125 0  1.036684922043989e-15 0.375 0  2.350294211084675e-15 0.4166666666666667 0  2.40356326168254e-15 0.5833333333333334 0  0 0.625 0  -1.035731390589637e-15 0.875 0  0 1 0  1 1 0  0.999999999999999 0.875 0  1 0.625 0  1.000000000000002 0.5833333333333334 0  0.875 0.5 0  1.000000000000002 0.4166666666666667 0  0.999999999999999 0.375 0  1 0.125 0  1 0 0  0 0 0  0.1249999999999999 0.25 0  0.5 0.125 0  0.625 0.25 0  0.75 0.3749999999999999 0  0.25 0.375 0  0.3749999999999999 0.5 0  0.125 0.75 0  0.5 0.625 0  0.6249999999999999 0.7500000000000001 0  0.01421456164638979 0.1268319074041405 0  0.02757395209778554 0.1320412206622784 0  0.03953629808993711 0.1399637216640658 0  0.04990407138247952 0.1498922418902118 0  0.05868592778689859 0.1612536523031535 0  0.06597227776977428 0.1736309501617152 0  0.07186964270378177 0.1867291731548482 0  0.07647396125062253 0.200337138484214 0  0.07986210415712619 0.2142984633511142 0  0.08209043749640391 0.2284916257887711 0  0.08319560572493737 0.2428163259305053 0  0.08319560572493737 0.2571836740694943 0  0.08209043749640395 0.2715083742112285 0  0.07986210415712627 0.2857015366488854 0  0.07647396125062265 0.2996628615157856 0  0.07186964270378192 0.3132708268451514 0  0.06597227776977437 0.3263690498382846 0  0.05868592778689877 0.3387463476968463 0  0.04990407138247987 0.3501077581097879 0  0.03953629808993774 0.3600362783359337 0  0.02757395209778642 0.3679587793377213 0  0.01421456164639007 0.3731680925958594 0  0 0.4027777777777778 0  0 0.3888888888888888 0  0.01435674118360327 0.4172181340775999 0  0.02862729784477598 0.4188814918554163 0  0.04271814026554224 0.4216839437712562 0  0.05651977576908546 0.4256718538521023 0  0.06989528335112015 0.4309118136316052 0  0.08266387441426774 0.4374906802794898 0  0.09457675683955338 0.4455115218470221 0  0.1052830616068754 0.4550779591901066 0  0.11429039752184 0.4662512220185033 0  0.1209486347673732 0.4789558374638416 0  0.1245370395181631 0.4928344717787489 0  0.1245370395181632 0.5071655282212506 0  0.1209486347673734 0.5210441625361578 0  0.1142903975218402 0.5337487779814962 0  0.1052830616068758 0.5449220408098929 0  0.0945767568395538 0.5544884781529775 0  0.08266387441426826 0.5625093197205099 0  0.06989528335112086 0.5690881863683945 0  0.05651977576908624 0.5743281461478975 0  0.04271814026554287 0.5783160562287436 0  0.02862729784477676 0.5811185081445835 0  0.01435674118360396 0.5827818659224001 0  0 0.6111111111111112 0  0 0.5972222222222223 0  0.01421456164638979 0.6268319074041405 0  0.02757395209778554 0.6320412206622783 0  0.03953629808993711 0.6399637216640658 0  0.04990407138247952 0.6498922418902118 0  0.05868592778689859 0.6612536523031535 0  0.06597227776977428 0.6736309501617153 0  0.07186964270378177 0.6867291731548482 0  0.07647396125062253 0.7003371384842141 0  0.07986210415712619 0.7142984633511142 0  0.08209043749640391 0.7284916257887711 0  0.08319560572493737 0.7428163259305054 0  0.08319560572493737 0.7571836740694943 0  0.08209043749640395 0.7715083742112285 0  0.07986210415712627 0.7857015366488854 0  0.07647396125062265 0.7996628615157856 0  0.07186964270378192 0.8132708268451514 0  0.06597227776977437 0.8263690498382846 0  0.05868592778689877 0.8387463476968463 0  0.04990407138247987 0.8501077581097879 0  0.03953629808993774 0.8600362783359337 0  0.02757395209778642 0.8679587793377213 0  0.01421456164639007 0.8731680925958594 0  0 0.986111111111111 0  0 0.9722222222222222 0  0 0.9583333333333333 0  0 0.9444444444444443 0  0 0.9305555555555555 0  0 0.9166666666666666 0  0 0.9027777777777778 0  0 0.888888888888889 0  0.9850746268656716 1 0  0.9701492537313432 1 0  0.9552238805970149 1 0  0.9402985074626865 1 0  0.9253731343283581 1 0  0.9104477611940297 1 0  0.8955223880597013 1 0  0.8805970149253729 1 0  0.8656716417910446 1 0  0.8507462686567162 1 0  0.8358208955223878 1 0  0.8208955223880595 1 0  0.8059701492537311 1 0  0.7910447761194028 1 0  0.7761194029850744 1 0  0.761194029850746 1 0  0.7462686567164176 1 0  0.7313432835820892 1 0  0.7164179104477608 1 0  0.7014925373134324 1 0  0.686567164179104 1 0  0.6716417910447756 1 0  0.6567164179104472 1 0  0.6417910447761187 1 0  0.6268656716417904 1 0  0.6119402985074619 1 0  0.5970149253731335 1 0  0.5820895522388051 1 0  0.5671641791044766 1 0  0.5522388059701483 1 0  0.5373134328358198 1 0  0.5223880597014914 1 0  0.5074626865671631 1 0  0.4925373134328348 1 0  0.4776119402985064 1 0  0.4626865671641782 1 0  0.4477611940298498 1 0  0.4328358208955215 1 0  0.4179104477611932 1 0  0.4029850746268649 1 0  0.3880597014925365 1 0  0.3731343283582083 1 0  0.35820895522388 1 0  0.3432835820895517 1 0  0.3283582089552233 1 0  0.3134328358208951 1 0  0.2985074626865667 1 0  0.2835820895522384 1 0  0.2686567164179101 1 0  0.2537313432835818 1 0  0.2388059701492535 1 0  0.2238805970149251 1 0  0.208955223880597 1 0  0.1940298507462686 1 0  0.1791044776119403 1 0  0.164179104477612 1 0  0.1492537313432837 1 0  0.1343283582089553 1 0  0.1194029850746271 1 0  0.1044776119402987 1 0  0.08955223880597041 1 0  0.07462686567164201 1 0  0.05970149253731383 1 0  0.04477611940298543 1 0  0.02985074626865714 1 0  0.01492537313432851 1 0  1 0.888888888888889 0  1 0.9027777777777778 0  1 0.9166666666666667 0  1 0.9305555555555557 0  1 0.9444444444444445 0  1 0.9583333333333334 0  1 0.9722222222222222 0  1 0.986111111111111 0  0.9857854383536102 0.8731680925958595 0  0.9724260479022144 0.8679587793377217 0  0.9604637019100628 0.8600362783359341 0  0.9500959286175203 0.8501077581097881 0  0.9413140722131014 0.8387463476968464 0  0.9340277222302256 0.8263690498382845 0  0.9281303572962182 0.8132708268451515 0  0.9235260387493774 0.7996628615157857 0  0.9201378958428738 0.7857015366488854 0  0.917909562503596 0.7715083742112285 0  0.9168043942750627 0.7571836740694943 0  0.9168043942750627 0.7428163259305052 0  0.9179095625035961 0.7284916257887709 0  0.9201378958428739 0.714298463351114 0  0.9235260387493776 0.7003371384842139 0  0.9281303572962183 0.686729173154848 0  0.9340277222302258 0.6736309501617149 0  0.9413140722131015 0.6612536523031534 0  0.9500959286175206 0.6498922418902117 0  0.9604637019100629 0.6399637216640658 0  0.9724260479022147 0.6320412206622782 0  0.9857854383536104 0.6268319074041404 0  1 0.5972222222222222 0  1 0.6111111111111112 0  0.9862403473381717 0.5828269198285083 0  0.9725564199219405 0.5813001295953569 0  0.9590298534989715 0.57873005100605 0  0.9457550410459539 0.5750776913990474 0  0.9328480607636523 0.570287084499684 0  0.9204592140434855 0.5642850021196233 0  0.9087911563809672 0.5569832211003236 0  0.898124562490293 0.5482880027989736 0  0.8888501658583794 0.5381267731553577 0  0.8814932504600693 0.5265091205560999 0  0.876684380078502 0.5136342360479728 0  0.8766843800785019 0.4863657639520274 0  0.8814932504600692 0.4734908794439002 0  0.8888501658583795 0.4618732268446422 0  0.898124562490293 0.4517119972010264 0  0.9087911563809672 0.4430167788996764 0  0.9204592140434855 0.4357149978803767 0  0.9328480607636525 0.429712915500316 0  0.9457550410459538 0.4249223086009526 0  0.9590298534989716 0.42126994899395 0  0.9725564199219408 0.418699870404643 0  0.9862403473381718 0.4171730801714916 0  1 0.3888888888888889 0  1 0.4027777777777778 0  0.9857854383536102 0.3731680925958595 0  0.9724260479022144 0.3679587793377216 0  0.9604637019100628 0.3600362783359341 0  0.9500959286175203 0.3501077581097881 0  0.9413140722131014 0.3387463476968464 0  0.9340277222302256 0.3263690498382846 0  0.9281303572962182 0.3132708268451515 0  0.9235260387493774 0.2996628615157857 0  0.9201378958428738 0.2857015366488854 0  0.917909562503596 0.2715083742112285 0  0.9168043942750627 0.2571836740694943 0  0.9168043942750627 0.2428163259305051 0  0.9179095625035961 0.2284916257887709 0  0.9201378958428739 0.214298463351114 0  0.9235260387493776 0.2003371384842139 0  0.9281303572962183 0.186729173154848 0  0.9340277222302258 0.173630950161715 0  0.9413140722131015 0.1612536523031534 0  0.9500959286175206 0.1498922418902117 0  0.9604637019100629 0.1399637216640658 0  0.9724260479022147 0.1320412206622782 0  0.9857854383536104 0.1268319074041405 0  1 0.01388888888888891 0  1 0.0277777777777778 0  1 0.04166666666666673 0  1 0.05555555555555568 0  1 0.06944444444444456 0  1 0.08333333333333338 0  1 0.09722222222222224 0  1 0.1111111111111111 0  0.01492537313432838 0 0  0.02985074626865675 0 0  0.04477611940298513 0 0  0.05970149253731351 0 0  0.0746268656716419 0 0  0.08955223880597028 0 0  0.1044776119402987 0 0  0.1194029850746271 0 0  0.1343283582089554 0 0  0.1492537313432838 0 0  0.1641791044776121 0 0  0.1791044776119405 0 0  0.1940298507462689 0 0  0.2089552238805972 0 0  0.2238805970149256 0 0  0.2388059701492539 0 0  0.2537313432835824 0 0  0.2686567164179108 0 0  0.2835820895522392 0 0  0.2985074626865676 0 0  0.313432835820896 0 0  0.3283582089552244 0 0  0.3432835820895528 0 0  0.3582089552238813 0 0  0.3731343283582096 0 0  0.3880597014925381 0 0  0.4029850746268665 0 0  0.4179104477611949 0 0  0.4328358208955234 0 0  0.4477611940298517 0 0  0.4626865671641802 0 0  0.4776119402985086 0 0  0.4925373134328369 0 0  0.5074626865671652 0 0  0.5223880597014936 0 0  0.5373134328358218 0 0  0.5522388059701502 0 0  0.5671641791044785 0 0  0.5820895522388068 0 0  0.5970149253731351 0 0  0.6119402985074635 0 0  0.6268656716417917 0 0  0.64179104477612 0 0  0.6567164179104483 0 0  0.6716417910447767 0 0  0.6865671641791049 0 0  0.7014925373134333 0 0  0.7164179104477616 0 0  0.7313432835820899 0 0  0.7462686567164182 0 0  0.7611940298507465 0 0  0.7761194029850749 0 0  0.791044776119403 0 0  0.8059701492537314 0 0  0.8208955223880597 0 0  0.835820895522388 0 0  0.8507462686567163 0 0  0.8656716417910447 0 0  0.8805
[...]
<PointData  Tensors="$\sigma$"> 
<DataArray  type="Float64"  Name="$\sigma$"  NumberOfComponents="9" format="ascii">-1.3068730298800694e+06 -1.8631168340941309e+06 0.0000000000000000e+00 -1.8631168340941309e+06 1.3701993123037473e+05 0.0000000000000000e+00 0.0000000000000000e+00 0.0000000000000000e+00 0.0000000000000000e+00  -2.3139420201822839e+05 9.7276798546066522e+04 0.0000000000000000e+00 9.7276798546066522e+04 -3.2657999430066277e+05 0.0000000000000000e+00 0.0000000000000000e+00 0.0000000000000000e+00 0.0000000000000000e+00  -9.9475043721137336e+04 -1.2283121706222289e+05 0.0000000000000000e+00 -1.2283121706222289e+05 -4.2842260777939868e+05 0.0000000000000000e+00 0.0000000000000000e+00 0.0000000000000000e+00 0.0000000000000000e+00  -1.5858235538173546e+05 2.2884373039096117e+05 0.0000000000000000e+00 2.2884373039096117e+05 -3.0165844810958230e+05 0.0000000000000000e+00 0.0000000000000000e+00 0.0000000000000000e+00 0.0000000000000000e+00  -1.0598733847381413e+05 -2.8101174210999918e+04 0.0000000000000000e+00 -2.8101174210999918e+04 -2.8185080924056855e+05 0.0000000000000000e+00 0.0000000000000000e+00 0.0000000000000000e+00 0.0000000000000000e+00  -8.9914003501780389e+05 1.8732084104311371e+06 0.0000000000000000e+00 1.8732084104311371e+06 -3.3940190598409761e+04 0.0000000000000000e+00 0.0000000000000000e+00 0.0000000000000000e+00 0.0000000000000000e+00  -1.6275807432422109e+05 -2.2561500965859994e+05 0.0000000000000000e+00 -2.2561500965859994e+05 6.6305101328571595e+07 0.0000000000000000e+00 0.0000000000000000e+00 0.0000000000000000e+00 0.0000000000000000e+00  4.3903808872609545e+05 2.0744050545992938e+05 0.0000000000000000e+00 2.0744050545992938e+05 6.5352641689543016e+07 0.0000000000000000e+00 0.0000000000000000e+00 0.0000000000000000e+00 0.0000000000000000e+00  -1.4200225530655049e+06 -2.3972536207104190e+06 0.0000000000000000e+00 -2.3972536207104190e+06 6.0277447746985778e+05 0.0000000000000000e+00 0.0000000000000000e+00 0.0000000000000000e+00 0.0000000000000000e+00  -2.0029513697459563e+05 -2.9417428264655715e+04 0.0000000000000000e+00 -2.9417428264655715e+04 -1.1389353987042197e+05 0.0000000000000000e+00 0.0000000000000000e+00 0.0000000000000000e+00 0.0000000000000000e+00  4.6536494137029476e+04 -7.3224690497612639e+04 0.0000000000000000e+00 -7.3224690497612639e+04 -2.4350359792696123e+05 0.0000000000000000e+00 0.0000000000000000e+00 0.0000000000000000e+00 0.0000000000000000e+00  1.4847066196577203e+08 1.4209166914492102e+07 0.0000000000000000e+00 1.4209166914492102e+07 5.3948450575705719e+08 0.0000000000000000e+00 0.0000000000000000e+00 0.0000000000000000e+00 0.0000000000000000e+00  5.5925415619382002e+04 8.7198529783384627e+04 0.0000000000000000e+00 8.7198529783384627e+04 -2.2249580875574821e+05 0.0000000000000000e+00 0.0000000000000000e+00 0.0000000000000000e+00 0.0000000000000000e+00  -1.8163556717560883e+05 2.3536542207317554e+04 0.0000000000000000e+00 2.3536542207317554e+04 -1.0698404895410381e+05 0.0000000000000000e+00 0.0000000000000000e+00 0.0000000000000000e+00 0.0000000000000000e+00  7.1482188435714541e+05 -6.5184444416964380e+05 0.0000000000000000e+00 -6.5184444416964380e+05 -7.0290380587091367e+05 0.0000000000000000e+00 0.0000000000000000e+00 0.0000000000000000e+00 0.0000000000000000e+00  -1.3276835607572907e+05 -2.4748600553257478e+05 0.0000000000000000e+00 -2.4748600553257478e+05 6.6218321311480604e+07 0.0000000000000000e+00 0.0000000000000000e+00 0.0000000000000000e+00 0.0000000000000000e+00  1.6982980906964902e+07 2.5597348453311240e+06 0.0000000000000000e+00 2.5597348453311240e+06 6.8707338198258877e+07 0.0000000000000000e+00 0.0000000000000000e+00 0.0000000000000000e+00 0.0000000000000000e+00  9.0631139549708545e+07 1.5872509308632266e+07 0.0000000000000000e+00 1.5872509308632266e+07 5.3690590123801816e+08 0.0000000000000000e+00 0.0000000000000000e+00 0.0000000000000000e+00 0.0000000000000000e+00  -5.7990864475067947e+06 -5.8805836028795980e+05 0.0000000000000000e+00 -5.8805836028795980e+05 4.1287757763768226e+05 0.0000000000000000e+00 0.0000000000000000e+00 0.0000000000000000e+00 0.0000000000000000e+00  5.8296980250149503e+07 1.5883955786139706e+07 0.0000000000000000e+00 1.5883955786139706e+07 5.0020247942189956e+08 0.0000000000000000e+00 0.0000000000000000e+00 0.0000000000000000e+00 0.0000000000000000e+00  3.0737964832825929e+08 8.8540678274494652e+06 0.0000000000000000e+00 8.8540678274494652e+06 2.2829264092646625e+07 0.0000000000000000e+00 0.0000000000000000e+00 0.0000000000000000e+00 0.0000000000000000e+00  3.0686732966794121e+08 -1.5598783700587463e+07 0.0000000000000000e+00 -1.5598783700587463e+07 2.3677267818030335e+07 0.0000000000000000e+00 0.0000000000000000e+00 0.0000000000000000e+00 0.0000000000000000e+00  1.3817435315229124e+08 1.4400498575914919e+07 0.0000000000000000e+00 1.4400498575914919e+07 5.3928893363906014e+08 0.0000000000000000e+00 0.0000000000000000e+00 0.0000000000000000e+00 0.0000000000000000e+00  9.1554636984214708e+07 -1.4482237866792966e+07 0.0000000000000000e+00 -1.4482237866792966e+07 5.1682304536506861e+08 0.0000000000000000e+00 0.0000000000000000e+00 0.0000000000000000e+00 0.0000000000000000e+00  1.9494141696700850e+08 -2.3266292548331586e+06 0.0000000000000000e+00 -2.3266292548331586e+06 1.5029325037349610e+07 0.0000000000000000e+00 0.0000000000000000e+00 0.0000000000000000e+00 0.0000000000000000e+00  8.7255962666283116e+07 -1.5282711334337020e+07 0.0000000000000000e+00 -1.5282711334337020e+07 5.1325173042412442e+08 0.0000000000000000e+00 0.0000000000000000e+00 0.0000000000000000e+00 0.0000000000000000e+00  2.2124210223707077e+06 3.0847922473285464e+06 0.0000000000000000e+00 3.0847922473285464e+06 5.8260536803616760e+06 0.0000000000000000e+00 0.0000000000000000e+00 0.0000000000000000e+00 0.0000000000000000e+00  2.9763195158827182e+07 2.3602186907905240e+07 0.0000000000000000e+00 2.3602186907905240e+07 2.0592046179017715e+07 0.0000000000000000e+00 0.0000000000000000e+00 0.0000000000000000e+00 0.0000000000000000e+00  4.9599993111302435e+07 4.7970232672471471e+07 0.0000000000000000e+00 4.7970232672471471e+07 5.5388977908358499e+07 0.0000000000000000e+00 0.0000000000000000e+00 0.0000000000000000e+00 0.0000000000000000e+00  6.5695700022380680e+07 7.5213974832109183e+07 0.0000000000000000e+00 7.5213974832109183e+07 1.0196404826030202e+08 0.0000000000000000e+00 0.0000000000000000e+00 0.0000000000000000e+00 0.0000000000000000e+00  6.4967606030910455e+07 9.4513383426211506e+07 0.0000000000000000e+00 9.4513383426211506e+07 1.6145144899662712e+08 0.0000000000000000e+00 0.0000000000000000e+00 0.0000000000000000e+00 0.0000000000000000e+00  5.3408253458935156e+07 9.8604882567197114e+07 0.0000000000000000e+00 9.8604882567197114e+07 2.1387002203933442e+08 0.0000000000000000e+00 0.0000000000000000e+00 0.0000000000000000e+00 0.0000000000000000e+00  4.2734885600382157e+07 9.5703265985278726e+07 0.0000000000000000e+00 9.5703265985278726e+07 2.6053068939919302e+08 0.0000000000000000e+00 0.0000000000000000e+00 0.0000000000000000e+00 0.0000000000000000e+00  2.6051635628813334e+07 7.9600482622667596e+07 0.0000000000000000e+00 7.9600482622667596e+07 2.8343697592202049e+08 0.0000000000000000e+00 0.0000000000000000e+00 0.0000000000000000e+00 0.0000000000000000e+00  1.9997069251238301e+07 6.7172239757501543e+07 0.0000000000000000e+00 6.7172239757501543e+07 2.6938120969922864e+08 0.0000000000000000e+00 0.0000000000000000e+00 0.0000000000000000e+00 0.0000000000000000e+00  8.9747889148843195e+06 4.9239731105326161e+07 0.0000000000000000e+00 4.9239731105326161e+07 2.1360810889888397e+08 0.0000000000000000e+00 0.0000000000000000e+00 0.0000000000000000e+00 0.0000000000000000e+00  1.6114448618432941e+07 2.0014189387188554e+07 0.0000000000000000e+00 2.0014189387188554e+07 1.0168328445631973e+08 0.0000000000000000e+00 0.0000000000000000e+00 0.0000000000000000e+00 0.0000000000000000e+00  1.5790164705809226e+07 2.4741932974586446e+07 0.0000000000000000e+00 2.4741932974586446e+07 2.5045149079346821e+07 0.0000000000000000e+00 0.0000000000000000e+00 0.0000000000000000e+00 0.0000000000000000e+00  5.0821923734824389e+05 -1.4200105455505231e+07 0.0000000000000000e+00 -1.4200105455505231e+07 2.4852546995967831e+07 0.0000000000000000e+00 0.0000000000000000e+00 0.0000000000000000e+00 0.0000000000000000e+00  1.3671514625906138e+07 -1.8900584270666666e+07 0.0000000000000000e+00 -1.8900584270666666e+07 2.8720429055628903e+07 0.0000000000000000e+00 0.0000000000000000e+00 0.0000000000000000e+00 0.0000000000000000e+00  6.8410920804535653e+06 -2.1510082349996526e+07 0.0000000000000000e+00 -2.1510082349996526e+07 6.0045418554318905e+07 0.0000000000000000e+00 0.0000000000000000e+00 0.0000000000000000e+00 0.0000000000000000e+00  1.0719759609527407e+07 -2.4939582766124945e+07 0.0000000000000000e+00 -2.4939582766124945e+07 6.6734391584663913e+07 0.0000000000000000e+00 0.0000000000000000e+00 0.0000000000000000e+00 0.0000000000000000e+00  9.3038124701649491e+06 -1.8879796057403181e+07 0.0000000000000000e+00 -1.8879796057403181e+07 4.5245673762283288e+07 0.0000000000000000e+00 0.0000000000000000e+00 0.0000000000000000e+00 0.0000000000000000e+00  2.9382954466806613e+06 -8.1480654274532162e+06 0.0000000000000000e+00 -8.1480654274532162e+06 2.1657307988129403e+07 0.0000000000000000e+00 0.0000000000000000e+00 0.0000000000000000e+00 0.0000000000000000e+00  -4.4066354082315648e+06 3.7429319454598281e+05 0.0000000000000000e+00 3.7429319454598281e+05 5.8911367145701498e+06 0.0000000000000000e+00 0.0000000000000000e+00 0.0000000000000000e+00 0.0000000000000000e+00  -6.2534330002794433e+06 5.4182360837935312e+06 0.0000000000000000e+00 5.4182360837935312e+06 -4.9298008431750881e+06 0.0000000000000000e+00 0.0000000000000000e+00 0.0000000000000000e+00 0.0000000000000000e+00  -5.4894763617299255e+06 5.1394171788799008e+06 0.0000000000000000e+00 5.1394171788799008e+06 -3.5426567719509960e+06 0.0000000000000000e+00 0.0000000000000000e+00 0.0000000000000000e+00 0.0000000000000000e+00  -2.0477054939201421e+06 1.6319063581964995e+06 0.0000000000000000e+00 1.6319063581964995e+06 -1.3763736663843922e+06 0.0000000000000000e+00 0.0000000000000000e+00 0.0000000000000000e+00 0.0000000000000000e+00  4.7353472091246105e+04 -1.3749016065045883e+05 0.0000000000000000e+00 -1.3749016065045883e+05 -6.1182294276964804e+05 0.0000000000000000e+00 0.0000000000000000e+00 0.0000000000000000e+00 0.0000000000000000e+00  -7.7717870640851179e+03 2.2078212312494079e+05 0.0000000000000000e+00 2.2078212312494079e+05 -8.8004110386896948e+05 0.0000000000000000e+00 0.0000000000000000e+00 0.0000000000000000e+00 0.0000000000000000e+00  -1.6201802063660955e+06 -9.6081266935234820e+05 0.0000000000000000e+00 -9.6081266935234820e+05 -4.9583641916088603e+05 0.0000000000000000e+00 0.0000000000000000e+00 0.0000000000000000e+00 0.0000000000000000e+00  -4.6005898351137815e+06 -2.9814018892936078e+06 0.0000000000000000e+00 -2.9814018892936078e+06 -1.5120290140774176e+06 0.0000000000000000e+00 0.0000000000000000e+00 0.0000000000000000e+00 0.0000000000000000e+00  -9.3214269403730333e+06 -3.9205617466815109e+06 0.0000000000000000e+00 -3.9205617466815109e+06 -2.2840884420550517e+06 0.0000000000000000e+00 0.0000000000000000e+00 0.0000000000000000e+00 0.0000000000000000e+00  -1.1485516283081437e+07 -4.2995316662829164e+06 0.0000000000000000e+00 -4.2995316662829164e+06 -2.9881817522120103e+05 0.0000000000000000e+00 0.0000000000000000e+00 0.0000000000000000e+00 0.0000000000000000e+00  -3.6156021896595107e+06 9.0584048018666240e+05 0.0000000000000000e+00 9.0584048018666240e+05 2.5388875072873547e+06 0.0000000000000000e+00 0.0000000000000000e+00 0.0000000000000000e+00 0.0000000000000000e+00  1.8848421107104693e+07 1.7040555167151064e+07 0.0000000000000000e+00 1.7040555167151064e+07 1.6199639516411800e+07 0.0000000000000000e+00 0.0000000000000000e+00 0.0000000000000000e+00 0.0000000000000000e+00  4.7428363919915095e+07 4.8533623352855898e+07 0.0000000000000000e+00 4.8533623352855898e+07 5.0826469321529195e+07 0.0000000000000000e+00 0.0000000000000000e+00 0.0000000000000000e+00 0.0000000000000000e+00  6.4071706436273903e+07 8.1817572131108314e+07 0.0000000000000000e+00 8.1817572131108314e+07 1.3371673745575279e+08 0.0000000000000000e+00 0.0000000000000000e+00 0.0000000000000000e+00 0.0000000000000000e+00  6.8751595810063884e+07 1.2681545855964573e+08 0.0000000000000000e+00 1.2681545855964573e+08 2.6333544284029505e+08 0.0000000000000000e+00 0.0000000000000000e+00 0.0000000000000000e+00 0.0000000000000000e+00  9.0305016067600042e+07 1.3472422812354308e+08 0.0000000000000000e+00 1.3472422812354308e+08 4.6015471744796097e+08 0.0000000000000000e+00 0.0000000000000000e+00 0.0000000000000000e+00 0.0000000000000000e+00  1.4743930173174980e+08 4.9576342324025378e+07 0.0000000000000000e+00 4.9576342324025378e+07 5.3431507691448277e+08 0.0000000000000000e+00 0.0000000000000000e+00 0.0000000000000000e+00 0.0000000000000000e+00  1.2646511753299783e+08 -5.3055374382118106e+07 0.0000000000000000e+00 -5.3055374382118106e+07 5.1557385581132942e+08 0.0000000000000000e+00 0.0000000000000000e+00 0.0000000000000000e+00 0.0000000000000000e+00  7.6111393713722020e+07 -1.2222269935439247e+08 0.0000000000000000e+00 -1.2222269935439247e+08 4.4811299201953292e+08 0.0000000000000000e+00 0.0000000000000000e+00 0.0000000000000000e+00 0.0000000000000000e+00  8.3900534114529267e+07 -1.4698914972985974e+08 0.0000000000000000e+00 -1.4698914972985974e+08 2.6943387705525625e+08 0.0000000000000000e+00 0.0000000000000000e+00 0.0000000000000000e+00 0.0000000000000000e+00  6.9486874442521349e+07 -8.0824676639252141e+07 0.0000000000000000e+00 -8.0824676639252141e+07 1.1942356854103850e+08 0.0000000000000000e+00 0.0000000000000000e+00 0.0000000000000000e+00 0.0000000000000000e+00  4.4123120809424780e+07 -4.3960594565841615e+07 0.0000000000000000e+00 -4.3960594565841615e+07 5.1641484119370580e+07 0.0000000000000000e+00 0.0000000000000000e+00 0.0000000000000000e+00 0.0000000000000000e+00  1.9074206631969914e+07 -1.9127419821243849e+07 0.0000000000000000e+00 -1.9127419821243849e+07 1.6475526788704336e+07 0.0000000000000000e+00 0.0000000000000000e+00 0.0000000000000000e+00 0.0000000000000000e+00  -2.9689849490707880e+06 -5.1508898624006315e+05 0.0000000000000000e+00 -5.1508898624006315e+05 2.3771819348143088e+06 0.0000000000000000e+00 0.0000000000000000e+00 0.0000000000000000e+00 0.0000000000000000e+00  -9.4148253840851653e+06 3.1877835962661514e+06 0.0000000000000000e+00 3.1877835962661514e+06 -1.3932580938447318e+06 0.0000000000000000e+00 0.0000000000000000e+00 0.0000000000000000e+00 0.0000000000000000e+00  -9.6235292300779819e+06 4.6967658003299693e+06 0.0000000000000000e+00 4.6967658003299693e+06 -1.8251060330751739e+06 0.0000000000000000e+00 0.0000000000000000e+00 0.0000000000000000e+00 0.0000000000000000e+00  -5.3295413722314304e+06 2.4508933935253327e+06 0.0000000000000000e+00 2.4508933935253327e+06 -7.5691428986305639e+05 0.0000000000000000e+00 0.0000000000000000e+00 0.0000000000000000e+00 0.0000000000000000e+00  -1.1481943243017390e+06 7.0484129662883701e+05 0.0000000000000000e+00 7.0484129662883701e+05 -6.1158973387986375e+05 0.0000000000000000e+00 0.0000000000000000e+00 0.0000000000000000e+00 0.0000000000000000e+00  6.5916623746002879e+04 -2.2711358919758466e+05 0.0000000000000000e+00 -2.2711358919758466e+05 -9.0580696536965901e+05 0.0000000000000000e+00 0.0000000000000000e+00 0.0000000000000000e+00 0.0000000000000000e+00  1.5453049360235137e+05 1.9694358929556209e+05 0.0000000000000000e+00 1.9694358929556209e+05 -6.2443548652525386e+05 0.0000000000000000e+00 0.0000000000000000e+00 0.0000000000000000e+00 0.0000000000000000e+00  -2.1353318735596174e+06 -1.6281683082166407e+06 0.0000000000000000e+00 -1.6281683082166407e+06 -1.2550859039268373e+06 0.0000000000000000e+00 0.0000000000000000e+00 0.0000000000000000e+00 0.0000000000000000e+00  -5.1347861757934531e+06 -4.8555488506121235e+06 0.0000000000000000e+00 -4.8555488506121235e+06 -4.0776537001958252e+06 0.0000000000000000e+00 0.0000000000000000e+00 0.0000000000000000e+00 0.0000000000000000e+00  -6.8342617750828750e+06 -5.2316422027430693e+06 0.0000000000000000e+00 -5.2316422027430693e+06 -2.8941885747370766e+06 0.0000000000000000e+00 0.0000000000000000e+00 0.0000000000000000e+00 0.0000000000000000e+00  -3.6428362850131937e+06 2.7087956153284071e+05 0.0000000000000000e+00 2.7087956153284071e+05 7.0921507174741309e+06 0.0000000000000000e+00 0.0000000000000000e+00 0.0000000000000000e+00 0.0000000000000000e+00  2.9514539453651002e+06 8.1656589905035328e+06 0.0000000000000000e+00 8.1656589905035328e+06 1.9482727530822132e+07 0.0000000000000000e+00 0.0000000000000000e+00 0.0000000000000000e+00 0.0000000000000000e+00  8.9464397973867096e+06 1.8498619536958873e+07 0.0000000000000000e+00 1.8498619536958873e+07 4.7074419348611958e+07 0.0000000000000000e+00 0.0000000000000000e+00 0.0000000000000000e+00 0.0000000000000000e+00  1.0100310065370608e+07 2.3650835663536880e+07 0.0000000000000000e+00 2.3650835663536880e+07 6.6008887542589389e+07 0.0000000000000000e+00 0.0000000000000000e+00 0.0000000000000000e+00 0.0000000000000000e+00  7.8681442068761429e+06 2.3817564138695583e+07 0.0000000000000000e+00 2.3817564138695583e+07 6.4168941538339019e+07 0.0000000000000000e+00 0.0000000000000000e+00 0.0000000000000000e+00 0.0000000000000000e+00  9.3656407911482602e+06 2.2111099470006954e+07 0.0000000000000000e+00 2.2111099470006954e+07 3.4041920992823847e+07 0.0000000000000000e+00 0.0000000000000000e+00 0.0000000000000000e+00 0.0000000000000000e+00  1.0200557489255767e+07 2.4708970618541181e+07 0.0000000000000000e+00 2.4708970618541181e+07 1.5185756332200568e+07 0.0000000000000000e+00 0.0000000000000000e+00 0.0000000000000000e+00 0.0000000000000000e+00  1.5677882441758590e+07 -2.9282672916913275e+07 0.0000000000000000e+00 -2.9282672916913275e+07 2.9869862258396834e+07 0.0000000000000000e+00 0.0000000000000000e+00 0.0000000000000000e+00 0.0000000000000000e+00  1.6439469339718346e+07 -2.0326128744634140e+07 0.0000000000000000e+00 -2.0326128744634140e+07 9.4732982224374801e+07 0.0000000000000000e+00 0.0000000000000000e+00 0.0000000000000000e+00 0.0000000000000000e+00  1.0616122075117134e+07 -5.0446760534429610e+07 0.0000000000000000e+00 -5.0446760534429610e+07 2.1472809934791774e+08 0.0000000000000000e+00 0.0000000000000000e+00 0.0000000000000000e+00 0.0000000000000000e+00  1.7699142414716918e+07 -6.6691276761367001e+07 0.0000000000000000e+00 -6.6691276761367001e+07 2.6953651272183245e+08 0.0000000000000000e+00 0.0000000000000000e+00 0.0000000000000000e+00 0.0000000000000000e+00  2.8258762982152961e+07 -8.1084968782344624e+07 0.0000000000000000e+00 -8.1084968782344624e+07 2.8321498667773843e+08 0.0000000000000000e+00 0.0000000000000000e+00 0.0000000000000000e+00 0.0000000000000000e+00  4.1617601894691244e+07 -9.5498252827705979e+07 0.0000000000000000e+00 -9.5498252827705979e+07 2.6103005025907409e+08 0.0000000000000000e+00 0.0000000000000000e+00 0.0000000000000000e+00 0.0000000000000000e+00  5.4293071502084151e+07 -9.8703470199254334e+07 0.0000000000000000e+00 -9.8703470199254334e+07 2.1428900396605554e+08 0.0000000000000000e+00 0.0000000000000000e+00 0.0000000000000000e+00 0.0000000000000000e+00  6.3894498773608468e+07 -9.4343472430190340e+07 0.0000000000000000e+00 -9.4343472430190340e+07 1.5962717027154580e+08 0.0000000000000000e+00 0.0000000000000000e+00 0.0000000000000000e+00 0.0000000000000000e+00  6.5234827484920807e+07 -7.5740983836174026e+07 0.0000000000000000e+00 -7.5740983836174026e+07 1.0147768113224760e+08 0.0000000000000000e+00 0.0000000000000000e+00 0.0000000000000000e+00 0.0000000000000000e+00  5.3067118648764685e+07 -4.9782886654817067e+07 0.0000000000000000e+00 -4.9782886654817067e+07 5.4708149005413003e+07 0.0000000000000000e+00 0.0000000000000000e+00 0.0000000000000000e+00 0.0000000000000000e+00  2.7255170253832154e+07 -2.2482896609780647e+07 0.0000000000000000e+00 -2.2482896609780647e+07 2.1335365593940008e+07 0.0000000000000000e+00 0.0000000000000000e+00 0.0000000000000000