<?xml version="1.0"?>
<VTKFile type="UnstructuredGrid"  version="0.1"  >
<UnstructuredGrid>
<Piece  NumberOfPoints="1516" NumberOfCells="2851">
<Points>
<DataArray  type="Float64"  NumberOfComponents="3"  format="ascii">0.75 0.5 0  0 0 0  1 0 0  0 1 0  1 1 0  0.7469281313750038 0.5195352113864228 0  0.7385117375612069 0.5374571456651931 0  0.7263279303814529 0.5530934740086958 0  0.7116989293443028 0.5664897798809634 0  0.6954802715482502 0.5779221782219645 0  0.6781944867117482 0.5876737202722923 0  0.660166206211116 0.5959775838255192 0  0.6416053948656442 0.6030144554722116 0  0.6226540670541205 0.6089219672920519 0  0.6034126436970675 0.6138044651184471 0  0.5839552534854681 0.6177407272486785 0  0.5643389989478638 0.6207895827610838 0  0.5446098334199745 0.6229938644427458 0  0.5248064888990338 0.6243831159246525 0  0.5049632629381331 0.6249753635931968 0  0.4851121708511691 0.6247781556836324 0  0.4652847864660675 0.6237889877465818 0  0.4455140235524592 0.6219951621689955 0  0.4258360955623282 0.619373065721041 0  0.4062929419753442 0.6158867844885298 0  0.3869355014358565 0.6114858950321057 0  0.3678284874497231 0.6061021810216123 0  0.3490577211538664 0.599644905109012 0  0.3307419711619204 0.5919941841556408 0  0.3130529566560549 0.5829921728010496 0  0.2962501904784759 0.572432753502719 0  0.2807441251211575 0.5600559350337528 0  0.2672035221469091 0.5455680806573948 0  0.2567087435986765 0.5287635383718062 0  0.2507830062973265 0.5098854697637693 0  0.2507830062973249 0.4901145302362411 0  0.256708743598672 0.4712364616282033 0  0.2672035221469025 0.4544319193426136 0  0.28074412512115 0.439944064966254 0  0.2962501904784683 0.4275672464972863 0  0.3130529566560477 0.4170078271989545 0  0.3307419711619128 0.4080058158443627 0  0.3490577211538586 0.4003550948909909 0  0.3678284874497159 0.3938978189783899 0  0.3869355014358506 0.3885141049678957 0  0.4062929419753397 0.3841132155114712 0  0.4258360955623228 0.3806269342789599 0  0.4455140235524542 0.3780048378310051 0  0.465284786466063 0.3762110122534186 0  0.4851121708511649 0.3752218443163677 0  0.504963262938129 0.3750246364068032 0  0.52480648889903 0.3756168840753474 0  0.5446098334199709 0.3770061355572539 0  0.5643389989478592 0.3792104172389157 0  0.5839552534854635 0.3822592727513207 0  0.6034126436970625 0.3861955348815518 0  0.6226540670541174 0.3910780327079472 0  0.6416053948656422 0.3969855445277878 0  0.6601662062111144 0.4040224161744801 0  0.6781944867117468 0.412326279727707 0  0.6954802715482484 0.4220778217780344 0  0.7116989293443012 0.4335102201190353 0  0.7263279303814515 0.4469065259913028 0  0.738511737561207 0.4625428543348071 0  0.7469281313750039 0.4804647886135777 0  0.03333333333333333 0 0  0.06666666666666667 0 0  0.1 0 0  0.1333333333333333 0 0  0.1666666666666667 0 0  0.2 0 0  0.2333333333333333 0 0  0.2666666666666667 0 0  0.3 0 0  0.3333333333333333 0 0  0.3666666666666666 0 0  0.4 0 0  0.4333333333333333 0 0  0.4666666666666667 0 0  0.5 0 0  0.5333333333333333 0 0  0.5666666666666667 0 0  0.6 0 0  0.6333333333333333 0 0  0.6666666666666666 0 0  0.7 0 0  0.7333333333333333 0 0  0.7666666666666667 0 0  0.8 0 0  0.8333333333333334 0 0  0.8666666666666667 0 0  0.9 0 0  0.9333333333333333 0 0  0.9666666666666667 0 0  0 0.9666666666666667 0  0 0.9333333333333333 0  0 0.9 0  0 0.8666666666666667 0  0 0.8333333333333334 0  0 0.8 0  0 0.7666666666666666 0  0 0.7333333333333334 0  0 0.7 0  0 0.6666666666666667 0  0 0.6333333333333333 0  0 0.6 0  0 0.5666666666666667 0  0 0.5333333333333333 0  0 0.5 0  0 0.4666666666666667 0  0 0.4333333333333333 0  0 0.4 0  0 0.3666666666666667 0  0 0.3333333333333334 0  0 0.3 0  0 0.2666666666666667 0  0 0.2333333333333333 0  0 0.2 0  0 0.1666666666666666 0  0 0.1333333333333333 0  0 0.09999999999999998 0  0 0.06666666666666665 0  0 0.03333333333333333 0  1 0.03333333333333333 0  1 0.06666666666666667 0  1 0.1 0  1 0.1333333333333333 0  1 0.1666666666666667 0  1 0.2 0  1 0.2333333333333333 0  1 0.2666666666666667 0  1 0.3 0  1 0.3333333333333333 0  1 0.3666666666666666 0  1 0.4 0  1 0.4333333333333333 0  1 0.4666666666666667 0  1 0.5 0  1 0.5333333333333333 0  1 0.5666666666666667 0  1 0.6 0  1 0.6333333333333333 0  1 0.6666666666666666 0  1 0.7 0  1 0.7333333333333333 0  1 0.7666666666666667 0  1 0.8 0  1 0.8333333333333334 0  1 0.8666666666666667 0  1 0.9 0  1 0.9333333333333333 0  1 0.9666666666666667 0  0.9666666666666667 1 0  0.9333333333333333 1 0  0.9 1 0  0.8666666666666667 1 0  0.8333333333333334 1 0  0.8 1 0  0.7666666666666666 1 0  0.7333333333333334 1 0  0.7 1 0  0.6666666666666667 1 0  0.6333333333333333 1 0  0.6 1 0  0.5666666666666667 1 0  0.5333333333333333 1 0  0.5 1 0  0.4666666666666667 1 0  0.4333333333333333 1 0  0.4 1 0  0.3666666666666667 1 0  0.3333333333333334 1 0  0.3 1 0  0.2666666666666667 1 0  0.2333333333333333 1 0  0.2 1 0  0.1666666666666666 1 0  0.1333333333333333 1 0  0.09999999999999998 1 0  0.06666666666666665 1 0  0.03333333333333333 1 0  0.3134267588222147 0.3968700477892324 0  0.3129808458748998 0.605065474897213 0  0.6757516917216537 0.6075825211726383 0  0.6764195906556448 0.3932008204228291 0  0.3738363558376661 0.3747003651718869 0  0.3696475711511885 0.6258563941513853 0  0.6170169921826967 0.3717037264036304 0  0.6171133288937142 0.6273943754556769 0  0.456049078613697 0.6396625939950993 0  0.4546419187857189 0.3604618689551671 0  0.5353495570551685 0.3585631336262323 0  0.5358046102934076 0.6395507714905094 0  0.7833333333333334 0.0288675134594813 0  0.7817013625278481 0.9716309719807139 0  0.2172049867383096 0.9712190823694278 0  0.2172165053515724 0.02878171155442844 0  0.9751062737669539 0.2494735454822257 0  0.9720360118701878 0.7513209684687829 0  0.02820172771004426 0.7519699250156462 0  0.02871908090923159 0.2506715416113082 0  0.2598439448750735 0.5630579863110547 0  0.261432662182561 0.4354668025539004 0  0.3508264680460763 0.9720156988216062 0  0.3506197325187095 0.02878335238950552 0  0.6480248435296759 0.9673218686928825 0  0.6499994527030664 0.02857003286937643 0  0.4831215952501512 0.9720168301827569 0  0.4827530234729432 0.02745274474890891 0  0.7461021790201181 0.5548824861937993 0  0.7455561781314846 0.4445228965511453 0  0.2376149274360715 0.5243955506893196 0  0.2377758695717467 0.4749383197310248 0  0.7653820550164427 0.4875720780404539 0  0.02838621102149863 0.6506771654911571 0  0.02520397607219493 0.3488395679960002 0  0.9738838161261255 0.6544737428322848 0  0.969706266043209 0.3483825467417789 0  0.9746222009630121 0.5520890982526708 0  0.9748345031831018 0.1499187147151372 0  0.9716708642742824 0.8511356793128959 0  0.02668444612276261 0.8463052305816476 0  0.02578293472070098 0.149591650176098 0  0.9740166567723061 0.4505307956608741 0  0.02739283698466921 0.5479023531417846 0  0.03014225707540141 0.4522947930526208 0  0.713488613084603 0.586249287700361 0  0.7134886130846011 0.4137507122996377 0  0.8863162765960636 0.03147272376150706 0  0.8871755228702325 0.9701656466120692 0  0.1168518311244783 0.02910501115433978 0  0.116964991241418 0.971917360854491 0  0.412743759032502 0.6335275616429201 0  0.4130453311060697 0.3654453220522637 0  0.576588583335028 0.6350065673763428 0  0.5782141806604582 0.3609188848313987 0  0.4946823381517449 0.3589833798377697 0  0.4947840846786814 0.6411517266220821 0  0.5504329696858438 0.02845330168671167 0  0.5501797220300235 0.9704304753779933 0  0.4168268429319341 0.0271422144128507 0  0.4166666666666667 0.9711324865405186 0  0.7166598508837081 0.027343974154309 0  0.7153836803724573 0.9725190442250848 0  0.2832086258859584 0.9726332293131488 0  0.2839406900874487 0.02925886321255944 0  0.9713180273373123 0.0836401008166236 0  0.9713096251461502 0.9163744303339127 0  0.02705326259177604 0.08585080814814455 0  0.02617540200486035 0.9177833462335963 0  0.9470001623010518 0.03028383422149045 0  0.9469764492987821 0.9697463876027641 0  0.05012581947498229 0.02814599038446741 0  0.05004143829350638 0.9683668234518643 0  0.7680984998420514 0.5070404177984944 0  0.7849103005891456 0.4945035130020536 0  0.7886783721290059 0.5151170406774421 0  0.8056726073161616 0.5018288125109808 0  0.8093673128033159 0.5245684500614849 0  0.8009762506247462 0.4810034344576399 0  0.8275234008231545 0.5097045622530819 0  0.8312871911519814 0.5336590410611215 0  0.8503236599545205 0.517936685537485 0  0.8542846079702141 0.5424672909324387 0  0.8345269898266348 0.5579513840373461 0  0.8580908258683151 0.5674898630821474 0  0.8378589560977967 0.5833645870782369 0  0.861927078535364 0.5930435908432112 0  0.8412688404994835 0.609236002784777 0  0.8658882594589069 0.6192345920606944 0  0.8448333525277221 0.6354088651229735 0  0.8195926426216309 0.6260224333261726 0  0.8235799605475881 0.65165219136834 0  0.8483289698738191 0.6618457320697644 0  0.8269388394557681 0.6780356482818748 0  0.8023552642516383 0.6678050253688286 0  0.8054524700851902 0.6938239816611752 0  0.7811271531524719 0.6836888703008859 0  0.7842752464889915 0.7095801969630536 0  0.7601023929395575 0.6990643111709427 0  0.7627002718445048 0.7253325644775792 0  0.7874983792320139 0.7359924772223709 0  0.7659174812023219 0.7518733658938611 0  0.7410155455826916 0.7411003683436279 0  0.7910411792526503 0.7625675192090167 0  0.7440762376051175 0.767751652540797 0  0.7195148363351617 0.7568320485857667 0  0.722284660433189 0.7837329183246127 0  0.6976439659719657 0.7726852596453521 0  0.7003052607881836 0.7996644381387307 0  0.6756336705748374 0.7884744185215613 0  0.6730709376816471 0.7618783621137255 0  0.6509749122473675 0.7773654350029227 0  0.653611670309759 0.8040121490744945 0  0.628923906359824 0.7927503989044546 0  0.7253881510650206 0.8110561429733224 0  0.6315589600770061 0.8196987565315665 0  0.6070874698067629 0.8081444673711806 0  0.604541164467654 0.7815362622568138 0  0.5828672969699347 0.796642023187012 0  0.5809380485404994 0.7704455335553724 0  0.5592899957198134 0.7852635066292494 0  0.5611747913357445 0.8115336778921248 0  0.537391
[...]
<PointData  Tensors="$\sigma$"> 
<DataArray  type="Float64"  Name="$\sigma$"  NumberOfComponents="9" format="ascii">1.2655052333702861e+08 -1.0193986025709980e+05 0.0000000000000000e+00 -1.0193986025709980e+05 5.2037449345734257e+08 0.0000000000000000e+00 0.0000000000000000e+00 0.0000000000000000e+00 0.0000000000000000e+00  3.5502398400988942e+05 4.2399061326905049e+05 0.0000000000000000e+00 4.2399061326905049e+05 2.3110289259261781e+08 0.0000000000000000e+00 0.0000000000000000e+00 0.0000000000000000e+00 0.0000000000000000e+00  1.9076315971364363e+05 -8.8985834052160627e+05 0.0000000000000000e+00 -8.8985834052160627e+05 2.3025794859059432e+08 0.0000000000000000e+00 0.0000000000000000e+00 0.0000000000000000e+00 0.0000000000000000e+00  1.2108943818944773e+05 -8.9665889558476105e+05 0.0000000000000000e+00 -8.9665889558476105e+05 2.2994292241825366e+08 0.0000000000000000e+00 0.0000000000000000e+00 0.0000000000000000e+00 0.0000000000000000e+00  1.7376779021804349e+05 8.8659944833378948e+05 0.0000000000000000e+00 8.8659944833378948e+05 2.3013569073963487e+08 0.0000000000000000e+00 0.0000000000000000e+00 0.0000000000000000e+00 0.0000000000000000e+00  1.2470762087548764e+08 -1.0961944928123349e+08 0.0000000000000000e+00 -1.0961944928123349e+08 4.9653541033123434e+08 0.0000000000000000e+00 0.0000000000000000e+00 0.0000000000000000e+00 0.0000000000000000e+00  1.1859440736987691e+08 -1.7929603890619057e+08 0.0000000000000000e+00 -1.7929603890619057e+08 3.6547521390351486e+08 0.0000000000000000e+00 0.0000000000000000e+00 0.0000000000000000e+00 0.0000000000000000e+00  1.2133460244668630e+08 -1.4201655367997190e+08 0.0000000000000000e+00 -1.4201655367997190e+08 1.8736617761461395e+08 0.0000000000000000e+00 0.0000000000000000e+00 0.0000000000000000e+00 0.0000000000000000e+00  8.3145425619594991e+07 -8.2489859244233027e+07 0.0000000000000000e+00 -8.2489859244233027e+07 8.4409318631415337e+07 0.0000000000000000e+00 0.0000000000000000e+00 0.0000000000000000e+00 0.0000000000000000e+00  3.5341129025051355e+07 -3.4155411382367849e+07 0.0000000000000000e+00 -3.4155411382367849e+07 3.3822750514522366e+07 0.0000000000000000e+00 0.0000000000000000e+00 0.0000000000000000e+00 0.0000000000000000e+00  -4.5201591326531786e+06 -5.6895413205848709e+06 0.0000000000000000e+00 -5.6895413205848709e+06 8.0778974037009496e+06 0.0000000000000000e+00 0.0000000000000000e+00 0.0000000000000000e+00 0.0000000000000000e+00  -4.0851864099275142e+07 1.1525699341002842e+07 0.0000000000000000e+00 1.1525699341002842e+07 -2.3517535708388966e+06 0.0000000000000000e+00 0.0000000000000000e+00 0.0000000000000000e+00 0.0000000000000000e+00  -6.6768757120824248e+07 1.9777163200010430e+07 0.0000000000000000e+00 1.9777163200010430e+07 -6.3191461105122091e+06 0.0000000000000000e+00 0.0000000000000000e+00 0.0000000000000000e+00 0.0000000000000000e+00  -8.8355162132282943e+07 2.2866572408839747e+07 0.0000000000000000e+00 2.2866572408839747e+07 -7.6767281688472359e+06 0.0000000000000000e+00 0.0000000000000000e+00 0.0000000000000000e+00 0.0000000000000000e+00  -1.0327583628612931e+08 2.2405924263046216e+07 0.0000000000000000e+00 2.2405924263046216e+07 -5.8560403817673195e+06 0.0000000000000000e+00 0.0000000000000000e+00 0.0000000000000000e+00 0.0000000000000000e+00  -1.1487918974600440e+08 1.9260027364535544e+07 0.0000000000000000e+00 1.9260027364535544e+07 -4.5548340256170342e+06 0.0000000000000000e+00 0.0000000000000000e+00 0.0000000000000000e+00 0.0000000000000000e+00  -1.2078326298939979e+08 1.5577215871576622e+07 0.0000000000000000e+00 1.5577215871576622e+07 -2.8831896183364908e+06 0.0000000000000000e+00 0.0000000000000000e+00 0.0000000000000000e+00 0.0000000000000000e+00  -1.2757352266924700e+08 1.1204564098857520e+07 0.0000000000000000e+00 1.1204564098857520e+07 -2.1086530019937293e+06 0.0000000000000000e+00 0.0000000000000000e+00 0.0000000000000000e+00 0.0000000000000000e+00  -1.2804184677936521e+08 6.4983096348904967e+06 0.0000000000000000e+00 6.4983096348904967e+06 -1.4523645023527604e+06 0.0000000000000000e+00 0.0000000000000000e+00 0.0000000000000000e+00 0.0000000000000000e+00  -1.3169900871584490e+08 7.9905705716286949e+05 0.0000000000000000e+00 7.9905705716286949e+05 -1.4499354902657778e+06 0.0000000000000000e+00 0.0000000000000000e+00 0.0000000000000000e+00 0.0000000000000000e+00  -1.2897835561488235e+08 -3.7059738529781941e+06 0.0000000000000000e+00 -3.7059738529781941e+06 -8.8182755241489736e+05 0.0000000000000000e+00 0.0000000000000000e+00 0.0000000000000000e+00 0.0000000000000000e+00  -1.3013029243237321e+08 -8.5385992823511958e+06 0.0000000000000000e+00 -8.5385992823511958e+06 -1.7486012064073544e+06 0.0000000000000000e+00 0.0000000000000000e+00 0.0000000000000000e+00 0.0000000000000000e+00  -1.2323719978388807e+08 -1.4168719853406589e+07 0.0000000000000000e+00 -1.4168719853406589e+07 -2.8344065713426513e+06 0.0000000000000000e+00 0.0000000000000000e+00 0.0000000000000000e+00 0.0000000000000000e+00  -1.1767413027519241e+08 -1.6162528397670753e+07 0.0000000000000000e+00 -1.6162528397670753e+07 -3.7728915552781029e+06 0.0000000000000000e+00 0.0000000000000000e+00 0.0000000000000000e+00 0.0000000000000000e+00  -1.1183182213144475e+08 -2.1059679152503327e+07 0.0000000000000000e+00 -2.1059679152503327e+07 -5.9633435993561968e+06 0.0000000000000000e+00 0.0000000000000000e+00 0.0000000000000000e+00 0.0000000000000000e+00  -9.1957973869598046e+07 -2.3496575004699543e+07 0.0000000000000000e+00 -2.3496575004699543e+07 -7.8583273043156508e+06 0.0000000000000000e+00 0.0000000000000000e+00 0.0000000000000000e+00 0.0000000000000000e+00  -8.3071554600463793e+07 -1.9686774466867197e+07 0.0000000000000000e+00 -1.9686774466867197e+07 -1.9854040048311718e+06 0.0000000000000000e+00 0.0000000000000000e+00 0.0000000000000000e+00 0.0000000000000000e+00  -6.2275231862852305e+07 -2.0902025124289490e+07 0.0000000000000000e+00 -2.0902025124289490e+07 -2.6036362837409880e+06 0.0000000000000000e+00 0.0000000000000000e+00 0.0000000000000000e+00 0.0000000000000000e+00  -2.0383023556067169e+07 -2.1465679614503258e+06 0.0000000000000000e+00 -2.1465679614503258e+06 7.9848298845070985e+05 0.0000000000000000e+00 0.0000000000000000e+00 0.0000000000000000e+00 0.0000000000000000e+00  1.4658683758254256e+07 2.0044980086404160e+07 0.0000000000000000e+00 2.0044980086404160e+07 2.3852797403122514e+07 0.0000000000000000e+00 0.0000000000000000e+00 0.0000000000000000e+00 0.0000000000000000e+00  5.3045899241154373e+07 5.3931113432071164e+07 0.0000000000000000e+00 5.3931113432071164e+07 5.7113404045577466e+07 0.0000000000000000e+00 0.0000000000000000e+00 0.0000000000000000e+00 0.0000000000000000e+00  1.0244145600201169e+08 1.1536653639442010e+08 0.0000000000000000e+00 1.1536653639442010e+08 1.4184356686862057e+08 0.0000000000000000e+00 0.0000000000000000e+00 0.0000000000000000e+00 0.0000000000000000e+00  1.1351242202762549e+08 1.6562957375251296e+08 0.0000000000000000e+00 1.6562957375251296e+08 2.6731477995185632e+08 0.0000000000000000e+00 0.0000000000000000e+00 0.0000000000000000e+00 0.0000000000000000e+00  1.2486213754541734e+08 1.5918591468358406e+08 0.0000000000000000e+00 1.5918591468358406e+08 4.3167843505820835e+08 0.0000000000000000e+00 0.0000000000000000e+00 0.0000000000000000e+00 0.0000000000000000e+00  1.2469514472548521e+08 5.6849748257623672e+07 0.0000000000000000e+00 5.6849748257623672e+07 5.1377443763447320e+08 0.0000000000000000e+00 0.0000000000000000e+00 0.0000000000000000e+00 0.0000000000000000e+00  1.1568606486241931e+08 -7.7342775586563125e+07 0.0000000000000000e+00 -7.7342775586563125e+07 4.8189654397067732e+08 0.0000000000000000e+00 0.0000000000000000e+00 0.0000000000000000e+00 0.0000000000000000e+00  1.3009163585341716e+08 -1.6357625180283150e+08 0.0000000000000000e+00 -1.6357625180283150e+08 4.3331814748226589e+08 0.0000000000000000e+00 0.0000000000000000e+00 0.0000000000000000e+00 0.0000000000000000e+00  1.1088848460481179e+08 -1.6393072327878755e+08 0.0000000000000000e+00 -1.6393072327878755e+08 2.6641778876321483e+08 0.0000000000000000e+00 0.0000000000000000e+00 0.0000000000000000e+00 0.0000000000000000e+00  1.0170873079160820e+08 -1.1138907928019162e+08 0.0000000000000000e+00 -1.1138907928019162e+08 1.4319018897199306e+08 0.0000000000000000e+00 0.0000000000000000e+00 0.0000000000000000e+00 0.0000000000000000e+00  5.9692591742078692e+07 -5.2916413876854569e+07 0.0000000000000000e+00 -5.2916413876854569e+07 5.2793571028829820e+07 0.0000000000000000e+00 0.0000000000000000e+00 0.0000000000000000e+00 0.0000000000000000e+00  1.7713774372994456e+07 -1.8789817315518234e+07 0.0000000000000000e+00 -1.8789817315518234e+07 1.7974889479733728e+07 0.0000000000000000e+00 0.0000000000000000e+00 0.0000000000000000e+00 0.0000000000000000e+00  -2.5989920472283769e+07 5.0637996130895112e+06 0.0000000000000000e+00 5.0637996130895112e+06 -7.3189816856469470e+05 0.0000000000000000e+00 0.0000000000000000e+00 0.0000000000000000e+00 0.0000000000000000e+00  -5.1187080850615591e+07 1.3285597590747638e+07 0.0000000000000000e+00 1.3285597590747638e+07 -5.3990035668258360e+06 0.0000000000000000e+00 0.0000000000000000e+00 0.0000000000000000e+00 0.0000000000000000e+00  -8.0282838260565996e+07 2.3323645095778406e+07 0.0000000000000000e+00 2.3323645095778406e+07 -7.8022554564385461e+06 0.0000000000000000e+00 0.0000000000000000e+00 0.0000000000000000e+00 0.0000000000000000e+00  -9.8347660312534660e+07 2.2525233038293090e+07 0.0000000000000000e+00 2.2525233038293090e+07 -5.8526424783801641e+06 0.0000000000000000e+00 0.0000000000000000e+00 0.0000000000000000e+00 0.0000000000000000e+00  -1.0879904421594431e+08 2.0297650488193337e+07 0.0000000000000000e+00 2.0297650488193337e+07 -4.7394002482541250e+06 0.0000000000000000e+00 0.0000000000000000e+00 0.0000000000000000e+00 0.0000000000000000e+00  -1.1857887101322268e+08 1.7553538697775021e+07 0.0000000000000000e+00 1.7553538697775021e+07 -4.4048263981301254e+06 0.0000000000000000e+00 0.0000000000000000e+00 0.0000000000000000e+00 0.0000000000000000e+00  -1.2583333301563327e+08 1.3807409384212930e+07 0.0000000000000000e+00 1.3807409384212930e+07 -2.5117386784898592e+06 0.0000000000000000e+00 0.0000000000000000e+00 0.0000000000000000e+00 0.0000000000000000e+00  -1.2749303056015609e+08 8.2850236920202011e+06 0.0000000000000000e+00 8.2850236920202011e+06 -1.5423788185396541e+06 0.0000000000000000e+00 0.0000000000000000e+00 0.0000000000000000e+00 0.0000000000000000e+00  -1.3077319145245281e+08 3.9785742308582873e+06 0.0000000000000000e+00 3.9785742308582873e+06 -1.7732652739346498e+06 0.0000000000000000e+00 0.0000000000000000e+00 0.0000000000000000e+00 0.0000000000000000e+00  -1.3071923970961566e+08 -1.5570092957188447e+06 0.0000000000000000e+00 -1.5570092957188447e+06 -1.0385370201050073e+06 0.0000000000000000e+00 0.0000000000000000e+00 0.0000000000000000e+00 0.0000000000000000e+00  -1.2997373456529453e+08 -6.3151822460933281e+06 0.0000000000000000e+00 -6.3151822460933281e+06 -1.6536450015627968e+06 0.0000000000000000e+00 0.0000000000000000e+00 0.0000000000000000e+00 0.0000000000000000e+00  -1.2617011005522090e+08 -1.0911048192126820e+07 0.0000000000000000e+00 -1.0911048192126820e+07 -2.3470376441571526e+06 0.0000000000000000e+00 0.0000000000000000e+00 0.0000000000000000e+00 0.0000000000000000e+00  -1.2181794824304199e+08 -1.7285802453270655e+07 0.0000000000000000e+00 -1.7285802453270655e+07 -4.2194543647291539e+06 0.0000000000000000e+00 0.0000000000000000e+00 0.0000000000000000e+00 0.0000000000000000e+00  -1.1335047664667749e+08 -1.7728965328952078e+07 0.0000000000000000e+00 -1.7728965328952078e+07 -4.2610652360777277e+06 0.0000000000000000e+00 0.0000000000000000e+00 0.0000000000000000e+00 0.0000000000000000e+00  -1.0539107138224451e+08 -2.1551183442712583e+07 0.0000000000000000e+00 -2.1551183442712583e+07 -5.2513288789815456e+06 0.0000000000000000e+00 0.0000000000000000e+00 0.0000000000000000e+00 0.0000000000000000e+00  -8.8334288154117733e+07 -2.1500462693988685e+07 0.0000000000000000e+00 -2.1500462693988685e+07 -6.3296923459441680e+06 0.0000000000000000e+00 0.0000000000000000e+00 0.0000000000000000e+00 0.0000000000000000e+00  -6.8300326833278522e+07 -1.9646194907946173e+07 0.0000000000000000e+00 -1.9646194907946173e+07 -6.6859886269133287e+06 0.0000000000000000e+00 0.0000000000000000e+00 0.0000000000000000e+00 0.0000000000000000e+00  -4.1148934311527707e+07 -1.2337134279564092e+07 0.0000000000000000e+00 -1.2337134279564092e+07 -4.4463973006187724e+06 0.0000000000000000e+00 0.0000000000000000e+00 0.0000000000000000e+00 0.0000000000000000e+00  -4.3641323527684268e+06 5.3817630860761600e+06 0.0000000000000000e+00 5.3817630860761600e+06 7.5023445618466865e+06 0.0000000000000000e+00 0.0000000000000000e+00 0.0000000000000000e+00 0.0000000000000000e+00  3.7186278310777493e+07 3.4942575161563896e+07 0.0000000000000000e+00 3.4942575161563896e+07 3.5227845960627273e+07 0.0000000000000000e+00 0.0000000000000000e+00 0.0000000000000000e+00 0.0000000000000000e+00  7.9582658869255453e+07 8.0388020306889668e+07 0.0000000000000000e+00 8.0388020306889668e+07 8.5893965975157037e+07 0.0000000000000000e+00 0.0000000000000000e+00 0.0000000000000000e+00 0.0000000000000000e+00  1.1943816149672845e+08 1.4236402181367850e+08 0.0000000000000000e+00 1.4236402181367850e+08 2.0213839303698289e+08 0.0000000000000000e+00 0.0000000000000000e+00 0.0000000000000000e+00 0.0000000000000000e+00  1.1674029927660590e+08 1.7810103692188999e+08 0.0000000000000000e+00 1.7810103692188999e+08 3.6417035974113399e+08 0.0000000000000000e+00 0.0000000000000000e+00 0.0000000000000000e+00 0.0000000000000000e+00  1.4617434752809903e+08 1.1943423321674369e+08 0.0000000000000000e+00 1.1943423321674369e+08 4.9167003826266205e+08 0.0000000000000000e+00 0.0000000000000000e+00 0.0000000000000000e+00 0.0000000000000000e+00  4.6463231619557610e+05 8.8011653353986074e+05 0.0000000000000000e+00 8.8011653353986074e+05 2.1736566437258887e+08 0.0000000000000000e+00 0.0000000000000000e+00 0.0000000000000000e+00 0.0000000000000000e+00  5.3709646861329069e+05 6.2205913073016878e+05 0.0000000000000000e+00 6.2205913073016878e+05 2.0504182330942711e+08 0.0000000000000000e+00 0.0000000000000000e+00 0.0000000000000000e+00 0.0000000000000000e+00  1.7422273592818230e+06 6.3498547509777441e+05 0.0000000000000000e+00 6.3498547509777441e+05 1.9122485169036618e+08 0.0000000000000000e+00 0.0000000000000000e+00 0.0000000000000000e+00 0.0000000000000000e+00  2.9703974610247216e+06 4.9947753974884597e+05 0.0000000000000000e+00 4.9947753974884597e+05 1.7634292544864678e+08 0.0000000000000000e+00 0.0000000000000000e+00 0.0000000000000000e+00 0.0000000000000000e+00  5.2072074427737314e+06 4.9175864860812388e+05 0.0000000000000000e+00 4.9175864860812388e+05 1.6075868937873280e+08 0.0000000000000000e+00 0.0000000000000000e+00 0.0000000000000000e+00 0.0000000000000000e+00  7.8697240697483877e+06 4.3252912733998400e+05 0.0000000000000000e+00 4.3252912733998400e+05 1.4538946157412842e+08 0.0000000000000000e+00 0.0000000000000000e+00 0.0000000000000000e+00 0.0000000000000000e+00  1.1169677748808879e+07 3.4931894733001990e+05 0.0000000000000000e+00 3.4931894733001990e+05 1.2949604528864652e+08 0.0000000000000000e+00 0.0000000000000000e+00 0.0000000000000000e+00 0.0000000000000000e+00  1.5438965620609347e+07 1.9875480793711077e+05 0.0000000000000000e+00 1.9875480793711077e+05 1.1336345234137958e+08 0.0000000000000000e+00 0.0000000000000000e+00 0.0000000000000000e+00 0.0000000000000000e+00  1.9789813247335404e+07 5.6578357364828444e+04 0.0000000000000000e+00 5.6578357364828444e+04 9.7694116108180404e+07 0.0000000000000000e+00 0.0000000000000000e+00 0.0000000000000000e+00 0.0000000000000000e+00  2.4591641657336354e+07 1.5550771244316240e+04 0.0000000000000000e+00 1.5550771244316240e+04 8.2760259891781032e+07 0.0000000000000000e+00 0.0000000000000000e+00 0.0000000000000000e+00 0.0000000000000000e+00  2.8851074867883399e+07 -2.2837990949243114e+04 0.0000000000000000e+00 -2.2837990949243114e+04 6.9647459234770626e+07 0.0000000000000000e+00 0.0000000000000000e+00 0.0000000000000000e+00 0.0000000000000000e+00  3.2716257025701791e+07 -3.8179106506003445e+04 0.0000000000000000e+00 -3.8179106506003445e+04 5.8329602530454107e+07 0.0000000000000000e+00 0.0000000000000000e+00 0.0000000000000000e+00 0.0000000000000000e+00  3.5688989747986175e+07 -4.3187364882676775e+04 0.0000000000000000e+00 -4.3187364882676775e+04 5.0367699582191661e+07 0.0000000000000000e+00 0.0000000000000000e+00 0.0000000000000000e+00 0.0000000000000000e+00  3.7585215570500545e+07 -7.0592473746216401e+03 0.0000000000000000e+00 -7.0592473746216401e+03 4.5133876786422387e+07 0.0000000000000000e+00 0.0000000000000000e+00 0.0000000000000000e+00 0.0000000000000000e+00  3.8229528549073875e+07 -1.1649978247441820e+05 0.0000000000000000e+00 -1.1649978247441820e+05 4.3344636033742070e+07 0.0000000000000000e+00 0.0000000000000000e+00 0.0000000000000000e+00 0.0000000000000000e+00  3.7526671674466312e+07 9.6777274948942490e+04 0.0000000000000000e+00 9.6777274948942490e+04 4.4882227367510289e+07 0.0000000000000000e+00 0.0000000000000000e+00 0.0000000000000000e+00 0.0000000000000000e+00  3.5650759296601959e+07 -2.5967824974284704e+04 0.0000000000000000e+00 -2.5967824974284704e+04 5.0123697216673978e+07 0.0000000000000000e+00 0.0000000000000000e+00 0.0000000000000000e+00 0.0000000000000000e+00  3.2670491583444748e+07 -4.2505244058069380e+04 0.0000000000000000e+00 -4.2505244058069380e+04 5.8724848828528881e+07 0.0000000000000000e+00 0.0000000000000000e+00 0.0000000000000000e+00 0.0000000000000000e+00  2.8927259219131842e+07 6.6524947700603916e+03 0.0000000000000000e+00 6.6524947700603916e+03 6.9659390888057798e+07 0.0000000000000000e+00 0.0000000000000000e+00 0.0000000000000000e+00 0.0000000000000000e+00  2.4281433655938148e+07 1.8150257954466975e+04 0.0000000000000000e+00 1.8150257954466975e+04 8.2826673994459495e+07 0.0000000000000000e+00 0.0000000000000000e+00 0.0000000000000000e+00 0.0000000000000000e+00  2.0091598918240350e+07 -1.0313883262644967e+05 0.0000000000000000e+00 -1.0313883262644967e+05 9.8211072782560498e+07 0.0000000000000000e+00 0.0000000000000000e+00 0.0000000000000000e+00 0.0000000000000000e+00  1.5144136329041135e+07 -2.3964601822250520e+05 0.0000000000000000e+00 -2.3964601822250520e+05 1.1376655235205217e+08 0.0000000000000000e+00 0.0000000000000000e+00 0.0000000000000000e+00 0.0000000000000000e+00  1.1550038132740175e+07 2.9497427873672917e+04 0.0000000000000000e+00 2.9497427873672917e+04 1.3018272781791110e+08 0.0000000000000000e+00 0.0000000000000000e+00 0.0000000000000000e+00 0.0000000000000000e+00  7.4437960967007959e+06 -6.8993224849787692e+05 0.0000000000000000e+00 -6.8993224849787692e+05 1.4379288240362465e+08 0.0000000000000000e+00 0.0000000000000000e+00 0.0000000000000000e+00 0.0000000000000000e+00  5.5741105270409407e+06 -1.0152840350538963e+06 0.0000000000000000e+00 -1.0152840350538963e+06 1.6273476803767702e+08 0.0000000000000000e+00 0.0000000000000000e+00 0.0000000000000000e+00 0.0000000000000000e+00  3.0037195719789108e+06 -4.2831190775075584e+05 0.0000000000000000e+00 -4.2831190775075584e+05 1.7651830536241424e+08 0.0000000000000000e+00 0.0000000000000000e+00 0.0000000000000000e+00 0.0000000000000000e+00  1.4526290874562799e+06 -1.1081718946745647e+06 0.0000000000000000e+00 -1.1081718946745647e+06 1.8985522888926622e+08 0.0000000000000000e+00 0.0000000000000000e+00 0.0000000000000000e+00 0.0000000000000000e+00  7.4907370657559508e+05 -8.5147043784379307e+05 0.0000000000000000e+00 -8.5147043784379307e+05 2.0650161304246327e+08 0.0000000000000000e+00 0.0000000000000000e+00 0.0000000000000000e+00 0.0000000000000000e+00  3.7558841141656914e+05 -7.6615248720052536e+05 0.0000000000000000e+00 -7.6615248720052536e+05 2.1688296008392560e+08 0.0000000000000000e+00 0.0000000000000000e+00 0.0000000000000000e+00 0.0000000000000000e+00  -2.6851268793750490e+05 6.3143059856144153e+05 0.0000000000000000e+00 6.3143059856144153e+05 2.3216113595912641e+08 0.0000000000000000e+00 0.0000000000000000e+00 0