<?xml version="1.0"?>
<VTKFile type="UnstructuredGrid"  version="0.1"  >
<UnstructuredGrid>
<Piece  NumberOfPoints="1760" NumberOfCells="2932">
<Points>
<DataArray  type="Float64"  NumberOfComponents="3"  format="ascii">0.75 0.7166568512032622 0  0.7830161833348249 0.6533646776689915 0  0.7938169177931118 0.6425881637145678 0  0.8016138610570742 0.6420499577781317 0  0.8064070131267121 0.6517500598596828 0  0.800336240831322 0.693934153113146 0  0.7705782001021581 0.7640754468894243 0  0.8148972838486528 0.7398512257079559 0  0.8397049039167581 0.7341352104387112 0  0.8420854117980396 0.7382583710369089 0  0.8247313873324014 0.7568843925886984 0  0.7815930545291092 0.7831537343948787 0  0.8572162171582555 0.7924531620447098 0  0.8967840996990615 0.8082877656430428 0  0.9027880584861682 0.8172888081403269 0  0.8984234868407657 0.8237720561105661 0  0.8836903847628539 0.8277375095537607 0  0.8176651617552441 0.8249818895960017 0  0.8152751530376293 0.829121506125443 0  0.8506742014280287 0.8849232165616863 0  0.8546065690476538 0.8996651839593045 0  0.8511741974290939 0.9066866378659801 0  0.8403770865723493 0.9059875782817129 0  0.8256123462049625 0.8969713952019138 0  0.8068799763269335 0.8796380886265827 0  0.7610148544269512 0.8187962225001355 0  0.7598341034837486 0.8692897854877841 0  0.7523805078812815 0.8936318223088184 0  0.7476194921187185 0.8936318223088184 0  0.7401658965162514 0.8692897854877841 0  0.7389851455730488 0.8187962225001355 0  0.6931200236730665 0.8796380886265827 0  0.6596229134276507 0.9059875782817129 0  0.6488258025709059 0.9066866378659801 0  0.645393430952346 0.8996651839593046 0  0.649325798571971 0.8849232165616865 0  0.6847248469623708 0.829121506125443 0  0.6823348382447559 0.8249818895960017 0  0.6163096152371463 0.8277375095537607 0  0.6015765131592345 0.8237720561105663 0  0.5972119415138318 0.817288808140327 0  0.6032159003009383 0.8082877656430429 0  0.6427837828417442 0.7924531620447098 0  0.7184069454708908 0.7831537343948787 0  0.6752686126675989 0.7568843925886986 0  0.6579145882019604 0.7382583710369089 0  0.6602950960832419 0.7341352104387112 0  0.6851027161513473 0.739851225707956 0  0.7294217998978419 0.7640754468894243 0  0.6996637591686781 0.6939341531131464 0  0.694018860281872 0.6690447916380211 0  0.6935929868732879 0.6517500598596828 0  0.6983861389429258 0.6420499577781316 0  0.7061830822068882 0.6425881637145677 0  0.716983816665175 0.6533646776689913 0  0.7404399651295408 0.6977174786421885 0  4.409848011777475e-18 0.2836441493110429 0  0.02761581610568158 0.225740232753984 0  0 0 0  0.04921728502225515 0.2041872048451367 0  1 0 0  0.0588035891615312 0.2235874090082391 0  1 0.2836441493110429 0  0.047513791387919 0.2733661319584893 0  0.9904399651295408 0.2647047767499692 0  0.01868173332223795 0.3349142658762145 0  0.9723841838943184 0.2257402327539838 0  0.07369748950652336 0.3021180723688756 0  0.9507827149777448 0.2041872048451366 0  0.09504070872016973 0.3007906539390308 0  0.9411964108384688 0.2235874090082391 0  0.08321952103164941 0.3186107147616662 0  0.9524862086120812 0.2733661319584897 0  0.02730930621472074 0.3498576604719988 0  0.981318266677762 0.3349142658762145 0  0.09502758277583795 0.3556624327025936 0  0.9263025104934767 0.3021180723688756 0  0.1437821203055082 0.3707745425021815 0  0.9049592912798303 0.3007906539390308 0  0.1557900378797215 0.3887766274967496 0  0.9167804789683508 0.3186107147616664 0  0.126323833723898 0.3967075343831387 0  0.9726906937852793 0.3498576604719987 0  0.06236966295402979 0.3916715743983689 0  0.9049724172241618 0.3556624327025936 0  0.09870801761821625 0.4445395309706578 0  0.8562178796944915 0.3707745425021816 0  0.1065727528574663 0.4740234657658943 0  0.8442099621202785 0.3887766274967497 0  0.08497853114397705 0.4726253465973601 0  0.8736761662761022 0.3967075343831386 0  0.04751379138791896 0.4379587334466978 0  0.9376303370459702 0.3916715743983689 0  0.00862757289248282 0.3822153717595674 0  0.9012919823817835 0.4445395309706582 0  0.009522031525125971 0.4462585109772388 0  0.8934272471425336 0.4740234657658944 0  6.719854822631891e-18 0.4654059902297192 0  0.915021468856023 0.4726253465973601 0  4.409848011777475e-18 0.5723192839058557 0  0.952486208612081 0.4379587334466979 0  0.02761581610568158 0.5144153673487969 0  0.9913724271075172 0.3822153717595674 0  0.04921728502225515 0.4928623394399496 0  0.990477968474874 0.4462585109772389 0  0.0588035891615312 0.512262543603052 0  1 0.4654059902297192 0  0.047513791387919 0.5620412665533021 0  1 0.5723192839058557 0  0.01868173332223795 0.6235894004710274 0  0.9904399651295408 0.5533799113447821 0  0.07369748950652336 0.5907932069636884 0  0.9723841838943184 0.5144153673487967 0  0.09504070872016973 0.5894657885338436 0  0.9507827149777448 0.4928623394399495 0  0.08321952103164941 0.6072858493564791 0  0.9411964108384688 0.512262543603052 0  0.02730930621472074 0.6385327950668116 0  0.9524862086120812 0.5620412665533026 0  0.09502758277583795 0.6443375672974064 0  0.981318266677762 0.6235894004710274 0  0.1437821203055082 0.6594496770969943 0  0.9263025104934767 0.5907932069636884 0  0.1557900378797215 0.6774517620915625 0  0.9049592912798303 0.5894657885338436 0  0.126323833723898 0.6853826689779515 0  0.9167804789683508 0.6072858493564792 0  0.06236966295402979 0.6803467089931817 0  0.9726906937852793 0.6385327950668116 0  0.09870801761821625 0.7332146655654708 0  0.9049724172241618 0.6443375672974064 0  0.1065727528574663 0.7626986003607072 0  0.8562178796944915 0.6594496770969945 0  0.08497853114397705 0.761300481192173 0  0.8442099621202785 0.6774517620915625 0  0.04751379138791896 0.7266338680415106 0  0.8736761662761022 0.6853826689779514 0  0.00862757289248282 0.6708905063543803 0  0.9376303370459702 0.6803467089931818 0  0.009522031525125971 0.7349336455720517 0  0.9012919823817835 0.7332146655654711 0  6.719854822631891e-18 0.754081124824532 0  0.8934272471425336 0.7626986003607072 0  0 1 0  0.915021468856023 0.761300481192173 0  1 1 0  0.952486208612081 0.7266338680415108 0  1 0.754081124824532 0  0.9913724271075172 0.6708905063543802 0  0.990477968474874 0.7349336455720518 0  0.25 0.1393065820136364 0  0.283016183334825 0.07601440847936572 0  0.2404399651295409 0.1203672094525627 0  0.2938169177931118 0.06523789452494208 0  0.2169838166651749 0.0760144084793655 0  0.3016138610570742 0.06469968858850586 0  0.2061830822068882 0.06523789452494194 0  0.3064070131267122 0.07439979067005703 0  0.1983861389429258 0.06469968858850578 0  0.300336240831322 0.1165838839235203 0  0.1935929868732879 0.07439979067005703 0  0.2705782001021581 0.1867251776997985 0  0.1940188602818719 0.09169452244839531 0  0.3148972838486528 0.1625009565183302 0  0.1996637591686781 0.1165838839235206 0  0.3397049039167581 0.1567849412490855 0  0.2294217998978419 0.1867251776997985 0  0.3420854117980396 0.1609081018472831 0  0.1851027161513473 0.1625009565183302 0  0.3247313873324014 0.1795341233990727 0  0.1602950960832419 0.1567849412490855 0  0.2815930545291092 0.2058034652052529 0  0.1579145882019604 0.1609081018472832 0  0.3572162171582555 0.215102892855084 0  0.1752686126675988 0.1795341233990728 0  0.3967840996990615 0.230937496453417 0  0.2184069454708908 0.2058034652052529 0  0.4027880584861682 0.2399385389507011 0  0.1427837828417442 0.2151028928550841 0  0.3984234868407656 0.2464217869209404 0  0.1032159003009383 0.2309374964534172 0  0.3836903847628538 0.2503872403641349 0  0.09721194151383181 0.2399385389507012 0  0.3176651617552441 0.2476316204063759 0  0.1015765131592345 0.2464217869209405 0  0.3152751530376293 0.2517712369358172 0  0.1163096152371463 0.2503872403641349 0  0.3506742014280287 0.3075729473720605 0  0.1823348382447559 0.247631620406376 0  0.3546065690476538 0.3223149147696787 0  0.1847248469623707 0.2517712369358173 0  0.3511741974290939 0.3293363686763543 0  0.149325798571971 0.3075729473720608 0  0.3403770865723494 0.3286373090920872 0  0.1453934309523461 0.3223149147696788 0  0.3256123462049625 0.319621126012288 0  0.1488258025709059 0.3293363686763543 0  0.3068799763269335 0.3022878194369569 0  0.1596229134276507 0.3286373090920872 0  0.2610148544269512 0.2414459533105098 0  0.1931200236730665 0.3022878194369569 0  0.2598341034837485 0.2919395162981583 0  0.2389851455730488 0.2414459533105097 0  0.2523805078812815 0.3162815531191926 0  0.2401658965162515 0.2919395162981584 0  0.2476194921187185 0.3162815531191926 0  0.75 0.1393065820136364 0  0.7830161833348249 0.07601440847936572 0  0.7404399651295408 0.1203672094525627 0  0.7938169177931118 0.06523789452494208 0  0.716983816665175 0.0760144084793655 0  0.8016138610570742 0.06469968858850586 0  0.7061830822068882 0.06523789452494194 0  0.8064070131267121 0.07439979067005703 0  0.6983861389429258 0.06469968858850578 0  0.800336240831322 0.1165838839235203 0  0.6935929868732879 0.07439979067005703 0  0.7705782001021581 0.1867251776997985 0  0.694018860281872 0.09169452244839531 0  0.8148972838486528 0.1625009565183302 0  0.6996637591686781 0.1165838839235206 0  0.8397049039167581 0.1567849412490855 0  0.7294217998978419 0.1867251776997985 0  0.8420854117980396 0.1609081018472831 0  0.6851027161513473 0.1625009565183302 0  0.8247313873324014 0.1795341233990727 0  0.6602950960832419 0.1567849412490855 0  0.7815930545291092 0.2058034652052529 0  0.6579145882019604 0.1609081018472832 0  0.8572162171582555 0.215102892855084 0  0.6752686126675989 0.1795341233990728 0  0.8967840996990615 0.230937496453417 0  0.7184069454708908 0.2058034652052529 0  0.9027880584861682 0.2399385389507011 0  0.6427837828417442 0.2151028928550841 0  0.8984234868407657 0.2464217869209404 0  0.6032159003009383 0.2309374964534172 0  0.8836903847628539 0.2503872403641349 0  0.5972119415138318 0.2399385389507012 0  0.8176651617552441 0.2476316204063759 0  0.6015765131592345 0.2464217869209405 0  0.8152751530376293 0.2517712369358172 0  0.6163096152371463 0.2503872403641349 0  0.8506742014280287 0.3075729473720605 0  0.68
[...]
<PointData  Tensors="$\sigma$"> 
<DataArray  type="Float64"  Name="$\sigma$"  NumberOfComponents="9" format="ascii">-1.3293189152349200e+07 2.1880664705396076e+06 0.0000000000000000e+00 2.1880664705396076e+06 -6.7626292020516014e+06 0.0000000000000000e+00 0.0000000000000000e+00 0.0000000000000000e+00 0.0000000000000000e+00  3.9820222137930535e+07 -3.5488428467248335e+07 0.0000000000000000e+00 -3.5488428467248335e+07 1.6715085960667606e+07 0.0000000000000000e+00 0.0000000000000000e+00 0.0000000000000000e+00 0.0000000000000000e+00  3.4172086900325668e+08 -7.4791070941363305e+07 0.0000000000000000e+00 -7.4791070941363305e+07 3.7953386848456651e+07 0.0000000000000000e+00 0.0000000000000000e+00 0.0000000000000000e+00 0.0000000000000000e+00  3.6820649133244783e+08 1.3208620878293398e+08 0.0000000000000000e+00 1.3208620878293398e+08 1.4372329511193049e+08 0.0000000000000000e+00 0.0000000000000000e+00 0.0000000000000000e+00 0.0000000000000000e+00  6.4933524629944861e+07 7.8976167475536540e+07 0.0000000000000000e+00 7.8976167475536540e+07 -7.8112579633705169e+07 0.0000000000000000e+00 0.0000000000000000e+00 0.0000000000000000e+00 0.0000000000000000e+00  1.0336798216155019e+07 -2.0131925579713508e+06 0.0000000000000000e+00 -2.0131925579713522e+06 -6.7446402342304140e+07 0.0000000000000000e+00 0.0000000000000000e+00 0.0000000000000000e+00 0.0000000000000000e+00  6.7974844160708385e+06 2.0761557357364472e+06 0.0000000000000000e+00 2.0761557357364474e+06 1.1527285382918913e+07 0.0000000000000000e+00 0.0000000000000000e+00 0.0000000000000000e+00 0.0000000000000000e+00  -1.2363738980629614e+07 -4.7575423292530800e+05 0.0000000000000000e+00 -4.7575423292530759e+05 8.8519040450119190e+06 0.0000000000000000e+00 0.0000000000000000e+00 0.0000000000000000e+00 0.0000000000000000e+00  -8.3293446811922312e+07 -7.0708574035072466e+06 0.0000000000000000e+00 -7.0708574035072429e+06 1.3298672576363536e+07 0.0000000000000000e+00 0.0000000000000000e+00 0.0000000000000000e+00 0.0000000000000000e+00  -2.1298813314905237e+07 -3.3942211514974935e+06 0.0000000000000000e+00 -3.3942211514974935e+06 2.1917520422183700e+07 0.0000000000000000e+00 0.0000000000000000e+00 0.0000000000000000e+00 0.0000000000000000e+00  4.8692923454503296e+06 5.8406241934020212e+06 0.0000000000000000e+00 5.8406241934020221e+06 -1.1971070524246977e+06 0.0000000000000000e+00 0.0000000000000000e+00 0.0000000000000000e+00 0.0000000000000000e+00  2.9172715271587129e+05 -9.2938709561516647e+05 0.0000000000000000e+00 -9.2938709561516705e+05 -2.7013081645117518e+06 0.0000000000000000e+00 0.0000000000000000e+00 0.0000000000000000e+00 0.0000000000000000e+00  1.0690640569996536e+07 1.3351927595686091e+07 0.0000000000000000e+00 1.3351927595686091e+07 9.3882162825705409e+06 0.0000000000000000e+00 0.0000000000000000e+00 0.0000000000000000e+00 0.0000000000000000e+00  6.1461483581462771e+07 7.2006091043953702e+07 0.0000000000000000e+00 7.2006091043953702e+07 9.6747159249032110e+07 0.0000000000000000e+00 0.0000000000000000e+00 0.0000000000000000e+00 0.0000000000000000e+00  1.2935131199614933e+08 6.4467720675648376e+07 0.0000000000000000e+00 6.4467720675648376e+07 3.1703645792019337e+08 0.0000000000000000e+00 0.0000000000000000e+00 0.0000000000000000e+00 0.0000000000000000e+00  1.0967806147390649e+07 -6.6119989864071481e+07 0.0000000000000000e+00 -6.6119989864071481e+07 1.1527621390628910e+08 0.0000000000000000e+00 0.0000000000000000e+00 0.0000000000000000e+00 0.0000000000000000e+00  3.3586249904991123e+06 -4.0592658421727763e+06 0.0000000000000000e+00 -4.0592658421727763e+06 3.9353565500736577e+06 0.0000000000000000e+00 0.0000000000000000e+00 0.0000000000000000e+00 0.0000000000000000e+00  -6.3319261994987950e+06 1.8777871534125856e+06 0.0000000000000000e+00 1.8777871534125856e+06 2.6839717658411991e+06 0.0000000000000000e+00 0.0000000000000000e+00 0.0000000000000000e+00 0.0000000000000000e+00  1.9382014817617370e+06 -4.4439821817609724e+06 0.0000000000000000e+00 -4.4439821817609724e+06 -2.9469144136269926e+06 0.0000000000000000e+00 0.0000000000000000e+00 0.0000000000000000e+00 0.0000000000000000e+00  -6.4084187490674923e+05 -1.9835601661331204e+06 0.0000000000000000e+00 -1.9835601661331204e+06 3.1036568227949645e+06 0.0000000000000000e+00 0.0000000000000000e+00 0.0000000000000000e+00 0.0000000000000000e+00  -6.2856503193267039e+05 3.5450067625632291e+06 0.0000000000000000e+00 3.5450067625632291e+06 1.9794612089151360e+07 0.0000000000000000e+00 0.0000000000000000e+00 0.0000000000000000e+00 0.0000000000000000e+00  -3.2210172875190649e+07 -8.6277004343065200e+05 0.0000000000000000e+00 -8.6277004343065026e+05 4.9066112650098754e+06 0.0000000000000000e+00 0.0000000000000000e+00 0.0000000000000000e+00 0.0000000000000000e+00  -3.6306888637640528e+07 -1.0726928021206910e+07 0.0000000000000000e+00 -1.0726928021206910e+07 -4.8875080989183132e+06 0.0000000000000000e+00 0.0000000000000000e+00 0.0000000000000000e+00 0.0000000000000000e+00  -1.1520178207463345e+07 -6.6960791240706630e+06 0.0000000000000000e+00 -6.6960791240706630e+06 -2.8639260160787208e+06 0.0000000000000000e+00 0.0000000000000000e+00 0.0000000000000000e+00 0.0000000000000000e+00  -3.4705666647747154e+06 -7.6519108404241398e+05 0.0000000000000000e+00 -7.6519108404241374e+05 -6.4861317934641417e+05 0.0000000000000000e+00 0.0000000000000000e+00 0.0000000000000000e+00 0.0000000000000000e+00  5.0746528937024641e+05 -1.1541970604265335e+06 0.0000000000000000e+00 -1.1541970604265335e+06 6.3233056766863994e+05 0.0000000000000000e+00 0.0000000000000000e+00 0.0000000000000000e+00 0.0000000000000000e+00  -1.2609086737373266e+05 5.1515078859975957e+05 0.0000000000000000e+00 5.1515078859975981e+05 -9.6548784330647366e+04 0.0000000000000000e+00 0.0000000000000000e+00 0.0000000000000000e+00 0.0000000000000000e+00  -1.4190004193010462e+07 1.7839399806702859e+06 0.0000000000000000e+00 1.7839399806702854e+06 -2.2532926290279166e+06 0.0000000000000000e+00 0.0000000000000000e+00 0.0000000000000000e+00 0.0000000000000000e+00  -1.3921248095587486e+07 -1.8602205550036018e+06 0.0000000000000000e+00 -1.8602205550036018e+06 -1.9415592698369585e+06 0.0000000000000000e+00 0.0000000000000000e+00 0.0000000000000000e+00 0.0000000000000000e+00  -6.5809629450341628e+05 -1.3502612359598369e+05 0.0000000000000000e+00 -1.3502612359598369e+05 -2.4921690832243633e+05 0.0000000000000000e+00 0.0000000000000000e+00 0.0000000000000000e+00 0.0000000000000000e+00  9.9267902213270823e+05 6.5973852940032608e+05 0.0000000000000000e+00 6.5973852940032608e+05 7.0929905187505542e+05 0.0000000000000000e+00 0.0000000000000000e+00 0.0000000000000000e+00 0.0000000000000000e+00  -5.7552782433389220e+06 2.1301809335665330e+06 0.0000000000000000e+00 2.1301809335665330e+06 -7.9905862788436134e+04 0.0000000000000000e+00 0.0000000000000000e+00 0.0000000000000000e+00 0.0000000000000000e+00  -1.9747218612058956e+07 4.7291694059010828e+06 0.0000000000000000e+00 4.7291694059010828e+06 -2.0619274281700805e+06 0.0000000000000000e+00 0.0000000000000000e+00 0.0000000000000000e+00 0.0000000000000000e+00  -3.4192835387438707e+07 1.3910316236623132e+06 0.0000000000000000e+00 1.3910316236623132e+06 -3.8953570539639490e+06 0.0000000000000000e+00 0.0000000000000000e+00 0.0000000000000000e+00 0.0000000000000000e+00  -1.3406730244409868e+06 -3.4915216470466275e+06 0.0000000000000000e+00 -3.4915216470466275e+06 5.9772676134948423e+06 0.0000000000000000e+00 0.0000000000000000e+00 0.0000000000000000e+00 0.0000000000000000e+00  -8.3843199467262515e+04 1.2648116813512193e+06 0.0000000000000000e+00 1.2648116813512193e+06 3.4859996524515736e+04 0.0000000000000000e+00 0.0000000000000000e+00 0.0000000000000000e+00 0.0000000000000000e+00  9.2366346709841234e+05 2.9767206726584751e+06 0.0000000000000000e+00 2.9767206726584751e+06 -2.9665621802432118e+06 0.0000000000000000e+00 0.0000000000000000e+00 0.0000000000000000e+00 0.0000000000000000e+00  -6.0896255288698925e+06 -8.7130398211657384e+05 0.0000000000000000e+00 -8.7130398211657384e+05 1.7542907445618818e+06 0.0000000000000000e+00 0.0000000000000000e+00 0.0000000000000000e+00 0.0000000000000000e+00  1.8153209768101557e+06 -5.3461915668254520e+05 0.0000000000000000e+00 -5.3461915668254485e+05 2.0039497982969126e+06 0.0000000000000000e+00 0.0000000000000000e+00 0.0000000000000000e+00 0.0000000000000000e+00  -1.3028979935429459e+07 5.0796221749353319e+07 0.0000000000000000e+00 5.0796221749353319e+07 7.0025214063536435e+07 0.0000000000000000e+00 0.0000000000000000e+00 0.0000000000000000e+00 0.0000000000000000e+00  1.4990974671874619e+08 -8.6464359392545938e+07 0.0000000000000000e+00 -8.6464359392545953e+07 2.8975190952604103e+08 0.0000000000000000e+00 0.0000000000000000e+00 0.0000000000000000e+00 0.0000000000000000e+00  1.0893503659719956e+08 -1.1249978850058389e+08 0.0000000000000000e+00 -1.1249978850058392e+08 9.0280096531179219e+07 0.0000000000000000e+00 0.0000000000000000e+00 0.0000000000000000e+00 0.0000000000000000e+00  2.9154809616425026e+07 -3.3002406151448760e+07 0.0000000000000000e+00 -3.3002406151448753e+07 2.2452919200214982e+07 0.0000000000000000e+00 0.0000000000000000e+00 0.0000000000000000e+00 0.0000000000000000e+00  -3.7991680919274469e+06 3.6899062478550972e+05 0.0000000000000000e+00 3.6899062478550972e+05 -7.5108368961105617e+06 0.0000000000000000e+00 0.0000000000000000e+00 0.0000000000000000e+00 0.0000000000000000e+00  3.2321657268473129e+06 -1.4753275847857080e+06 0.0000000000000000e+00 -1.4753275847857068e+06 2.5259366951565379e+06 0.0000000000000000e+00 0.0000000000000000e+00 0.0000000000000000e+00 0.0000000000000000e+00  -1.9368093981660970e+07 1.5448856903876677e+07 0.0000000000000000e+00 1.5448856903876673e+07 4.6440975998004839e+07 0.0000000000000000e+00 0.0000000000000000e+00 0.0000000000000000e+00 0.0000000000000000e+00  -9.0964924549360484e+07 3.1335699836455956e+06 0.0000000000000000e+00 3.1335699836455956e+06 2.3910891029778428e+07 0.0000000000000000e+00 0.0000000000000000e+00 0.0000000000000000e+00 0.0000000000000000e+00  -1.7717220811966524e+07 2.7598029658032400e+06 0.0000000000000000e+00 2.7598029658032400e+06 -4.8574379129579263e+06 0.0000000000000000e+00 0.0000000000000000e+00 0.0000000000000000e+00 0.0000000000000000e+00  -1.2198484456106052e+06 -2.3233527209738088e+06 0.0000000000000000e+00 -2.3233527209738088e+06 1.3586519581042642e+07 0.0000000000000000e+00 0.0000000000000000e+00 0.0000000000000000e+00 0.0000000000000000e+00  5.7994006431994168e+05 -2.6148374082710594e+06 0.0000000000000000e+00 -2.6148374082710594e+06 -1.1285640367159551e+08 0.0000000000000000e+00 0.0000000000000000e+00 0.0000000000000000e+00 0.0000000000000000e+00  -6.1929673287962368e+06 -1.7026345972944889e+07 0.0000000000000000e+00 -1.7026345972944889e+07 -2.0460408664938939e+08 0.0000000000000000e+00 0.0000000000000000e+00 0.0000000000000000e+00 0.0000000000000000e+00  1.3763841208969466e+07 -2.9515179313050434e+07 0.0000000000000000e+00 -2.9515179313050434e+07 -1.7044490553928426e+08 0.0000000000000000e+00 0.0000000000000000e+00 0.0000000000000000e+00 0.0000000000000000e+00  1.8416647121336374e+08 -1.3755850564914696e+07 0.0000000000000000e+00 -1.3755850564914696e+07 3.1007920091450851e+07 0.0000000000000000e+00 0.0000000000000000e+00 0.0000000000000000e+00 0.0000000000000000e+00  2.0264306088700765e+08 6.9763711945750773e+07 0.0000000000000000e+00 6.9763711945750773e+07 5.2923663136688016e+07 0.0000000000000000e+00 0.0000000000000000e+00 0.0000000000000000e+00 0.0000000000000000e+00  4.3363968406140521e+07 2.5782220464297213e+07 0.0000000000000000e+00 2.5782220464297213e+07 1.1196904452063862e+07 0.0000000000000000e+00 0.0000000000000000e+00 0.0000000000000000e+00 0.0000000000000000e+00  -1.1007354767039339e+06 6.5889396833559340e+06 0.0000000000000000e+00 6.5889396833559340e+06 5.7954871584080337e+06 0.0000000000000000e+00 0.0000000000000000e+00 0.0000000000000000e+00 0.0000000000000000e+00  -7.5475568700719075e+06 2.7199772191394498e+06 0.0000000000000000e+00 2.7199772191394498e+06 5.7154201494410671e+06 0.0000000000000000e+00 0.0000000000000000e+00 0.0000000000000000e+00 0.0000000000000000e+00  -7.4615550481774826e+06 -2.7314757500485070e+06 0.0000000000000000e+00 -2.7314757500485075e+06 -8.6995736696088780e+06 0.0000000000000000e+00 0.0000000000000000e+00 0.0000000000000000e+00 0.0000000000000000e+00  -4.8751647236234503e+05 1.6373923775717926e+06 0.0000000000000000e+00 1.6373923775717926e+06 7.0011649311388001e+07 0.0000000000000000e+00 0.0000000000000000e+00 0.0000000000000000e+00 0.0000000000000000e+00  4.1171985188813888e+07 4.2655299987514965e+07 0.0000000000000000e+00 4.2655299987514965e+07 6.2710544108383477e+07 0.0000000000000000e+00 0.0000000000000000e+00 0.0000000000000000e+00 0.0000000000000000e+00  -4.7195893452343047e+06 -3.3024222850600234e+06 0.0000000000000000e+00 -3.3024222850600234e+06 7.3399594653819919e+07 0.0000000000000000e+00 0.0000000000000000e+00 0.0000000000000000e+00 0.0000000000000000e+00  2.8886463989768773e+07 4.3236480065096833e+07 0.0000000000000000e+00 4.3236480065096833e+07 3.9038096379496619e+07 0.0000000000000000e+00 0.0000000000000000e+00 0.0000000000000000e+00 0.0000000000000000e+00  1.3580479045755544e+06 2.0847189438415581e+05 0.0000000000000000e+00 2.0847189438415581e+05 1.0043801064414058e+06 0.0000000000000000e+00 0.0000000000000000e+00 0.0000000000000000e+00 0.0000000000000000e+00  1.4638787794601466e+06 -3.8856033482449187e+05 0.0000000000000000e+00 -3.8856033482449187e+05 -3.6238298982912675e+06 0.0000000000000000e+00 0.0000000000000000e+00 0.0000000000000000e+00 0.0000000000000000e+00  -7.0793663670767723e+06 -2.5041596666922132e+06 0.0000000000000000e+00 -2.5041596666922132e+06 4.8400191490444141e+06 0.0000000000000000e+00 0.0000000000000000e+00 0.0000000000000000e+00 0.0000000000000000e+00  -4.3285314260233166e+06 -7.9418426085745031e+06 0.0000000000000000e+00 -7.9418426085745031e+06 -1.0050978996922664e+07 0.0000000000000000e+00 0.0000000000000000e+00 0.0000000000000000e+00 0.0000000000000000e+00  -1.0241271924173849e+07 3.8577042984753973e+06 0.0000000000000000e+00 3.8577042984753973e+06 -9.7051920224709865e+06 0.0000000000000000e+00 0.0000000000000000e+00 0.0000000000000000e+00 0.0000000000000000e+00  -1.0507564506028237e+07 -5.2250350035400735e+06 0.0000000000000000e+00 -5.2250350035400735e+06 -1.4818944449376976e+06 0.0000000000000000e+00 0.0000000000000000e+00 0.0000000000000000e+00 0.0000000000000000e+00  4.2048094162394732e+07 -4.4197039641510509e+07 0.0000000000000000e+00 -4.4197039641510509e+07 6.3439119507055998e+07 0.0000000000000000e+00 0.0000000000000000e+00 0.0000000000000000e+00 0.0000000000000000e+00  5.5906387484258180e+05 4.1473569488911107e+07 0.0000000000000000e+00 4.1473569488911107e+07 5.3836026340072632e+07 0.0000000000000000e+00 0.0000000000000000e+00 0.0000000000000000e+00 0.0000000000000000e+00  2.9493339989418585e+07 -4.3937356103485629e+07 0.0000000000000000e+00 -4.3937356103485629e+07 3.9009296141309157e+07 0.0000000000000000e+00 0.0000000000000000e+00 0.0000000000000000e+00 0.0000000000000000e+00  -1.9393908819704403e+06 -1.4867424607875275e+06 0.0000000000000000e+00 -1.4867424607875275e+06 -6.2957765768242385e+06 0.0000000000000000e+00 0.0000000000000000e+00 0.0000000000000000e+00 0.0000000000000000e+00  1.4991289730886165e+06 4.8789244100421574e+05 0.0000000000000000e+00 4.8789244100421574e+05 -3.8467792829176374e+06 0.0000000000000000e+00 0.0000000000000000e+00 0.0000000000000000e+00 0.0000000000000000e+00  -6.8647712140240837e+06 -6.9053839842745252e+06 0.0000000000000000e+00 -6.9053839842745252e+06 -7.8166992771675810e+06 0.0000000000000000e+00 0.0000000000000000e+00 0.0000000000000000e+00 0.0000000000000000e+00  -4.5676408806572538e+06 8.2483656684946353e+06 0.0000000000000000e+00 8.2483656684946353e+06 -9.9674757646592502e+06 0.0000000000000000e+00 0.0000000000000000e+00 0.0000000000000000e+00 0.0000000000000000e+00  8.2421968400275707e+06 3.1324370528925750e+06 0.0000000000000000e+00 3.1324370528925750e+06 -5.3214914385338770e+06 0.0000000000000000e+00 0.0000000000000000e+00 0.0000000000000000e+00 0.0000000000000000e+00  -1.0572294963862607e+07 5.1135864396445602e+06 0.0000000000000000e+00 5.1135864396445602e+06 -1.8342261375425605e+06 0.0000000000000000e+00 0.0000000000000000e+00 0.0000000000000000e+00 0.0000000000000000e+00  1.1543279063105406e+07 6.3757676572419278e+07 0.0000000000000000e+00 6.3757676572419278e+07 1.4070584398832497e+08 0.0000000000000000e+00 0.0000000000000000e+00 0.0000000000000000e+00 0.0000000000000000e+00  3.0098349209979223e+06 -4.3478049884532139e+07 0.0000000000000000e+00 -4.3478049884532139e+07 6.1368409610634081e+07 0.0000000000000000e+00 0.0000000000000000e+00 0.0000000000000000e+00 0.0000000000000000e+00  1.2276359254666986e+08 -1.3530962616805064e+07 0.0000000000000000e+00 -1.3530962616805064e+07 2.8012740468970644e+08 0.0000000000000000e+00 0.0000000000000000e+00 0.0000000000000000e+00 0.0000000000000000e+00  -2.1612031203164258e+06 1.7172162173627054e+06 0.0000000000000000e+00 1.7172162173627054e+06 -3.5789412354618665e+06 0.0000000000000000e+00 0.0000000000000000e+00 0.0000000000000000e+00 0.0000000000000000e+00  2.5159864616740365e+07 -4.4681986797731429e+07 0.0000000000000000e+00 -4.4681986797731429e+07 1.8637965205768369e+07 0.0000000000000000e+00 0.0000000000000000e+00 0.0000000000000000e+00 0.0000000000000000e+00  -7.5260181147744134e+06 7.3523064290872701e+06 0.0000000000000000e+00 7.3523064290872701e+06 -8.6352100971171521e+06 0.0000000000000000e+00 0.0000000000000000e+00 0.0000000000000000e+00 0.0000000000000000e+00  -2.6499549922441547e+06 5.2658829560676655e+06 0.0000000000000000e+00 5.2658829560676645e+06 3.8685623105527577e+06 0.0000000000000000e+00 0.0000000000000000e+00 0.0000000000000000e+00 0.0000000000000000e+00  9.6291961881186366e+06 -4.9060766313341353e+06 0.0000000000000000e+00 -4.9060766313341353e+06 -3.8733898683032040e+06 0.0000000000000000e+00 0.0000000000000000e+00 0.0000000000000000e+00 0.0000000000000000e+00  1.9682959086049702e+07 -2.2854776212701639e+06 0.0000000000000000e+00 -2.2854776212701630e+06 2.6393728286277641e+07 0.0000000000000000e+00 0.0000000000000000e+00 0.0000000000000000e+00 0.0000000000000000e+00  3.0083688785366211e+07 -8.1676031927629486e+07 0.0000000000000000e+00 -8.1676031927629486e+07 1.8483048449819192e+08 0.0000000000000000e+00 0.0000000000000000e+00 0.0000000000000000e+00 0.0000000000000000e+00  -1.1445717838071235e+08 6.1531432904563390e+05 0.0000000000000000e+00 6.1531432904563390e+05 7.5033890899476275e+07 0.0000000000000000e+00 0.0000000000000000e+00 0.0000000000000000e+00 0.0000000000000000e+00  1.5754020010097092e+08 5.5993009881826323e+06 0.0000000000000000e+00 5.5993009881826332e+06 3.0971865407588381e+08 0.0000000000000000e+00 0.0000000000000000e+00 0.0000000000000000e+00 0.0000000000000000e+00  -9.8810246805924803e+07 2.7622620196759056e+07 0.0000000000000000e+00 2.7622620196759056e+07 -4.4555542887310367e+06 0.0000000000000000e+00 0.0000000000000000e+00 0.0000000000000000e+00 0.0000000000000000e+00  2.5734183481530331e+07 2.2238550589517228e+07 0.0000000000000000e+00 2.2238550589517225e+07 -2.2080926225671858e+07 0.0000000000000000e+00 0.0000000000000000e+00 0.0000000000000000e+00 0.0000000000000000e+00  3.8594396618701573e+06 -6.6520770769001180e+06 0.0000000000000000e+00 -6.6520770769001180e+06 -5.2653983768926153e+05 0.0000000000000000e+00 0.0000000000000000e+00 0.0000000000000000e+00 0.0000000000000000e+00  -4.4461584151342437e+06 -4.5808864200390009e+06 0.0000000000000000e+00 -4.5808864200390028e+06 1.1964842709184466e+07 0.0000000000000000e+00 0.0000000000000000e+00 0.0000000000000000e+00 0.0000000000000000e+00  1.1982309812199562e+06 4.1425620036820206e+06 0.0000000000000000e+00 4.1425620036820206e+06 -5.2947450419240270e+05 0.0000000000000000e+00 0.0000000000000000e+00 0.0000000000000000e+00 0.0000000000000000e+00  1.2052220105961937e+07 4.6230826084654396e+06 0.0000000000000000e+00 4.6230826084654368e+06 2.4186986098154556e+07 0.0000000000000000e+00 0.000000000