<?xml version="1.0"?>
<VTKFile type="UnstructuredGrid"  version="0.1"  >
<UnstructuredGrid>
<Piece  NumberOfPoints="4927" NumberOfCells="9484">
<Points>
<DataArray  type="Float64"  NumberOfComponents="3"  format="ascii">0.25 0.375 0  0.75 0.375 0  0.75 0.625 0  0.25 0.625 0  0 0 0  1 0 0  0 1 0  1 1 0  0.2647058823529412 0.375 0  0.2794117647058824 0.375 0  0.2941176470588236 0.375 0  0.3088235294117648 0.375 0  0.323529411764706 0.375 0  0.3382352941176471 0.375 0  0.3529411764705883 0.375 0  0.3676470588235295 0.375 0  0.3823529411764707 0.375 0  0.397058823529412 0.375 0  0.4117647058823533 0.375 0  0.4264705882352944 0.375 0  0.4411764705882357 0.375 0  0.4558823529411769 0.375 0  0.4705882352941181 0.375 0  0.4852941176470593 0.375 0  0.5000000000000006 0.375 0  0.5147058823529416 0.375 0  0.5294117647058828 0.375 0  0.5441176470588239 0.375 0  0.5588235294117651 0.375 0  0.5735294117647062 0.375 0  0.5882352941176473 0.375 0  0.6029411764705884 0.375 0  0.6176470588235297 0.375 0  0.6323529411764707 0.375 0  0.6470588235294118 0.375 0  0.661764705882353 0.375 0  0.6764705882352942 0.375 0  0.6911764705882352 0.375 0  0.7058823529411764 0.375 0  0.7205882352941175 0.375 0  0.7352941176470587 0.375 0  0.75 0.3897058823529412 0  0.75 0.4044117647058824 0  0.75 0.4191176470588236 0  0.75 0.4338235294117648 0  0.75 0.448529411764706 0  0.75 0.4632352941176472 0  0.75 0.4779411764705884 0  0.75 0.4926470588235297 0  0.75 0.5073529411764708 0  0.75 0.5220588235294119 0  0.75 0.536764705882353 0  0.75 0.5514705882352942 0  0.75 0.5661764705882353 0  0.75 0.5808823529411765 0  0.75 0.5955882352941175 0  0.75 0.6102941176470588 0  0.7352941176470588 0.625 0  0.7205882352941176 0.625 0  0.7058823529411764 0.625 0  0.6911764705882352 0.625 0  0.676470588235294 0.625 0  0.6617647058823528 0.625 0  0.6470588235294117 0.625 0  0.6323529411764705 0.625 0  0.6176470588235292 0.625 0  0.6029411764705881 0.625 0  0.5882352941176467 0.625 0  0.5735294117647056 0.625 0  0.5588235294117643 0.625 0  0.5441176470588232 0.625 0  0.5294117647058819 0.625 0  0.5147058823529407 0.625 0  0.4999999999999994 0.625 0  0.4852941176470584 0.625 0  0.4705882352941172 0.625 0  0.4558823529411761 0.625 0  0.4411764705882349 0.625 0  0.4264705882352938 0.625 0  0.4117647058823527 0.625 0  0.3970588235294116 0.625 0  0.3823529411764704 0.625 0  0.3676470588235293 0.625 0  0.3529411764705882 0.625 0  0.338235294117647 0.625 0  0.3235294117647059 0.625 0  0.3088235294117648 0.625 0  0.2941176470588237 0.625 0  0.2794117647058825 0.625 0  0.2647058823529413 0.625 0  0.25 0.6102941176470588 0  0.25 0.5955882352941176 0  0.25 0.5808823529411764 0  0.25 0.5661764705882353 0  0.25 0.551470588235294 0  0.25 0.5367647058823528 0  0.25 0.5220588235294116 0  0.25 0.5073529411764703 0  0.25 0.4926470588235292 0  0.25 0.477941176470588 0  0.25 0.4632352941176469 0  0.25 0.4485294117647058 0  0.25 0.4338235294117647 0  0.25 0.4191176470588235 0  0.25 0.4044117647058824 0  0.25 0.3897058823529412 0  0.01492537313432838 0 0  0.02985074626865675 0 0  0.04477611940298513 0 0  0.05970149253731351 0 0  0.0746268656716419 0 0  0.08955223880597028 0 0  0.1044776119402987 0 0  0.1194029850746271 0 0  0.1343283582089554 0 0  0.1492537313432838 0 0  0.1641791044776121 0 0  0.1791044776119405 0 0  0.1940298507462689 0 0  0.2089552238805972 0 0  0.2238805970149256 0 0  0.2388059701492539 0 0  0.2537313432835824 0 0  0.2686567164179108 0 0  0.2835820895522392 0 0  0.2985074626865676 0 0  0.313432835820896 0 0  0.3283582089552244 0 0  0.3432835820895528 0 0  0.3582089552238813 0 0  0.3731343283582096 0 0  0.3880597014925381 0 0  0.4029850746268665 0 0  0.4179104477611949 0 0  0.4328358208955234 0 0  0.4477611940298517 0 0  0.4626865671641802 0 0  0.4776119402985086 0 0  0.4925373134328369 0 0  0.5074626865671652 0 0  0.5223880597014936 0 0  0.5373134328358218 0 0  0.5522388059701502 0 0  0.5671641791044785 0 0  0.5820895522388068 0 0  0.5970149253731351 0 0  0.6119402985074635 0 0  0.6268656716417917 0 0  0.64179104477612 0 0  0.6567164179104483 0 0  0.6716417910447767 0 0  0.6865671641791049 0 0  0.7014925373134333 0 0  0.7164179104477616 0 0  0.7313432835820899 0 0  0.7462686567164182 0 0  0.7611940298507465 0 0  0.7761194029850749 0 0  0.791044776119403 0 0  0.8059701492537314 0 0  0.8208955223880597 0 0  0.835820895522388 0 0  0.8507462686567163 0 0  0.8656716417910447 0 0  0.8805970149253729 0 0  0.8955223880597013 0 0  0.9104477611940296 0 0  0.925373134328358 0 0  0.9402985074626862 0 0  0.9552238805970146 0 0  0.9701492537313429 0 0  0.9850746268656715 0 0  0 0.9850746268656716 0  0 0.9701492537313432 0  0 0.9552238805970149 0  0 0.9402985074626865 0  0 0.9253731343283581 0  0 0.9104477611940297 0  0 0.8955223880597013 0  0 0.8805970149253729 0  0 0.8656716417910446 0  0 0.8507462686567162 0  0 0.8358208955223878 0  0 0.8208955223880595 0  0 0.8059701492537311 0  0 0.7910447761194028 0  0 0.7761194029850744 0  0 0.761194029850746 0  0 0.7462686567164176 0  0 0.7313432835820892 0  0 0.7164179104477608 0  0 0.7014925373134324 0  0 0.686567164179104 0  0 0.6716417910447756 0  0 0.6567164179104472 0  0 0.6417910447761187 0  0 0.6268656716417904 0  0 0.6119402985074619 0  0 0.5970149253731335 0  0 0.5820895522388051 0  0 0.5671641791044766 0  0 0.5522388059701483 0  0 0.5373134328358198 0  0 0.5223880597014914 0  0 0.5074626865671631 0  0 0.4925373134328348 0  0 0.4776119402985064 0  0 0.4626865671641782 0  0 0.4477611940298498 0  0 0.4328358208955215 0  0 0.4179104477611932 0  0 0.4029850746268649 0  0 0.3880597014925365 0  0 0.3731343283582083 0  0 0.35820895522388 0  0 0.3432835820895517 0  0 0.3283582089552233 0  0 0.3134328358208951 0  0 0.2985074626865667 0  0 0.2835820895522384 0  0 0.2686567164179101 0  0 0.2537313432835818 0  0 0.2388059701492535 0  0 0.2238805970149251 0  0 0.208955223880597 0  0 0.1940298507462686 0  0 0.1791044776119403 0  0 0.164179104477612 0  0 0.1492537313432837 0  0 0.1343283582089553 0  0 0.1194029850746271 0  0 0.1044776119402987 0  0 0.08955223880597041 0  0 0.07462686567164201 0  0 0.05970149253731383 0  0 0.04477611940298543 0  0 0.02985074626865714 0  0 0.01492537313432851 0  1 0.01492537313432838 0  1 0.02985074626865675 0  1 0.04477611940298513 0  1 0.05970149253731351 0  1 0.0746268656716419 0  1 0.08955223880597028 0  1 0.1044776119402987 0  1 0.1194029850746271 0  1 0.1343283582089554 0  1 0.1492537313432838 0  1 0.1641791044776121 0  1 0.1791044776119405 0  1 0.1940298507462689 0  1 0.2089552238805972 0  1 0.2238805970149256 0  1 0.2388059701492539 0  1 0.2537313432835824 0  1 0.2686567164179108 0  1 0.2835820895522392 0  1 0.2985074626865676 0  1 0.313432835820896 0  1 0.3283582089552244 0  1 0.3432835820895528 0  1 0.3582089552238813 0  1 0.3731343283582096 0  1 0.3880597014925381 0  1 0.4029850746268665 0  1 0.4179104477611949 0  1 0.4328358208955234 0  1 0.4477611940298517 0  1 0.4626865671641802 0  1 0.4776119402985086 0  1 0.4925373134328369 0  1 0.5074626865671652 0  1 0.5223880597014936 0  1 0.5373134328358218 0  1 0.5522388059701502 0  1 0.5671641791044785 0  1 0.5820895522388068 0  1 0.5970149253731351 0  1 0.6119402985074635 0  1 0.6268656716417917 0  1 0.64179104477612 0  1 0.6567164179104483 0  1 0.6716417910447767 0  1 0.6865671641791049 0  1 0.7014925373134333 0  1 0.7164179104477616 0  1 0.7313432835820899 0  1 0.7462686567164182 0  1 0.7611940298507465 0  1 0.7761194029850749 0  1 0.791044776119403 0  1 0.8059701492537314 0  1 0.8208955223880597 0  1 0.835820895522388 0  1 0.8507462686567163 0  1 0.8656716417910447 0  1 0.8805970149253729 0  1 0.8955223880597013 0  1 0.9104477611940296 0  1 0.925373134328358 0  1 0.9402985074626862 0  1 0.9552238805970146 0  1 0.9701492537313429 0  1 0.9850746268656715 0  0.9850746268656716 1 0  0.9701492537313432 1 0  0.9552238805970149 1 0  0.9402985074626865 1 0  0.9253731343283581 1 0  0.9104477611940297 1 0  0.8955223880597013 1 0  0.8805970149253729 1 0  0.8656716417910446 1 0  0.8507462686567162 1 0  0.8358208955223878 1 0  0.8208955223880595 1 0  0.8059701492537311 1 0  0.7910447761194028 1 0  0.7761194029850744 1 0  0.761194029850746 1 0  0.7462686567164176 1 0  0.7313432835820892 1 0  0.7164179104477608 1 0  0.7014925373134324 1 0  0.686567164179104 1 0  0.6716417910447756 1 0  0.6567164179104472 1 0  0.6417910447761187 1 0  0.6268656716417904 1 0  0.6119402985074619 1 0  0.5970149253731335 1 0  0.5820895522388051 1 0  0.5671641791044766 1 0  0.5522388059701483 1 0  0.5373134328358198 1 0  0.5223880597014914 1 0  0.5074626865671631 1 0  0.4925373134328348 1 0  0.4776119402985064 1 0  0.4626865671641782 1 0  0.4477611940298498 1 0  0.4328358208955215 1 0  0.4179104477611932 1 0  0.4029850746268649 1 0  0.3880597014925365 1 0  0.3731343283582083 1 0  0.35820895522388 1 0  0.3432835820895517 1 0  0.3283582089552233 1 0  0.3134328358208951 1 0  0.2985074626865667 1 0  0.2835820895522384 1 0  0.2686567164179101 1 0  0.2537313432835818 1 0  0.2388059701492535 1 0  0.2238805970149251 1 0  0.208955223880597 1 0  0.1940298507462686 1 0  0.1791044776119403 1 0  0.164179104477612 1 0  0.1492537313432837 1 0  0.1343283582089553 1 0  0.1194029850746271 1 0  0.1044776119402987 1 0  0.08955223880597041 1 0  0.07462686567164201 1 0  0.05970149253731383 1 0  0.04477611940298543 1 0  0.02985074626865714 1 0  0.01492537313432851 1 0  0.7985030883698783 0.0129251304499387 0  0.2014969116301217 0.9870748695500613 0  0.7980301542560837 0.9879339487451649 0  0.2023841138248529 0.0126197137530919 0  0.7264006859031349 0.3616219423513272 0  0.2735993140968634 0.6383780576486734 0  0.7263180407650828 0.6383797052649109 0  0.2736819592349155 0.3616202947350906 0  0.3454572246840688 0.6367372753606266 0  0.6545427753159301 0.3632627246393733 0  0.6545453606051581 0.6379779251390181 0  0.3454546393948388 0.362022074860985 0  0.4184952374609722 0.6395607702020289 0  0.5815047625390279 0.3604392297979762 0  0.5798289416677546 0.638167695262169 0  0.420171058332243 0.3618323047378351 0  0.5068
[...]
<PointData  Tensors="$\sigma$"> 
<DataArray  type="Float64"  Name="$\sigma$"  NumberOfComponents="9" format="ascii">1.3191107303052691e+08 -1.2453734155165593e+08 0.0000000000000000e+00 -1.2453734155165593e+08 3.9497698375756186e+08 0.0000000000000000e+00 0.0000000000000000e+00 0.0000000000000000e+00 0.0000000000000000e+00  1.3237178063839577e+08 1.2456930741720870e+08 0.0000000000000000e+00 1.2456930741720870e+08 3.9550599773639733e+08 0.0000000000000000e+00 0.0000000000000000e+00 0.0000000000000000e+00 0.0000000000000000e+00  1.3191150247774020e+08 -1.2453929034491639e+08 0.0000000000000000e+00 -1.2453929034491639e+08 3.9498269625004590e+08 0.0000000000000000e+00 0.0000000000000000e+00 0.0000000000000000e+00 0.0000000000000000e+00  1.3238311821547611e+08 1.2457485824078065e+08 0.0000000000000000e+00 1.2457485824078065e+08 3.9551712132654893e+08 0.0000000000000000e+00 0.0000000000000000e+00 0.0000000000000000e+00 0.0000000000000000e+00  5.5419587548843399e+07 1.0985363422673693e+07 0.0000000000000000e+00 1.0985363422673693e+07 2.3425142941228616e+08 0.0000000000000000e+00 0.0000000000000000e+00 0.0000000000000000e+00 0.0000000000000000e+00  1.3069633578479466e+05 -2.2505257693938416e+05 0.0000000000000000e+00 -2.2505257693938416e+05 2.2982490552441335e+08 0.0000000000000000e+00 0.0000000000000000e+00 0.0000000000000000e+00 0.0000000000000000e+00  1.3069505106978888e+05 -2.2504974382191995e+05 0.0000000000000000e+00 -2.2504974382191995e+05 2.2982708046909836e+08 0.0000000000000000e+00 0.0000000000000000e+00 0.0000000000000000e+00 0.0000000000000000e+00  6.4772653256241581e+04 3.9722346781167673e+05 0.0000000000000000e+00 3.9722346781167673e+05 2.2950117412527314e+08 0.0000000000000000e+00 0.0000000000000000e+00 0.0000000000000000e+00 0.0000000000000000e+00  1.2063290900818173e+07 -4.3697066379931189e+07 0.0000000000000000e+00 -4.3697066379931189e+07 -6.2303001376043588e+07 0.0000000000000000e+00 0.0000000000000000e+00 0.0000000000000000e+00 0.0000000000000000e+00  -1.3502912939419296e+08 1.4879453704816215e+07 0.0000000000000000e+00 1.4879453704816215e+07 1.7008775585130848e+07 0.0000000000000000e+00 0.0000000000000000e+00 0.0000000000000000e+00 0.0000000000000000e+00  -1.1197056225849819e+08 -5.3581834634583499e+06 0.0000000000000000e+00 -5.3581834634583499e+06 1.5164942440834192e+06 0.0000000000000000e+00 0.0000000000000000e+00 0.0000000000000000e+00 0.0000000000000000e+00  -1.1277893945361380e+08 3.0568213790141954e+06 0.0000000000000000e+00 3.0568213790141954e+06 1.8482081913072040e+05 0.0000000000000000e+00 0.0000000000000000e+00 0.0000000000000000e+00 0.0000000000000000e+00  -1.1586869418781719e+08 5.6630715065453900e+05 0.0000000000000000e+00 5.6630715065453900e+05 3.2977123571929615e+05 0.0000000000000000e+00 0.0000000000000000e+00 0.0000000000000000e+00 0.0000000000000000e+00  -1.1435736258892077e+08 6.1517459916235681e+05 0.0000000000000000e+00 6.1517459916235681e+05 -7.0183848422357580e+04 0.0000000000000000e+00 0.0000000000000000e+00 0.0000000000000000e+00 0.0000000000000000e+00  -1.1268865579246949e+08 1.2395440933491651e+06 0.0000000000000000e+00 1.2395440933491651e+06 6.5828323113086040e+05 0.0000000000000000e+00 0.0000000000000000e+00 0.0000000000000000e+00 0.0000000000000000e+00  -1.1189183988905145e+08 5.5053787737762916e+05 0.0000000000000000e+00 5.5053787737762916e+05 -2.1864357484041282e+05 0.0000000000000000e+00 0.0000000000000000e+00 0.0000000000000000e+00 0.0000000000000000e+00  -1.0987714764223623e+08 4.9553056519483542e+05 0.0000000000000000e+00 4.9553056519483542e+05 4.6020204719110817e+05 0.0000000000000000e+00 0.0000000000000000e+00 0.0000000000000000e+00 0.0000000000000000e+00  -1.0797586267400098e+08 -3.9282924339755601e+05 0.0000000000000000e+00 -3.9282924339755601e+05 8.4271357077946785e+04 0.0000000000000000e+00 0.0000000000000000e+00 0.0000000000000000e+00 0.0000000000000000e+00  -1.0686542333862679e+08 1.1151936508376116e+06 0.0000000000000000e+00 1.1151936508376116e+06 1.1580310575928362e+05 0.0000000000000000e+00 0.0000000000000000e+00 0.0000000000000000e+00 0.0000000000000000e+00  -1.0593945587573379e+08 2.8032957004397141e+05 0.0000000000000000e+00 2.8032957004397141e+05 2.9560014733322407e+05 0.0000000000000000e+00 0.0000000000000000e+00 0.0000000000000000e+00 0.0000000000000000e+00  -1.0510038958049922e+08 1.1811239948825385e+05 0.0000000000000000e+00 1.1811239948825385e+05 -1.8506198800880098e+05 0.0000000000000000e+00 0.0000000000000000e+00 0.0000000000000000e+00 0.0000000000000000e+00  -1.0412608448775594e+08 -2.1844090014419580e+05 0.0000000000000000e+00 -2.1844090014419580e+05 4.0742027954808297e+05 0.0000000000000000e+00 0.0000000000000000e+00 0.0000000000000000e+00 0.0000000000000000e+00  -1.0277720556379418e+08 -4.9228020134479064e+05 0.0000000000000000e+00 -4.9228020134479064e+05 -1.3792994933709566e+04 0.0000000000000000e+00 0.0000000000000000e+00 0.0000000000000000e+00 0.0000000000000000e+00  -1.0390878249912302e+08 7.6759319102732639e+05 0.0000000000000000e+00 7.6759319102732639e+05 5.6734863830106007e+05 0.0000000000000000e+00 0.0000000000000000e+00 0.0000000000000000e+00 0.0000000000000000e+00  -1.0354963239625379e+08 -7.7684550172336865e+05 0.0000000000000000e+00 -7.7684550172336865e+05 3.0673817361288139e+05 0.0000000000000000e+00 0.0000000000000000e+00 0.0000000000000000e+00 0.0000000000000000e+00  -1.0326243138047069e+08 7.5896449907832372e+05 0.0000000000000000e+00 7.5896449907832372e+05 3.6076376556668594e+05 0.0000000000000000e+00 0.0000000000000000e+00 0.0000000000000000e+00 0.0000000000000000e+00  -1.0293623973297143e+08 -2.8291769769195671e+05 0.0000000000000000e+00 -2.8291769769195671e+05 5.2098275158554497e+04 0.0000000000000000e+00 0.0000000000000000e+00 0.0000000000000000e+00 0.0000000000000000e+00  -1.0457152613044523e+08 -6.6211493587860710e+05 0.0000000000000000e+00 -6.6211493587860710e+05 2.2101771783057795e+05 0.0000000000000000e+00 0.0000000000000000e+00 0.0000000000000000e+00 0.0000000000000000e+00  -1.0478304237038045e+08 -3.4322255769009766e+05 0.0000000000000000e+00 -3.4322255769009766e+05 7.5592614448029912e+04 0.0000000000000000e+00 0.0000000000000000e+00 0.0000000000000000e+00 0.0000000000000000e+00  -1.0549965183922647e+08 -9.3012040884810709e+05 0.0000000000000000e+00 -9.3012040884810709e+05 5.7057391982571935e+04 0.0000000000000000e+00 0.0000000000000000e+00 0.0000000000000000e+00 0.0000000000000000e+00  -1.0680743896172911e+08 1.2334280004336724e+05 0.0000000000000000e+00 1.2334280004336724e+05 2.2436422997465395e+05 0.0000000000000000e+00 0.0000000000000000e+00 0.0000000000000000e+00 0.0000000000000000e+00  -1.0945964027642584e+08 -2.5930147842790751e+05 0.0000000000000000e+00 -2.5930147842790751e+05 2.7258667132918956e+05 0.0000000000000000e+00 0.0000000000000000e+00 0.0000000000000000e+00 0.0000000000000000e+00  -1.0936139462493135e+08 -9.7739526575872756e+05 0.0000000000000000e+00 -9.7739526575872756e+05 3.6262315507699345e+05 0.0000000000000000e+00 0.0000000000000000e+00 0.0000000000000000e+00 0.0000000000000000e+00  -1.1117951874333516e+08 5.9777474297460052e+05 0.0000000000000000e+00 5.9777474297460052e+05 3.9789403269843879e+05 0.0000000000000000e+00 0.0000000000000000e+00 0.0000000000000000e+00 0.0000000000000000e+00  -1.1484377136957054e+08 -1.0360185442381516e+06 0.0000000000000000e+00 -1.0360185442381516e+06 3.3399056200636289e+05 0.0000000000000000e+00 0.0000000000000000e+00 0.0000000000000000e+00 0.0000000000000000e+00  -1.1214084405724809e+08 -2.1809131625445401e+06 0.0000000000000000e+00 -2.1809131625445401e+06 1.5214500936843565e+05 0.0000000000000000e+00 0.0000000000000000e+00 0.0000000000000000e+00 0.0000000000000000e+00  -1.1672851155973051e+08 1.1694795195347187e+06 0.0000000000000000e+00 1.1694795195347187e+06 1.3490875198416777e+06 0.0000000000000000e+00 0.0000000000000000e+00 0.0000000000000000e+00 0.0000000000000000e+00  -1.1658921223270902e+08 -5.0268191588750798e+06 0.0000000000000000e+00 -5.0268191588750798e+06 1.4049380563982869e+06 0.0000000000000000e+00 0.0000000000000000e+00 0.0000000000000000e+00 0.0000000000000000e+00  -1.1168041682143085e+08 5.0890341759548420e+06 0.0000000000000000e+00 5.0890341759548420e+06 2.5700396859531174e+06 0.0000000000000000e+00 0.0000000000000000e+00 0.0000000000000000e+00 0.0000000000000000e+00  -1.3409524202248035e+08 -1.5336720921565905e+07 0.0000000000000000e+00 -1.5336720921565905e+07 1.6226794133459413e+07 0.0000000000000000e+00 0.0000000000000000e+00 0.0000000000000000e+00 0.0000000000000000e+00  1.1752757600258045e+07 4.4003664787269458e+07 0.0000000000000000e+00 4.4003664787269458e+07 -6.1854465183631860e+07 0.0000000000000000e+00 0.0000000000000000e+00 0.0000000000000000e+00 0.0000000000000000e+00  3.8266628744142398e+07 3.3745233617132120e+07 0.0000000000000000e+00 3.3745233617132120e+07 4.8459381677659696e+08 0.0000000000000000e+00 0.0000000000000000e+00 0.0000000000000000e+00 0.0000000000000000e+00  -1.6218679709477127e+06 -2.7565740478863628e+06 0.0000000000000000e+00 -2.7565740478863628e+06 3.6875277835588622e+08 0.0000000000000000e+00 0.0000000000000000e+00 0.0000000000000000e+00 0.0000000000000000e+00  -2.2106440502683022e+06 4.5995538114750935e+06 0.0000000000000000e+00 4.5995538114750935e+06 3.5071332420119762e+08 0.0000000000000000e+00 0.0000000000000000e+00 0.0000000000000000e+00 0.0000000000000000e+00  5.9893832787940465e+05 5.9843679733806185e+05 0.0000000000000000e+00 5.9843679733806185e+05 3.3961568626835275e+08 0.0000000000000000e+00 0.0000000000000000e+00 0.0000000000000000e+00 0.0000000000000000e+00  -3.7264806399909715e+05 6.1036067162765923e+05 0.0000000000000000e+00 6.1036067162765923e+05 3.3208239508683187e+08 0.0000000000000000e+00 0.0000000000000000e+00 0.0000000000000000e+00 0.0000000000000000e+00  -1.2395239453092823e+05 3.2240738429699041e+05 0.0000000000000000e+00 3.2240738429699041e+05 3.2842519524002361e+08 0.0000000000000000e+00 0.0000000000000000e+00 0.0000000000000000e+00 0.0000000000000000e+00  -1.4066130509142089e+05 1.6669329579924874e+05 0.0000000000000000e+00 1.6669329579924874e+05 3.2621251321050543e+08 0.0000000000000000e+00 0.0000000000000000e+00 0.0000000000000000e+00 0.0000000000000000e+00  -1.3609742053921556e+05 5.5183518809141766e+04 0.0000000000000000e+00 5.5183518809141766e+04 3.2520765664529157e+08 0.0000000000000000e+00 0.0000000000000000e+00 0.0000000000000000e+00 0.0000000000000000e+00  -1.3136478315484666e+05 -8.4156677885221681e+04 0.0000000000000000e+00 -8.4156677885221681e+04 3.2519639789121616e+08 0.0000000000000000e+00 0.0000000000000000e+00 0.0000000000000000e+00 0.0000000000000000e+00  -1.4621609163772649e+05 -1.9407818030315472e+05 0.0000000000000000e+00 -1.9407818030315472e+05 3.2622686213405192e+08 0.0000000000000000e+00 0.0000000000000000e+00 0.0000000000000000e+00 0.0000000000000000e+00  -1.4019218244431439e+05 -3.4789568003277760e+05 0.0000000000000000e+00 -3.4789568003277760e+05 3.2837766095186245e+08 0.0000000000000000e+00 0.0000000000000000e+00 0.0000000000000000e+00 0.0000000000000000e+00  -3.9868808131574531e+05 -6.1460128987594065e+05 0.0000000000000000e+00 -6.1460128987594065e+05 3.3212893734070134e+08 0.0000000000000000e+00 0.0000000000000000e+00 0.0000000000000000e+00 0.0000000000000000e+00  5.4235769964350772e+05 -5.9846627673836739e+05 0.0000000000000000e+00 -5.9846627673836739e+05 3.3953681435886109e+08 0.0000000000000000e+00 0.0000000000000000e+00 0.0000000000000000e+00 0.0000000000000000e+00  -2.2496242289426774e+06 -4.5978503519813400e+06 0.0000000000000000e+00 -4.5978503519813400e+06 3.5073262675246352e+08 0.0000000000000000e+00 0.0000000000000000e+00 0.0000000000000000e+00 0.0000000000000000e+00  -1.9156373703577307e+06 2.9616558817432206e+06 0.0000000000000000e+00 2.9616558817432206e+06 3.6865683974085200e+08 0.0000000000000000e+00 0.0000000000000000e+00 0.0000000000000000e+00 0.0000000000000000e+00  3.8628079678828888e+07 -3.3788708672514081e+07 0.0000000000000000e+00 -3.3788708672514081e+07 4.8488644764519608e+08 0.0000000000000000e+00 0.0000000000000000e+00 0.0000000000000000e+00 0.0000000000000000e+00  1.2058832712351145e+07 -4.3697709204265676e+07 0.0000000000000000e+00 -4.3697709204265676e+07 -6.2304145447608471e+07 0.0000000000000000e+00 0.0000000000000000e+00 0.0000000000000000e+00 0.0000000000000000e+00  -1.3503633561153537e+08 1.4879635362587577e+07 0.0000000000000000e+00 1.4879635362587577e+07 1.7009042382336296e+07 0.0000000000000000e+00 0.0000000000000000e+00 0.0000000000000000e+00 0.0000000000000000e+00  -1.1197775557804513e+08 -5.3583878556742072e+06 0.0000000000000000e+00 -5.3583878556742072e+06 1.5165297329237359e+06 0.0000000000000000e+00 0.0000000000000000e+00 0.0000000000000000e+00 0.0000000000000000e+00  -1.1278650205586201e+08 3.0568437590374826e+06 0.0000000000000000e+00 3.0568437590374826e+06 1.8482391491549060e+05 0.0000000000000000e+00 0.0000000000000000e+00 0.0000000000000000e+00 0.0000000000000000e+00  -1.1587648689738846e+08 5.6628974931521143e+05 0.0000000000000000e+00 5.6628974931521143e+05 3.2978889396261034e+05 0.0000000000000000e+00 0.0000000000000000e+00 0.0000000000000000e+00 0.0000000000000000e+00  -1.1436515434208824e+08 6.1519668930077099e+05 0.0000000000000000e+00 6.1519668930077099e+05 -7.0189105232473521e+04 0.0000000000000000e+00 0.0000000000000000e+00 0.0000000000000000e+00 0.0000000000000000e+00  -1.1269631631631874e+08 1.2396024297073530e+06 0.0000000000000000e+00 1.2396024297073530e+06 6.5831051667896309e+05 0.0000000000000000e+00 0.0000000000000000e+00 0.0000000000000000e+00 0.0000000000000000e+00  -1.1189931795860626e+08 5.5058263539186632e+05 0.0000000000000000e+00 5.5058263539186632e+05 -2.1865582220981285e+05 0.0000000000000000e+00 0.0000000000000000e+00 0.0000000000000000e+00 0.0000000000000000e+00  -1.0988430833834100e+08 4.9559472944653581e+05 0.0000000000000000e+00 4.9559472944653581e+05 4.6023101871842204e+05 0.0000000000000000e+00 0.0000000000000000e+00 0.0000000000000000e+00 0.0000000000000000e+00  -1.0798269647351140e+08 -3.9279289150364499e+05 0.0000000000000000e+00 -3.9279289150364499e+05 8.4275348858198951e+04 0.0000000000000000e+00 0.0000000000000000e+00 0.0000000000000000e+00 0.0000000000000000e+00  -1.0687180227584150e+08 1.1153082902051467e+06 0.0000000000000000e+00 1.1153082902051467e+06 1.1580563195619297e+05 0.0000000000000000e+00 0.0000000000000000e+00 0.0000000000000000e+00 0.0000000000000000e+00  -1.0594550427964672e+08 2.8039869275851682e+05 0.0000000000000000e+00 2.8039869275851682e+05 2.9560618090872659e+05 0.0000000000000000e+00 0.0000000000000000e+00 0.0000000000000000e+00 0.0000000000000000e+00  -1.0510600756385769e+08 1.1815820911858538e+05 0.0000000000000000e+00 1.1815820911858538e+05 -1.8507274739383909e+05 0.0000000000000000e+00 0.0000000000000000e+00 0.0000000000000000e+00 0.0000000000000000e+00  -1.0413130401066490e+08 -2.1838342151905611e+05 0.0000000000000000e+00 -2.1838342151905611e+05 4.0744144251548417e+05 0.0000000000000000e+00 0.0000000000000000e+00 0.0000000000000000e+00 0.0000000000000000e+00  -1.0278200961721408e+08 -4.9224578964530950e+05 0.0000000000000000e+00 -4.9224578964530950e+05 -1.3799718057087661e+04 0.0000000000000000e+00 0.0000000000000000e+00 0.0000000000000000e+00 0.0000000000000000e+00  -1.0391315464170420e+08 7.6770066992395744e+05 0.0000000000000000e+00 7.6770066992395744e+05 5.6736256506969000e+05 0.0000000000000000e+00 0.0000000000000000e+00 0.0000000000000000e+00 0.0000000000000000e+00  -1.0355374077328308e+08 -7.7682076551281486e+05 0.0000000000000000e+00 -7.7682076551281486e+05 3.0674422854958707e+05 0.0000000000000000e+00 0.0000000000000000e+00 0.0000000000000000e+00 0.0000000000000000e+00  -1.0326600699429412e+08 7.5904969056741963e+05 0.0000000000000000e+00 7.5904969056741963e+05 3.6079167464047455e+05 0.0000000000000000e+00 0.0000000000000000e+00 0.0000000000000000e+00 0.0000000000000000e+00  -1.0293949944522688e+08 -2.8283131680623832e+05 0.0000000000000000e+00 -2.8283131680623832e+05 5.2102895072159707e+04 0.0000000000000000e+00 0.0000000000000000e+00 0.0000000000000000e+00 0.0000000000000000e+00  -1.0457452907869872e+08 -6.6207614959174721e+05 0.0000000000000000e+00 -6.6207614959174721e+05 2.2101435793950784e+05 0.0000000000000000e+00 0.0000000000000000e+00 0.0000000000000000e+00 0.0000000000000000e+00  -1.0478565297086163e+08 -3.4317247967927327e+05 0.0000000000000000e+00 -3.4317247967927327e+05 7.5596828891859230e+04 0.0000000000000000e+00 0.0000000000000000e+00 0.0000000000000000e+00 0.0000000000000000e+00  -1.0550196273176557e+08 -9.3008175405215123e+05 0.0000000000000000e+00 -9.3008175405215123e+05 5.7057875873636098e+04 0.0000000000000000e+00 0.0000000000000000e+00 0.0000000000000000e+00 0.0000000000000000e+00  -1.0680936755419004e+08 1.2340714008198118e+05 0.0000000000000000e+00 1.2340714008198118e+05 2.2436516171623996e+05 0.0000000000000000e+00 0.0000000000000000e+00 0.0000000000000000e+00 0.0000000000000000e+00  -1.0946132353549182e+08 -2.5924632007683659e+05 0.0000000000000000e+00 -2.5924632007683659e+05 2.7259263715770614e+05 0.0000000000000000e+00 0.0000000000000000e+00 0.0000000000000000e+00 0.0000000000000000e+00  -1.0936277337362826e+08 -9.7735861996794527e+05 0.0000000000000000e+00 -9.7735861996794527e+05 3.6263385631471552e+05 0.0000000000000000e+00 0.0000000000000000e+00 0.0000000000000000e+00 0.0000000000000000e+00  -1.1118049321289481e+08 5.9784617172492191e+05 0.0000000000000000e+00 5.9784617172492191e+05 3.9790138642994832e+05 0.0000000000000000e+00 0.0000000000000000e+00 0.0000000000000000e+00 0.0000000000000000e+00  -1.1484452631826881e+08 -1.0359729234824954e+06 0.0000000000000000e+00 -1.0359729234824954e+06 3.3399471626568417e+05 0.0000000000000000e+00 0.0000000000000000e+00 0.0000000000000000e+00 0.0000000000000000e+00  -1.1214114636313994e+08 -2.1809051816336052e+06 0.0000000000000000e+00 -2.1809051816336052e+06 1.5214658724119002e+05 0.0000000000000000e+00 0.0000000000000000e+00 0.0000000000000000e+00 0.0000000000000000e+00  -1.1672838594723907e+08 1.1695902618927360e+06 0.0000000000000000e+00 1.1695902618927360e+06 1.3491039691063161e+06 0.0000000000000000e+00 0.0000000000000000e+00 0.0000000000000000e+00 0.0000000000000000e+00  -1.1658866917873177e+08 -5.0268634902356742e+06 0.0000000000000000e+00 -5.0268634902356742e+06 1.4049714586642147e+06 0.0000000000000000e+00 0.0000000000000000e+00 0.0000000000000000e+00 0.0000000000000000e+00  -1.1167896871856132e+08 5.0892934999595573e+06 0.0000000000000000e+00 5.0892934999595573e+06 2.5701106820479943e+06 0.0000000000000000e+00 0.0000000000000000e+00 0.0000000000000000e+00 0.0000000000000000e+00  -1.3409400755548744e+08 -1.5336998993527738e+07 0.0000000000000000e+00 -1.5336998993527738e+07 1.6227282842971556e+07 0.0000000000000000e+00 0.0000000000000000e+00 0.0000000000000000e+00 0.0000000000000000e+00  1.1760902045335589e+07 4.4004921304240473e+07 0.0000000000000000e+00 4.4004921304240473e+07 -6.1856622286149010e+07 0.0000000000000000e+00 0.0000000000000000e+00 0.0000000000000000e+00 0.0000000000000000e+00  3.8272169984872736e+07 3.3743976854984909e+07 0.0000000000000000e+00 3.3743976854984909e+07 4.8459318459685612e+08 0.0000000000000000e+00 0.0000000000000000e+00 0.0000000000000000e+00 0.0000000000000000e+00  -1.6243807558906414e+06 -2.7577815203203470e+06 0.0000000000000000e+00 -2.7577815203203470e+06 3.6875966970663089e+08 0.0000000000000000e+00 0.0000000000000000e+00 0.0000000000000000e+00 0.0000000000000000e+00  -2.2105781068764646e+06 4.5999082086739913e+06 0.0000000000000000e+00 4.5999082086739913e+06 3.5071830024729753e+08 0.0000000000000000e+00 0.0000000000000000e+00 0.0000000000000000e+00 0.0000000000000000e+00  5.9899151666312304e+05 5.9849545813576039e+05 0.0000000000000000e+00 5.9849545813576039e+05 3.3961976689314663e+08 0.0000000000000000e+00 0.0000000000000000e+00 0.0000000000000000e+00 0.0000000000000000e+00  -3.7266557447485789e+05 6.1044089469606429e+05 0.0000000000000000e+00 6.1044089469606429e+05 3.3208572310810560e+08 0.0000000000000000e+00 0.0000000000000