<?xml version="1.0"?>
<VTKFile type="UnstructuredGrid"  version="0.1"  >
<UnstructuredGrid>
<Piece  NumberOfPoints="1939" NumberOfCells="3200">
<Points>
<DataArray  type="Float64"  NumberOfComponents="3"  format="ascii">0.9763053574970657 0.7041684279153713 0  0.9861928812542302 0.7357022603955158 0  0.9624982387512955 0.6903613091696008 0  0 0.3195262145875635 0  0.0236946425029343 0.2958315720846288 0  0.1242640687119285 0.2642977396044842 0  0.03750176124870452 0.3096386908303991 0  0 0.3471404520791033 0  -6.938893903907228e-18 0.6528595479208968 0  0.0236946425029343 0.6291649054179622 0  0.1242640687119285 0.5976310729378175 0  0.0375017612487045 0.6429720241637323 0  6.938893903907228e-18 0.6804737854124364 0  0 1 0  1 1 0  1 0.6804737854124365 0  1 0.652859547920897 0  1 0.3471404520791033 0  0.9763053574970657 0.3708350945820379 0  0.9861928812542302 0.4023689270621825 0  0.9624982387512955 0.3570279758362677 0  1 0.3195262145875636 0  1 0 0  0 0 0  0.2041684279153713 0.190361309169601 0  0.2909307353785952 0.2357022603955159 0  0.1429720241637324 0.1291649054179621 0  0.190361309169601 0.2041684279153712 0  0.1528595479208969 0.0976310729378175 0  0.1291649054179622 0.1429720241637324 0  0.3096386908303991 0.370835094582038 0  0.3195262145875636 0.4023689270621825 0  0.3708350945820379 0.3096386908303991 0  0.2958315720846288 0.3570279758362677 0  0.4575974020452619 0.2642977396044842 0  0.3570279758362677 0.2958315720846288 0  0.5375017612487045 0.190361309169601 0  0.6242640687119285 0.2357022603955159 0  0.4763053574970657 0.1291649054179622 0  0.5236946425029343 0.2041684279153712 0  0.4861928812542302 0.0976310729378175 0  0.4624982387512955 0.1429720241637324 0  0.8708350945820378 0.190361309169601 0  0.9575974020452618 0.2357022603955159 0  0.809638690830399 0.1291649054179622 0  0.8570279758362676 0.2041684279153712 0  0.8195262145875635 0.0976310729378175 0  0.7958315720846287 0.1429720241637324 0  0.6429720241637323 0.3708350945820379 0  0.6528595479208968 0.4023689270621825 0  0.704168427915371 0.3096386908303991 0  0.629164905417962 0.3570279758362677 0  0.7909307353785952 0.2642977396044842 0  0.6903613091696009 0.2958315720846288 0  0.2041684279153712 0.5236946425029343 0  0.2909307353785952 0.5690355937288492 0  0.1429720241637324 0.4624982387512955 0  0.190361309169601 0.5375017612487045 0  0.1528595479208969 0.4309644062711508 0  0.1291649054179622 0.4763053574970657 0  0.3096386908303991 0.7041684279153712 0  0.3195262145875636 0.7357022603955158 0  0.3708350945820378 0.6429720241637323 0  0.2958315720846288 0.6903613091696009 0  0.4575974020452619 0.5976310729378175 0  0.3570279758362677 0.6291649054179621 0  0.2041684279153713 0.8570279758362676 0  0.2909307353785952 0.9023689270621824 0  0.1429720241637324 0.7958315720846287 0  0.190361309169601 0.8708350945820378 0  0.1528595479208969 0.7642977396044841 0  0.1291649054179622 0.809638690830399 0  0.5375017612487045 0.5236946425029343 0  0.6242640687119285 0.5690355937288492 0  0.4763053574970657 0.4624982387512955 0  0.5236946425029343 0.5375017612487045 0  0.4861928812542302 0.4309644062711508 0  0.4624982387512955 0.4763053574970657 0  0.6429720241637323 0.7041684279153712 0  0.6528595479208968 0.7357022603955158 0  0.7041684279153712 0.6429720241637323 0  0.6291649054179621 0.6903613091696009 0  0.7909307353785952 0.5976310729378175 0  0.6903613091696009 0.6291649054179622 0  0.8708350945820378 0.5236946425029343 0  0.9575974020452618 0.5690355937288492 0  0.809638690830399 0.4624982387512955 0  0.8570279758362676 0.5375017612487045 0  0.8195262145875635 0.4309644062711508 0  0.7958315720846287 0.4763053574970657 0  0.5375017612487045 0.8570279758362676 0  0.6242640687119285 0.9023689270621824 0  0.4763053574970657 0.7958315720846287 0  0.5236946425029343 0.8708350945820378 0  0.4861928812542302 0.7642977396044841 0  0.4624982387512955 0.809638690830399 0  0.8708350945820378 0.8570279758362676 0  0.9575974020452618 0.9023689270621824 0  0.809638690830399 0.7958315720846287 0  0.8570279758362676 0.8708350945820378 0  0.8195262145875635 0.7642977396044841 0  0.7958315720846287 0.809638690830399 0  0.9836630591924831 0.7191784463916734 0  0.9808536190118701 0.7593929948937933 0  0.9658681881954474 0.7785030834756596 0  0.9441340486739206 0.7893375563109836 0  0.9198535352230742 0.7898015486857478 0  0.8977213285753726 0.7798053468438481 0  0.8820167304978983 0.7612817343024038 0  0.8757762531366841 0.7378122846994681 0  0.8802065039585936 0.713934858120887 0  0.8944508860380426 0.6942661977309356 0  0.9157552226056797 0.6826092742185584 0  0.9400002820561066 0.6812179746081856 0  0.01184732125146727 0.3076788933360963 0  0.01481251277961377 0.2747878273700506 0  0.01520519429990608 0.2519497621880381 0  0.0248055192283469 0.231223807896315 0  0.04197136026361224 0.2161551211059463 0  0.06376651509751882 0.2093211876997542 0  0.08646294128815807 0.2118909460944471 0  0.1061784347051552 0.2234248413323349 0  0.119540677198818 0.2419500105778447 0  0.119104414309793 0.2876064859154696 0  0.1045895202201829 0.3065600485807512 0  0.08343145977877998 0.3176169996296296 0  0.05958356610697061 0.3187113741347365 0  0.02500117416580287 0.3221392779133003 0  0.01250058708290143 0.3346398649962018 0  0 0.629342694394605 0  0 0.6058258408683133 0  0 0.5823089873420214 0  0 0.5587921338157296 0  0 0.5352752802894378 0  0 0.511758426763146 0  0 0.4882415732368542 0  0 0.4647247197105624 0  0 0.4412078661842705 0  0 0.4176910126579787 0  0 0.394174159131687 0  0 0.3706573056053951 0  0.01184732125146722 0.6410122266694296 0  0.01481251277961378 0.608121160703384 0  0.01520519429990606 0.5852830955213714 0  0.02480551922834687 0.5645571412296483 0  0.04197136026361224 0.5494884544392795 0  0.06376651509751882 0.5426545210330874 0  0.08646294128815807 0.5452242794277803 0  0.1061784347051552 0.5567581746656681 0  0.119540677198818 0.575283343911178 0  0.119104414309793 0.6209398192488029 0  0.1045895202201829 0.6398933819140845 0  0.08343145977877998 0.6509503329629629 0  0.0595835661069706 0.6520447074680698 0  0.02500117416580288 0.6554726112466336 0  0.01250058708290146 0.6679731983295349 0  0 0.9754210604163412 0  0 0.9508421208326825 0  0 0.9262631812490236 0  0 0.9016842416653649 0  0 0.8771053020817061 0  0 0.8525263624980475 0  0 0.8279474229143887 0  0 0.8033684833307301 0  0 0.7787895437470713 0  0 0.7542106041634125 0  0 0.7296316645797538 0  0 0.7050527249960951 0  0.975 1 0  0.95 1 0  0.925 1 0  0.9 1 0  0.875 1 0  0.85 1 0  0.825 1 0  0.8 1 0  0.775 1 0  0.75 1 0  0.725 1 0  0.7 1 0  0.675 1 0  0.65 1 0  0.625 1 0  0.6 1 0  0.575 1 0  0.55 1 0  0.525 1 0  0.5 1 0  0.475 1 0  0.45 1 0  0.425 1 0  0.4 1 0  0.375 1 0  0.35 1 0  0.325 1 0  0.3 1 0  0.275 1 0  0.25 1 0  0.225 1 0  0.2 1 0  0.175 1 0  0.15 1 0  0.125 1 0  0.09999999999999998 1 0  0.07499999999999996 1 0  0.05000000000000004 1 0  0.02500000000000002 1 0  1 0.7050527249960952 0  1 0.7296316645797539 0  1 0.7542106041634127 0  1 0.7787895437470713 0  1 0.80336848333073 0  1 0.8279474229143887 0  1 0.8525263624980475 0  1 0.8771053020817061 0  1 0.9016842416653649 0  1 0.9262631812490236 0  1 0.9508421208326825 0  1 0.9754210604163412 0  0.9881526787485327 0.6923211066639038 0  0.9749988258341972 0.6778607220866997 0  0.9874994129170985 0.6653601350037983 0  1 0.3706573056053951 0  1 0.3941741591316869 0  1 0.4176910126579788 0  1 0.4412078661842705 0  1 0.4647247197105624 0  1 0.4882415732368542 0  1 0.511758426763146 0  1 0.5352752802894378 0  1 0.5587921338157296 0  1 0.5823089873420214 0  1 0.6058258408683133 0  1 0.6293426943946051 0  0.9881526787485327 0.3589877733305705 0  0.9836630591924831 0.3858451130583401 0  0.9808536190118701 0.42605966156046 0  0.9658681881954474 0.4451697501423263 0  0.9441340486739206 0.4560042229776503 0  0.9198535352230742 0.4564682153524146 0  0.8977213285753726 0.4464720135105148 0  0.8820167304978983 0.4279484009690705 0  0.8757762531366841 0.4044789513661348 0  0.8802065039585936 0.3806015247875537 0  0.8944508860380427 0.3609328643976023 0  0.9157552226056797 0.3492759408852252 0  0.9400002820561066 0.3478846412748523 0  0.9749988258341972 0.3445273887533665 0  0.9874994129170985 0.3320268016704651 0  1 0.02457893958365876 0  1 0.04915787916731754 0  1 0.07373681875097632 0  1 0.0983157583346351 0  1 0.1228946979182939 0  1 0.1474736375019526 0  1 0.1720525770856113 0  1 0.1966315166692699 0  1 0.2212104562529287 0  1 0.2457893958365875 0  1 0.2703683354202462 0  1 0.2949472750039049 0  0.025 0 0  0.05 0 0  0.075 0 0  0.1 0 0  0.125 0 0  0.15 0 0  0.175 0 0  0.2 0 0  0.225 0 0  0.25 0 0  0.275 0 0  0.3 0 0  0.325 0 0  0.35 0 0  0.375 0 0  0.4 0 0  0.425 0 0  0.45 0 0  0.475 0 0  0.5 0 0  0.525 0 0  0.55 0 0  0.575 0 0  0.6 0 0  0.625 0 0  0.65 0 0  0.675 0 0  0.7 0 0  0.725 0 0  0.75 0 0  0.775 0 0  0.8 0 0  0.825 0 0  0.85 0 0  0.875 0 0  0.9 0 0  0.925 0 0  0.95 0 0  0.975 0 0  0 0.2949472750039048 0  0 0.2703683354202461 0  0 0.2457893958365873 0  0 0.2212104562529287 0  0 0.19663151666927 0  0 0.1720525770856113 0  0 0.1474736375019525 0  0 0.1228946979182939 0  0 0.09831575833463513 0  0 0.07373681875097637 0  0 0.04915787916731751 0  0 0.02457893958365875 0  0.2262502327736374 0.1812886258652635 0  0.2500981264454467 0.1823830003703704 0  0.2712561868868496 0.1934399514192489 0  0.2857710809764597 0.2123935140845305 0  0.1582711251016419 0.1444640063558721 0  0.1735702260395516 0.1597631072937818 0  0.1888693269774613 0.1750622082316915 0  0.2862073438654846 0.2580499894221554 0  0.2728451013718218 0.2765751586676652 0  0.2531296079548245 0.2881090539055531 0  0.2304331817641851 0.2906788123002459 0  0.2086380269302785 0.2838448788940536 0  0.1914721858950134 0.2687761921036848 0  0.1818718609665727 0.2480502378119619 0  0.1814791794462804 0.2252121726299494 0  0.1503297258591498 0.1141548869416599 0  0.1750622082316914 0.1888693269774613 0  0.1597631072937817 0.1735702260395516 0  0.144464006355872 0.1582711251016419 0  0.106666
[...]
<PointData  Tensors="$\sigma$"> 
<DataArray  type="Float64"  Name="$\sigma$"  NumberOfComponents="9" format="ascii">-2.0562311520212286e+04 -1.9733249605617457e+04 0.0000000000000000e+00 -1.9733249605617453e+04 -2.7702692493741790e+04 0.0000000000000000e+00 0.0000000000000000e+00 0.0000000000000000e+00 0.0000000000000000e+00  3.1926195843353518e+04 -3.6021378065368382e+05 0.0000000000000000e+00 -3.6021378065368382e+05 1.3620241216067045e+04 0.0000000000000000e+00 0.0000000000000000e+00 0.0000000000000000e+00 0.0000000000000000e+00  -8.0965912335168412e+06 7.6309328689352155e+05 0.0000000000000000e+00 7.6309328689352155e+05 1.0210422652021283e+04 0.0000000000000000e+00 0.0000000000000000e+00 0.0000000000000000e+00 0.0000000000000000e+00  9.1951278487344771e+03 -1.4488495446683860e+03 0.0000000000000000e+00 -1.4488495446683867e+03 1.4366549871295304e+03 0.0000000000000000e+00 0.0000000000000000e+00 0.0000000000000000e+00 0.0000000000000000e+00  1.5799973155778127e+04 -4.9570039248078383e+03 0.0000000000000000e+00 -4.9570039248078401e+03 -1.9721155369772725e+03 0.0000000000000000e+00 0.0000000000000000e+00 0.0000000000000000e+00 0.0000000000000000e+00  1.6915631445166465e+07 7.3069256271100156e+06 0.0000000000000000e+00 7.3069256271100156e+06 2.2407643478056648e+08 0.0000000000000000e+00 0.0000000000000000e+00 0.0000000000000000e+00 0.0000000000000000e+00  -1.0375409087872813e+07 1.3379682615699847e+06 0.0000000000000000e+00 1.3379682615699847e+06 -2.9976655157647086e+06 0.0000000000000000e+00 0.0000000000000000e+00 0.0000000000000000e+00 0.0000000000000000e+00  -4.7840299207770573e+06 9.5914216160592530e+06 0.0000000000000000e+00 9.5914216160592530e+06 -2.0229786584052399e+07 0.0000000000000000e+00 0.0000000000000000e+00 0.0000000000000000e+00 0.0000000000000000e+00  6.2514906481497974e+03 -1.2357854299678233e+03 0.0000000000000000e+00 -1.2357854299678240e+03 1.5952397042747905e+03 0.0000000000000000e+00 0.0000000000000000e+00 0.0000000000000000e+00 0.0000000000000000e+00  1.1817115477745248e+04 -5.0150934952729776e+03 0.0000000000000000e+00 -5.0150934952729758e+03 -1.0095560466595970e+03 0.0000000000000000e+00 0.0000000000000000e+00 0.0000000000000000e+00 0.0000000000000000e+00  1.6836721666051704e+07 7.4949067900625686e+05 0.0000000000000000e+00 7.4949067900625896e+05 2.3184477352961048e+08 0.0000000000000000e+00 0.0000000000000000e+00 0.0000000000000000e+00 0.0000000000000000e+00  -1.4875166975120222e+07 7.6426452824751288e+05 0.0000000000000000e+00 7.6426452824751288e+05 -2.0889845160778647e+06 0.0000000000000000e+00 0.0000000000000000e+00 0.0000000000000000e+00 0.0000000000000000e+00  -1.0318986101516023e+06 1.0994572734009111e+07 0.0000000000000000e+00 1.0994572734009111e+07 -2.9005621167143147e+07 0.0000000000000000e+00 0.0000000000000000e+00 0.0000000000000000e+00 0.0000000000000000e+00  3.8013540346871945e+05 -2.3076012074845942e+05 0.0000000000000000e+00 -2.3076012074845942e+05 4.0557374852205262e+07 0.0000000000000000e+00 0.0000000000000000e+00 0.0000000000000000e+00 0.0000000000000000e+00  -1.9569367776748447e+06 2.2115361142243878e+06 0.0000000000000000e+00 2.2115361142243855e+06 7.7811056497549132e+07 0.0000000000000000e+00 0.0000000000000000e+00 0.0000000000000000e+00 0.0000000000000000e+00  2.8340759474954020e+03 -7.1583393403786949e+03 0.0000000000000000e+00 -7.1583393403786931e+03 -5.6099240650074507e+03 0.0000000000000000e+00 0.0000000000000000e+00 0.0000000000000000e+00 0.0000000000000000e+00  -2.8619471672066008e+06 1.2464268188064924e+07 0.0000000000000000e+00 1.2464268188064924e+07 -1.8331627341587737e+07 0.0000000000000000e+00 0.0000000000000000e+00 0.0000000000000000e+00 0.0000000000000000e+00  -5.9777409272845625e+03 3.0381806529988745e+02 0.0000000000000000e+00 3.0381806529988745e+02 -4.3753229643694904e+03 0.0000000000000000e+00 0.0000000000000000e+00 0.0000000000000000e+00 0.0000000000000000e+00  -1.3082526000105912e+04 -8.8687079816529456e+02 0.0000000000000000e+00 -8.8687079816529456e+02 -1.4392106897344085e+04 0.0000000000000000e+00 0.0000000000000000e+00 0.0000000000000000e+00 0.0000000000000000e+00  -1.2758708303531373e+05 2.1542054562595757e+04 0.0000000000000000e+00 2.1542054562595757e+04 -5.3874713647267754e+03 0.0000000000000000e+00 0.0000000000000000e+00 0.0000000000000000e+00 0.0000000000000000e+00  -1.5468301862763325e+07 -2.1277674448801223e+06 0.0000000000000000e+00 -2.1277674448801223e+06 1.0368235535041345e+06 0.0000000000000000e+00 0.0000000000000000e+00 0.0000000000000000e+00 0.0000000000000000e+00  -4.2643062776231160e+06 1.0715692897164017e+07 0.0000000000000000e+00 1.0715692897164017e+07 -2.2838586860028844e+07 0.0000000000000000e+00 0.0000000000000000e+00 0.0000000000000000e+00 0.0000000000000000e+00  -2.5790783412972451e+05 -8.3002369408175652e+05 0.0000000000000000e+00 -8.3002369408175652e+05 4.0586542428843044e+07 0.0000000000000000e+00 0.0000000000000000e+00 0.0000000000000000e+00 0.0000000000000000e+00  -2.5718299564294754e+04 2.4826797505371808e+06 0.0000000000000000e+00 2.4826797505371808e+06 7.7945724384359732e+07 0.0000000000000000e+00 0.0000000000000000e+00 0.0000000000000000e+00 0.0000000000000000e+00  -5.6844771644777302e+06 1.7805329592391506e+06 0.0000000000000000e+00 1.7805329592391511e+06 7.5208479522521154e+05 0.0000000000000000e+00 0.0000000000000000e+00 0.0000000000000000e+00 0.0000000000000000e+00  1.9458550277529452e+07 -2.0638760363780156e+07 0.0000000000000000e+00 -2.0638760363780156e+07 1.3372703796467926e+08 0.0000000000000000e+00 0.0000000000000000e+00 0.0000000000000000e+00 0.0000000000000000e+00  -6.6698406008625787e+05 2.1049707600469992e+05 0.0000000000000000e+00 2.1049707600469992e+05 -1.4889139220359593e+06 0.0000000000000000e+00 0.0000000000000000e+00 0.0000000000000000e+00 0.0000000000000000e+00  -1.4577564468754008e+06 1.1302553483909363e+05 0.0000000000000000e+00 1.1302553483909363e+05 -4.7854391959553503e+07 0.0000000000000000e+00 0.0000000000000000e+00 0.0000000000000000e+00 0.0000000000000000e+00  -2.4483832814452979e+06 -7.0584740990210818e+06 0.0000000000000000e+00 -7.0584740990210818e+06 -3.0731092944911782e+07 0.0000000000000000e+00 0.0000000000000000e+00 0.0000000000000000e+00 0.0000000000000000e+00  -3.5087121349562779e+07 -2.0598758195110929e+05 0.0000000000000000e+00 -2.0598758195110929e+05 3.7190873451526570e+06 0.0000000000000000e+00 0.0000000000000000e+00 0.0000000000000000e+00 0.0000000000000000e+00  -4.3722299835593544e+05 7.4135902408641651e+06 0.0000000000000000e+00 7.4135902408641661e+06 -2.6967473509932104e+07 0.0000000000000000e+00 0.0000000000000000e+00 0.0000000000000000e+00 0.0000000000000000e+00  -3.2225345461389143e+06 1.9170790349704634e+07 0.0000000000000000e+00 1.9170790349704646e+07 -1.8872441818260077e+08 0.0000000000000000e+00 0.0000000000000000e+00 0.0000000000000000e+00 0.0000000000000000e+00  -2.9031822505432013e+07 1.2715998817584768e+06 0.0000000000000000e+00 1.2715998817584787e+06 -9.5842250933759846e+05 0.0000000000000000e+00 0.0000000000000000e+00 0.0000000000000000e+00 0.0000000000000000e+00  -2.5024537192469124e+07 4.9048625580808852e+05 0.0000000000000000e+00 4.9048625580808852e+05 1.7255619336688190e+06 0.0000000000000000e+00 0.0000000000000000e+00 0.0000000000000000e+00 0.0000000000000000e+00  2.0542180569906775e+07 2.5785329948205380e+06 0.0000000000000000e+00 2.5785329948205380e+06 2.5079210254753897e+08 0.0000000000000000e+00 0.0000000000000000e+00 0.0000000000000000e+00 0.0000000000000000e+00  -1.1597472499978738e+06 -1.3366818203273602e+06 0.0000000000000000e+00 -1.3366818203273602e+06 -3.2429535637207534e+07 0.0000000000000000e+00 0.0000000000000000e+00 0.0000000000000000e+00 0.0000000000000000e+00  -5.1279585497706374e+06 1.5101675863524091e+06 0.0000000000000000e+00 1.5101675863524098e+06 5.7386052534062613e+05 0.0000000000000000e+00 0.0000000000000000e+00 0.0000000000000000e+00 0.0000000000000000e+00  1.9222484549008064e+07 -1.9493893798688989e+07 0.0000000000000000e+00 -1.9493893798688997e+07 1.3275289563867803e+08 0.0000000000000000e+00 0.0000000000000000e+00 0.0000000000000000e+00 0.0000000000000000e+00  -2.3919847988810687e+05 -1.6574944821189190e+05 0.0000000000000000e+00 -1.6574944821189190e+05 -7.8311609329025890e+05 0.0000000000000000e+00 0.0000000000000000e+00 0.0000000000000000e+00 0.0000000000000000e+00  -9.7817818626341969e+05 2.5028556144127543e+06 0.0000000000000000e+00 2.5028556144127524e+06 -4.2957712737160042e+07 0.0000000000000000e+00 0.0000000000000000e+00 0.0000000000000000e+00 0.0000000000000000e+00  -1.7902537110571652e+06 -5.1859711245792108e+06 0.0000000000000000e+00 -5.1859711245792108e+06 -2.9742145006271403e+07 0.0000000000000000e+00 0.0000000000000000e+00 0.0000000000000000e+00 0.0000000000000000e+00  -2.0678493777375102e+07 -2.4427672038576384e+06 0.0000000000000000e+00 -2.4427672038576342e+06 -2.4772348490570728e+06 0.0000000000000000e+00 0.0000000000000000e+00 0.0000000000000000e+00 0.0000000000000000e+00  -5.3985332780293748e+06 9.2271580239072605e+05 0.0000000000000000e+00 9.2271580239072605e+05 5.5083380123230605e+05 0.0000000000000000e+00 0.0000000000000000e+00 0.0000000000000000e+00 0.0000000000000000e+00  5.2438054142824812e+06 -1.9974822950333182e+07 0.0000000000000000e+00 -1.9974822950333182e+07 1.4006295549498808e+08 0.0000000000000000e+00 0.0000000000000000e+00 0.0000000000000000e+00 0.0000000000000000e+00  -6.4553213578580576e+05 -1.1105605519517577e+05 0.0000000000000000e+00 -1.1105605519517577e+05 -1.5426306610757106e+06 0.0000000000000000e+00 0.0000000000000000e+00 0.0000000000000000e+00 0.0000000000000000e+00  -9.3616771651841933e+05 2.3783565669226754e+06 0.0000000000000000e+00 2.3783565669226712e+06 -4.0524509808665998e+07 0.0000000000000000e+00 0.0000000000000000e+00 0.0000000000000000e+00 0.0000000000000000e+00  -2.7188964096663464e+06 -5.7702595859620096e+06 0.0000000000000000e+00 -5.7702595859620096e+06 -2.5300386859807249e+07 0.0000000000000000e+00 0.0000000000000000e+00 0.0000000000000000e+00 0.0000000000000000e+00  -1.9483696647632025e+07 -2.3194589300470646e+06 0.0000000000000000e+00 -2.3194589300470618e+06 -2.3373012891933415e+06 0.0000000000000000e+00 0.0000000000000000e+00 0.0000000000000000e+00 0.0000000000000000e+00  -4.1206009055448248e+05 7.5246519240479963e+06 0.0000000000000000e+00 7.5246519240479963e+06 -2.7104767201776050e+07 0.0000000000000000e+00 0.0000000000000000e+00 0.0000000000000000e+00 0.0000000000000000e+00  -3.4140299731559074e+06 2.0100569755782496e+07 0.0000000000000000e+00 2.0100569755782496e+07 -1.9250314767230463e+08 0.0000000000000000e+00 0.0000000000000000e+00 0.0000000000000000e+00 0.0000000000000000e+00  -2.7522484825138893e+07 1.4668099551202534e+06 0.0000000000000000e+00 1.4668099551202534e+06 -1.1133041113293017e+06 0.0000000000000000e+00 0.0000000000000000e+00 0.0000000000000000e+00 0.0000000000000000e+00  -2.3353797486633174e+07 4.6009607532940328e+05 0.0000000000000000e+00 4.6009607532940328e+05 1.7010770498422422e+06 0.0000000000000000e+00 0.0000000000000000e+00 0.0000000000000000e+00 0.0000000000000000e+00  1.9790857765374783e+07 1.9807111569047633e+06 0.0000000000000000e+00 1.9807111569047638e+06 2.3626832179450613e+08 0.0000000000000000e+00 0.0000000000000000e+00 0.0000000000000000e+00 0.0000000000000000e+00  -9.7417920540601132e+05 -1.4248959691611941e+06 0.0000000000000000e+00 -1.4248959691611952e+06 -3.1221251153552342e+07 0.0000000000000000e+00 0.0000000000000000e+00 0.0000000000000000e+00 0.0000000000000000e+00  -3.0264060592213329e+07 -1.0077120269157664e+06 0.0000000000000000e+00 -1.0077120269157664e+06 -1.4759525395396454e+06 0.0000000000000000e+00 0.0000000000000000e+00 0.0000000000000000e+00 0.0000000000000000e+00  2.1098030799546681e+07 3.3174113665840491e+06 0.0000000000000000e+00 3.3174113665840491e+06 2.6035424640547156e+08 0.0000000000000000e+00 0.0000000000000000e+00 0.0000000000000000e+00 0.0000000000000000e+00  -7.5021650255385973e+05 -4.5609164848308759e+06 0.0000000000000000e+00 -4.5609164848308759e+06 -2.8619704603606813e+07 0.0000000000000000e+00 0.0000000000000000e+00 0.0000000000000000e+00 0.0000000000000000e+00  1.6375749109260834e+05 1.3839839368961439e+06 0.0000000000000000e+00 1.3839839368961439e+06 -4.5955464538534857e+07 0.0000000000000000e+00 0.0000000000000000e+00 0.0000000000000000e+00 0.0000000000000000e+00  -3.6588769488531183e+06 -2.5107082417606838e+07 0.0000000000000000e+00 -2.5107082417606838e+07 -1.9304562326603484e+08 0.0000000000000000e+00 0.0000000000000000e+00 0.0000000000000000e+00 0.0000000000000000e+00  -3.1468125120746832e+07 -3.2661893808079744e+05 0.0000000000000000e+00 -3.2661893808079744e+05 2.4202446928330730e+06 0.0000000000000000e+00 0.0000000000000000e+00 0.0000000000000000e+00 0.0000000000000000e+00  -2.0022912819189284e+05 5.0685675012160195e+06 0.0000000000000000e+00 5.0685675012160195e+06 -1.8479493308143411e+07 0.0000000000000000e+00 0.0000000000000000e+00 0.0000000000000000e+00 0.0000000000000000e+00  1.6004043147104720e+05 7.5190698147255806e+06 0.0000000000000000e+00 7.5190698147255806e+06 -1.0894789785904573e+08 0.0000000000000000e+00 0.0000000000000000e+00 0.0000000000000000e+00 0.0000000000000000e+00  -2.3971356910609249e+07 4.9865285011344450e+05 0.0000000000000000e+00 4.9865285011344450e+05 -3.0480834476351558e+05 0.0000000000000000e+00 0.0000000000000000e+00 0.0000000000000000e+00 0.0000000000000000e+00  -2.6243931183422949e+07 1.5276576826140797e+05 0.0000000000000000e+00 1.5276576826140797e+05 4.0322776845030854e+06 0.0000000000000000e+00 0.0000000000000000e+00 0.0000000000000000e+00 0.0000000000000000e+00  1.6575520864560168e+07 3.1416013588038990e+06 0.0000000000000000e+00 3.1416013588039000e+06 2.3371786961290017e+08 0.0000000000000000e+00 0.0000000000000000e+00 0.0000000000000000e+00 0.0000000000000000e+00  1.4556795819770018e+05 -1.2077516018620941e+06 0.0000000000000000e+00 -1.2077516018620941e+06 -4.6652691616295181e+07 0.0000000000000000e+00 0.0000000000000000e+00 0.0000000000000000e+00 0.0000000000000000e+00  -2.0144243259306800e+07 -1.4659847415838912e+06 0.0000000000000000e+00 -1.4659847415838863e+06 -1.6603647625475612e+06 0.0000000000000000e+00 0.0000000000000000e+00 0.0000000000000000e+00 0.0000000000000000e+00  1.3040197490127288e+07 1.5297566307370577e+07 0.0000000000000000e+00 1.5297566307370577e+07 1.5728871326635522e+08 0.0000000000000000e+00 0.0000000000000000e+00 0.0000000000000000e+00 0.0000000000000000e+00  -4.0934874543880805e+05 -4.5425891445624735e+06 0.0000000000000000e+00 -4.5425891445624698e+06 -2.5828181228864305e+07 0.0000000000000000e+00 0.0000000000000000e+00 0.0000000000000000e+00 0.0000000000000000e+00  -7.6353124331865541e+05 -2.6326551830990589e+05 0.0000000000000000e+00 -2.6326551830990624e+05 -2.3081395046384307e+06 0.0000000000000000e+00 0.0000000000000000e+00 0.0000000000000000e+00 0.0000000000000000e+00  -1.8648221649414161e+06 -2.1131786675960671e+07 0.0000000000000000e+00 -2.1131786675960675e+07 -1.6222541457704690e+08 0.0000000000000000e+00 0.0000000000000000e+00 0.0000000000000000e+00 0.0000000000000000e+00  -5.3081743063499546e+06 9.1106291900730168e+05 0.0000000000000000e+00 9.1106291900730168e+05 3.6852290730100736e+05 0.0000000000000000e+00 0.0000000000000000e+00 0.0000000000000000e+00 0.0000000000000000e+00  -2.9908447229818717e+07 -9.2797171639338648e+05 0.0000000000000000e+00 -9.2797171639338648e+05 -1.3887358774118479e+06 0.0000000000000000e+00 0.0000000000000000e+00 0.0000000000000000e+00 0.0000000000000000e+00  1.9795720298519839e+07 2.2499795025189496e+06 0.0000000000000000e+00 2.2499795025189486e+06 2.5073566435640973e+08 0.0000000000000000e+00 0.0000000000000000e+00 0.0000000000000000e+00 0.0000000000000000e+00  -7.4674923995440966e+05 -4.3895596742549529e+06 0.0000000000000000e+00 -4.3895596742549529e+06 -2.7746391588179860e+07 0.0000000000000000e+00 0.0000000000000000e+00 0.0000000000000000e+00 0.0000000000000000e+00  -8.0561330477845646e+05 2.5981201196065382e+06 0.0000000000000000e+00 2.5981201196065359e+06 -4.5855500390374899e+07 0.0000000000000000e+00 0.0000000000000000e+00 0.0000000000000000e+00 0.0000000000000000e+00  -3.7019927082669800e+06 -2.4706734657937508e+07 0.0000000000000000e+00 -2.4706734657937508e+07 -1.8868579824757326e+08 0.0000000000000000e+00 0.0000000000000000e+00 0.0000000000000000e+00 0.0000000000000000e+00  -2.9764824695795458e+07 -1.0489852217391368e+06 0.0000000000000000e+00 -1.0489852217391368e+06 -1.7874580401945228e+06 0.0000000000000000e+00 0.0000000000000000e+00 0.0000000000000000e+00 0.0000000000000000e+00  -3.3996628509851836e+05 5.1783554377642525e+06 0.0000000000000000e+00 5.1783554377642525e+06 -1.9137054630921096e+07 0.0000000000000000e+00 0.0000000000000000e+00 0.0000000000000000e+00 0.0000000000000000e+00  -6.0344596083472588e+05 6.0854994835360423e+06 0.0000000000000000e+00 6.0854994835360423e+06 -1.0671333214236711e+08 0.0000000000000000e+00 0.0000000000000000e+00 0.0000000000000000e+00 0.0000000000000000e+00  -2.5450278995851975e+07 4.4927215166592388e+05 0.0000000000000000e+00 4.4927215166592388e+05 -2.7591014120871935e+05 0.0000000000000000e+00 0.0000000000000000e+00 0.0000000000000000e+00 0.0000000000000000e+00  -2.7615159939751014e+07 2.2946293708141919e+05 0.0000000000000000e+00 2.2946293708142010e+05 3.7326458718098211e+06 0.0000000000000000e+00 0.0000000000000000e+00 0.0000000000000000e+00 0.0000000000000000e+00  1.7212764792162035e+07 2.8253923877881714e+06 0.0000000000000000e+00 2.8253923877881714e+06 2.4207295921432889e+08 0.0000000000000000e+00 0.0000000000000000e+00 0.0000000000000000e+00 0.0000000000000000e+00  -1.2436291466553084e+04 -1.0806817230168851e+06 0.0000000000000000e+00 -1.0806817230168886e+06 -4.6421730477657937e+07 0.0000000000000000e+00 0.0000000000000000e+00 0.0000000000000000e+00 0.0000000000000000e+00  -3.3798669071427464e+07 -7.6026676767214024e+06 0.0000000000000000e+00 -7.6026676767214024e+06 9.5083266094918340e+05 0.0000000000000000e+00 0.0000000000000000e+00 0.0000000000000000e+00 0.0000000000000000e+00  3.1117986866831329e+07 1.2257123393465091e+07 0.0000000000000000e+00 1.2257123393465091e+07 2.3984565729473576e+08 0.0000000000000000e+00 0.0000000000000000e+00 0.0000000000000000e+00 0.0000000000000000e+00  -3.9152633534712630e+05 -4.5580460143806310e+06 0.0000000000000000e+00 -4.5580460143806320e+06 -2.7949855646453604e+07 0.0000000000000000e+00 0.0000000000000000e+00 0.0000000000000000e+00 0.0000000000000000e+00  -8.6817409117304650e+05 2.6537552464120854e+06 0.0000000000000000e+00 2.6537552464120854e+06 -4.7041998329873092e+07 0.0000000000000000e+00 0.0000000000000000e+00 0.0000000000000000e+00 0.0000000000000000e+00  -4.6403531278131567e+06 -2.7499065137300428e+07 0.0000000000000000e+00 -2.7499065137300428e+07 -2.0162260557521573e+08 0.0000000000000000e+00 0.0000000000000000e+00 0.0000000000000000e+00 0.0000000000000000e+00  -3.0003451426751599e+07 -1.1981740720049986e+06 0.0000000000000000e+00 -1.1981740720050028e+06 -1.8845789442868738e+06 0.0000000000000000e+00 0.0000000000000000e+00 0.0000000000000000e+00 0.0000000000000000e+00  -2.1568240867307570e+07 -1.5482073668439994e+06 0.0000000000000000e+00 -1.5482073668439949e+06 -1.0202616692817967e+06 0.0000000000000000e+00 0.0000000000000000e+00 0.0000000000000000e+00 0.0000000000000000e+00  1.4109927266108511e+07 1.3774832006811518e+07 0.0000000000000000e+00 1.3774832006811518e+07 1.7059284612668592e+08 0.0000000000000000e+00 0.0000000000000000e+00 0.0000000000000000e+00 0.0000000000000000e+00  -4.1687581666892307e+05 -4.8123481445509018e+06 0.0000000000000000e+00 -4.8123481445508953e+06 -2.7330344802983422e+07 0.0000000000000000e+00 0.0000000000000000e+00 0.0000000000000000e+00 0.0000000000000000e+00  -1.1841087268529052e+05 2.3023537881168755e+05 0.0000000000000000e+00 2.3023537881168755e+05 -4.7440818216905417e+06 0.0000000000000000e+00 0.0000000000000000e+00 0.0000000000000000e+00 0.0000000000000000e+00  -2.0434891463895675e+06 -2.2358194264776807e+07 0.0000000000000000e+00 -2.2358194264776811e+07 -1.7192904646277002