<?xml version="1.0"?>
<VTKFile type="UnstructuredGrid"  version="0.1"  >
<UnstructuredGrid>
<Piece  NumberOfPoints="5168" NumberOfCells="10000">
<Points>
<DataArray  type="Float64"  NumberOfComponents="3"  format="ascii">0.375 0.375 0  0.625 0.375 0  0.625 0.625 0  0.375 0.625 0  0 0 0  1 0 0  0 1 0  1 1 0  0.3897058823529412 0.375 0  0.4044117647058824 0.375 0  0.4191176470588236 0.375 0  0.4338235294117648 0.375 0  0.448529411764706 0.375 0  0.4632352941176472 0.375 0  0.4779411764705884 0.375 0  0.4926470588235297 0.375 0  0.5073529411764708 0.375 0  0.5220588235294119 0.375 0  0.536764705882353 0.375 0  0.5514705882352942 0.375 0  0.5661764705882353 0.375 0  0.5808823529411765 0.375 0  0.5955882352941175 0.375 0  0.6102941176470588 0.375 0  0.625 0.3897058823529412 0  0.625 0.4044117647058824 0  0.625 0.4191176470588236 0  0.625 0.4338235294117648 0  0.625 0.448529411764706 0  0.625 0.4632352941176472 0  0.625 0.4779411764705884 0  0.625 0.4926470588235297 0  0.625 0.5073529411764708 0  0.625 0.5220588235294119 0  0.625 0.536764705882353 0  0.625 0.5514705882352942 0  0.625 0.5661764705882353 0  0.625 0.5808823529411765 0  0.625 0.5955882352941175 0  0.625 0.6102941176470588 0  0.6102941176470588 0.625 0  0.5955882352941176 0.625 0  0.5808823529411764 0.625 0  0.5661764705882353 0.625 0  0.551470588235294 0.625 0  0.5367647058823528 0.625 0  0.5220588235294116 0.625 0  0.5073529411764703 0.625 0  0.4926470588235292 0.625 0  0.477941176470588 0.625 0  0.4632352941176469 0.625 0  0.4485294117647058 0.625 0  0.4338235294117647 0.625 0  0.4191176470588235 0.625 0  0.4044117647058824 0.625 0  0.3897058823529412 0.625 0  0.375 0.6102941176470588 0  0.375 0.5955882352941176 0  0.375 0.5808823529411764 0  0.375 0.5661764705882353 0  0.375 0.551470588235294 0  0.375 0.5367647058823528 0  0.375 0.5220588235294116 0  0.375 0.5073529411764703 0  0.375 0.4926470588235292 0  0.375 0.477941176470588 0  0.375 0.4632352941176469 0  0.375 0.4485294117647058 0  0.375 0.4338235294117647 0  0.375 0.4191176470588235 0  0.375 0.4044117647058824 0  0.375 0.3897058823529412 0  0.01492537313432838 0 0  0.02985074626865675 0 0  0.04477611940298513 0 0  0.05970149253731351 0 0  0.0746268656716419 0 0  0.08955223880597028 0 0  0.1044776119402987 0 0  0.1194029850746271 0 0  0.1343283582089554 0 0  0.1492537313432838 0 0  0.1641791044776121 0 0  0.1791044776119405 0 0  0.1940298507462689 0 0  0.2089552238805972 0 0  0.2238805970149256 0 0  0.2388059701492539 0 0  0.2537313432835824 0 0  0.2686567164179108 0 0  0.2835820895522392 0 0  0.2985074626865676 0 0  0.313432835820896 0 0  0.3283582089552244 0 0  0.3432835820895528 0 0  0.3582089552238813 0 0  0.3731343283582096 0 0  0.3880597014925381 0 0  0.4029850746268665 0 0  0.4179104477611949 0 0  0.4328358208955234 0 0  0.4477611940298517 0 0  0.4626865671641802 0 0  0.4776119402985086 0 0  0.4925373134328369 0 0  0.5074626865671652 0 0  0.5223880597014936 0 0  0.5373134328358218 0 0  0.5522388059701502 0 0  0.5671641791044785 0 0  0.5820895522388068 0 0  0.5970149253731351 0 0  0.6119402985074635 0 0  0.6268656716417917 0 0  0.64179104477612 0 0  0.6567164179104483 0 0  0.6716417910447767 0 0  0.6865671641791049 0 0  0.7014925373134333 0 0  0.7164179104477616 0 0  0.7313432835820899 0 0  0.7462686567164182 0 0  0.7611940298507465 0 0  0.7761194029850749 0 0  0.791044776119403 0 0  0.8059701492537314 0 0  0.8208955223880597 0 0  0.835820895522388 0 0  0.8507462686567163 0 0  0.8656716417910447 0 0  0.8805970149253729 0 0  0.8955223880597013 0 0  0.9104477611940296 0 0  0.925373134328358 0 0  0.9402985074626862 0 0  0.9552238805970146 0 0  0.9701492537313429 0 0  0.9850746268656715 0 0  0 0.9850746268656716 0  0 0.9701492537313432 0  0 0.9552238805970149 0  0 0.9402985074626865 0  0 0.9253731343283581 0  0 0.9104477611940297 0  0 0.8955223880597013 0  0 0.8805970149253729 0  0 0.8656716417910446 0  0 0.8507462686567162 0  0 0.8358208955223878 0  0 0.8208955223880595 0  0 0.8059701492537311 0  0 0.7910447761194028 0  0 0.7761194029850744 0  0 0.761194029850746 0  0 0.7462686567164176 0  0 0.7313432835820892 0  0 0.7164179104477608 0  0 0.7014925373134324 0  0 0.686567164179104 0  0 0.6716417910447756 0  0 0.6567164179104472 0  0 0.6417910447761187 0  0 0.6268656716417904 0  0 0.6119402985074619 0  0 0.5970149253731335 0  0 0.5820895522388051 0  0 0.5671641791044766 0  0 0.5522388059701483 0  0 0.5373134328358198 0  0 0.5223880597014914 0  0 0.5074626865671631 0  0 0.4925373134328348 0  0 0.4776119402985064 0  0 0.4626865671641782 0  0 0.4477611940298498 0  0 0.4328358208955215 0  0 0.4179104477611932 0  0 0.4029850746268649 0  0 0.3880597014925365 0  0 0.3731343283582083 0  0 0.35820895522388 0  0 0.3432835820895517 0  0 0.3283582089552233 0  0 0.3134328358208951 0  0 0.2985074626865667 0  0 0.2835820895522384 0  0 0.2686567164179101 0  0 0.2537313432835818 0  0 0.2388059701492535 0  0 0.2238805970149251 0  0 0.208955223880597 0  0 0.1940298507462686 0  0 0.1791044776119403 0  0 0.164179104477612 0  0 0.1492537313432837 0  0 0.1343283582089553 0  0 0.1194029850746271 0  0 0.1044776119402987 0  0 0.08955223880597041 0  0 0.07462686567164201 0  0 0.05970149253731383 0  0 0.04477611940298543 0  0 0.02985074626865714 0  0 0.01492537313432851 0  1 0.01492537313432838 0  1 0.02985074626865675 0  1 0.04477611940298513 0  1 0.05970149253731351 0  1 0.0746268656716419 0  1 0.08955223880597028 0  1 0.1044776119402987 0  1 0.1194029850746271 0  1 0.1343283582089554 0  1 0.1492537313432838 0  1 0.1641791044776121 0  1 0.1791044776119405 0  1 0.1940298507462689 0  1 0.2089552238805972 0  1 0.2238805970149256 0  1 0.2388059701492539 0  1 0.2537313432835824 0  1 0.2686567164179108 0  1 0.2835820895522392 0  1 0.2985074626865676 0  1 0.313432835820896 0  1 0.3283582089552244 0  1 0.3432835820895528 0  1 0.3582089552238813 0  1 0.3731343283582096 0  1 0.3880597014925381 0  1 0.4029850746268665 0  1 0.4179104477611949 0  1 0.4328358208955234 0  1 0.4477611940298517 0  1 0.4626865671641802 0  1 0.4776119402985086 0  1 0.4925373134328369 0  1 0.5074626865671652 0  1 0.5223880597014936 0  1 0.5373134328358218 0  1 0.5522388059701502 0  1 0.5671641791044785 0  1 0.5820895522388068 0  1 0.5970149253731351 0  1 0.6119402985074635 0  1 0.6268656716417917 0  1 0.64179104477612 0  1 0.6567164179104483 0  1 0.6716417910447767 0  1 0.6865671641791049 0  1 0.7014925373134333 0  1 0.7164179104477616 0  1 0.7313432835820899 0  1 0.7462686567164182 0  1 0.7611940298507465 0  1 0.7761194029850749 0  1 0.791044776119403 0  1 0.8059701492537314 0  1 0.8208955223880597 0  1 0.835820895522388 0  1 0.8507462686567163 0  1 0.8656716417910447 0  1 0.8805970149253729 0  1 0.8955223880597013 0  1 0.9104477611940296 0  1 0.925373134328358 0  1 0.9402985074626862 0  1 0.9552238805970146 0  1 0.9701492537313429 0  1 0.9850746268656715 0  0.9850746268656716 1 0  0.9701492537313432 1 0  0.9552238805970149 1 0  0.9402985074626865 1 0  0.9253731343283581 1 0  0.9104477611940297 1 0  0.8955223880597013 1 0  0.8805970149253729 1 0  0.8656716417910446 1 0  0.8507462686567162 1 0  0.8358208955223878 1 0  0.8208955223880595 1 0  0.8059701492537311 1 0  0.7910447761194028 1 0  0.7761194029850744 1 0  0.761194029850746 1 0  0.7462686567164176 1 0  0.7313432835820892 1 0  0.7164179104477608 1 0  0.7014925373134324 1 0  0.686567164179104 1 0  0.6716417910447756 1 0  0.6567164179104472 1 0  0.6417910447761187 1 0  0.6268656716417904 1 0  0.6119402985074619 1 0  0.5970149253731335 1 0  0.5820895522388051 1 0  0.5671641791044766 1 0  0.5522388059701483 1 0  0.5373134328358198 1 0  0.5223880597014914 1 0  0.5074626865671631 1 0  0.4925373134328348 1 0  0.4776119402985064 1 0  0.4626865671641782 1 0  0.4477611940298498 1 0  0.4328358208955215 1 0  0.4179104477611932 1 0  0.4029850746268649 1 0  0.3880597014925365 1 0  0.3731343283582083 1 0  0.35820895522388 1 0  0.3432835820895517 1 0  0.3283582089552233 1 0  0.3134328358208951 1 0  0.2985074626865667 1 0  0.2835820895522384 1 0  0.2686567164179101 1 0  0.2537313432835818 1 0  0.2388059701492535 1 0  0.2238805970149251 1 0  0.208955223880597 1 0  0.1940298507462686 1 0  0.1791044776119403 1 0  0.164179104477612 1 0  0.1492537313432837 1 0  0.1343283582089553 1 0  0.1194029850746271 1 0  0.1044776119402987 1 0  0.08955223880597041 1 0  0.07462686567164201 1 0  0.05970149253731383 1 0  0.04477611940298543 1 0  0.02985074626865714 1 0  0.01492537313432851 1 0  0.216417910447761 0.9870742477047101 0  0.9866232002959614 0.7839710267120666 0  0.01239088019140133 0.2164189574848345 0  0.7824811218489549 0.01487611910569514 0  0.9870742477047099 0.2313432835820898 0  0.232025152604235 0.01286894345712652 0  0.01180258007347307 0.7697690068369023 0  0.7686605429061222 0.9870748500194626 0  0.7089277580708766 0.01168619406032112 0  0.01237759832359492 0.2910449615696232 0  0.9854895354930167 0.7104955291802457 0  0.2899318244775075 0.9877265979705879 0  0.3041739780884123 0.01312549329801932 0  0.9870742477047099 0.3059701492537318 0  0.0123661663782072 0.6940304534699178 0  0.6940340970522876 0.9870748356665328 0  0.5001541587030729 0.3622969559337265 0  0.3626876005726945 0.5006325662170414 0  0.6377876117579482 0.4999456819093394 0  0.4983919274806529 0.6390234998874894 0  0.5737854453154316 0.3623471208160542 0  0.637738436748633 0.5735168969726332 0  0.3629728358497094 0.4283068062537019 0  0.4267360166591547 0.6369884530474174 0  0.5734709305864817 0.6379848138660231 0  0.3609968812219961 0.5710754370734183 0  0.4265332137135454 0.3622879279485477 0  0.6378207592460721 0.4263490746801675 0  0.6340241356181965 0.01198164616214725 0  0.9841468460343609 0.6352232542921054 0  0.01292516010731937 0.3656763488402499 0  0.3652910329072183 0.9876516328606912 0  0.6191759435574941 0.9877015976520721 0  0.01292575229529014 0.6194029850746261 0  0.9870742477047099 0.3805970149253739 0  0.3801577942505427 0.01306342356533879 0  0.529849870084831 0.01273067432581815 0  0.01292575229528997 0.4701492537313423 0  0.9870
[...]
<PointData  Tensors="$\sigma$"> 
<DataArray  type="Float64"  Name="$\sigma$"  NumberOfComponents="9" format="ascii">1.0533797236970723e+08 -1.1894325905165714e+08 0.0000000000000000e+00 -1.1894325905165714e+08 3.7744513328592962e+08 0.0000000000000000e+00 0.0000000000000000e+00 0.0000000000000000e+00 0.0000000000000000e+00  1.2426235031824709e+08 1.2389504088167934e+08 0.0000000000000000e+00 1.2389504088167934e+08 3.8620095509377801e+08 0.0000000000000000e+00 0.0000000000000000e+00 0.0000000000000000e+00 0.0000000000000000e+00  1.0835604790470172e+08 -1.1722098003062011e+08 0.0000000000000000e+00 -1.1722098003062011e+08 3.7896771904596865e+08 0.0000000000000000e+00 0.0000000000000000e+00 0.0000000000000000e+00 0.0000000000000000e+00  1.1637488300099438e+08 1.2239544942402005e+08 0.0000000000000000e+00 1.2239544942402005e+08 3.8747223522802019e+08 0.0000000000000000e+00 0.0000000000000000e+00 0.0000000000000000e+00 0.0000000000000000e+00  5.3300245066732481e+07 1.0060231027565630e+07 0.0000000000000000e+00 1.0060231027565630e+07 2.2495349832369292e+08 0.0000000000000000e+00 0.0000000000000000e+00 0.0000000000000000e+00 0.0000000000000000e+00  6.1884789839242549e+04 -1.0949416861657897e+05 0.0000000000000000e+00 -1.0949416861657897e+05 2.2128384296136969e+08 0.0000000000000000e+00 0.0000000000000000e+00 0.0000000000000000e+00 0.0000000000000000e+00  9.1316161008778552e+04 -1.1834081119874446e+05 0.0000000000000000e+00 -1.1834081119874446e+05 2.2125719249742284e+08 0.0000000000000000e+00 0.0000000000000000e+00 0.0000000000000000e+00 0.0000000000000000e+00  2.2447710398915064e+04 2.2397374818480795e+05 0.0000000000000000e+00 2.2397374818480795e+05 2.2105746888582188e+08 0.0000000000000000e+00 0.0000000000000000e+00 0.0000000000000000e+00 0.0000000000000000e+00  -1.6503161344734462e+07 -6.2018445980424076e+07 0.0000000000000000e+00 -6.2018445980424076e+07 -3.3415169515369661e+07 0.0000000000000000e+00 0.0000000000000000e+00 0.0000000000000000e+00 0.0000000000000000e+00  -1.3889786645581615e+08 1.3539187314867247e+07 0.0000000000000000e+00 1.3539187314867247e+07 1.4442914508299399e+07 0.0000000000000000e+00 0.0000000000000000e+00 0.0000000000000000e+00 0.0000000000000000e+00  -1.3743369443545875e+08 -1.6437561630648633e+06 0.0000000000000000e+00 -1.6437561630648633e+06 -3.7480142523734593e+06 0.0000000000000000e+00 0.0000000000000000e+00 0.0000000000000000e+00 0.0000000000000000e+00  -1.4329650468651378e+08 1.5568730163657451e+06 0.0000000000000000e+00 1.5568730163657451e+06 1.2271496718063874e+06 0.0000000000000000e+00 0.0000000000000000e+00 0.0000000000000000e+00 0.0000000000000000e+00  -1.4567939441651922e+08 3.3461810453575104e+05 0.0000000000000000e+00 3.3461810453575104e+05 1.8215799202472248e+05 0.0000000000000000e+00 0.0000000000000000e+00 0.0000000000000000e+00 0.0000000000000000e+00  -1.4682926078329036e+08 2.4551804784098192e+05 0.0000000000000000e+00 2.4551804784098192e+05 4.9888473380869551e+05 0.0000000000000000e+00 0.0000000000000000e+00 0.0000000000000000e+00 0.0000000000000000e+00  -1.4749693641310182e+08 6.0788876056743364e+04 0.0000000000000000e+00 6.0788876056743364e+04 4.1620735561916308e+05 0.0000000000000000e+00 0.0000000000000000e+00 0.0000000000000000e+00 0.0000000000000000e+00  -1.4785586464277068e+08 6.1077803887037326e+03 0.0000000000000000e+00 6.1077803887037326e+03 4.5622782552983268e+05 0.0000000000000000e+00 0.0000000000000000e+00 0.0000000000000000e+00 0.0000000000000000e+00  -1.4781021638685006e+08 -1.3254980931043340e+05 0.0000000000000000e+00 -1.3254980931043340e+05 4.1561497090679937e+05 0.0000000000000000e+00 0.0000000000000000e+00 0.0000000000000000e+00 0.0000000000000000e+00  -1.4744322805759680e+08 -1.4967125418464807e+05 0.0000000000000000e+00 -1.4967125418464807e+05 4.5461934046223771e+05 0.0000000000000000e+00 0.0000000000000000e+00 0.0000000000000000e+00 0.0000000000000000e+00  -1.4686778239445603e+08 -2.6651656405407161e+05 0.0000000000000000e+00 -2.6651656405407161e+05 5.1337722840448102e+05 0.0000000000000000e+00 0.0000000000000000e+00 0.0000000000000000e+00 0.0000000000000000e+00  -1.4554465768670073e+08 -5.2818539234167442e+05 0.0000000000000000e+00 -5.2818539234167442e+05 2.0366384694938525e+05 0.0000000000000000e+00 0.0000000000000000e+00 0.0000000000000000e+00 0.0000000000000000e+00  -1.4279367898005223e+08 -1.4680736231936978e+06 0.0000000000000000e+00 -1.4680736231936978e+06 1.0385862577944444e+06 0.0000000000000000e+00 0.0000000000000000e+00 0.0000000000000000e+00 0.0000000000000000e+00  -1.3750622966438916e+08 1.2959483425768320e+06 0.0000000000000000e+00 1.2959483425768320e+06 -3.0199185456077154e+06 0.0000000000000000e+00 0.0000000000000000e+00 0.0000000000000000e+00 0.0000000000000000e+00  -1.3371079075857888e+08 -1.2214924296190999e+07 0.0000000000000000e+00 -1.2214924296190999e+07 1.3639839362961458e+07 0.0000000000000000e+00 0.0000000000000000e+00 0.0000000000000000e+00 0.0000000000000000e+00  -1.6908492428351820e+07 7.1541478679552868e+07 0.0000000000000000e+00 7.1541478679552868e+07 -1.7034185298464503e+07 0.0000000000000000e+00 0.0000000000000000e+00 0.0000000000000000e+00 0.0000000000000000e+00  2.4709107772968784e+07 3.6091473669836618e+07 0.0000000000000000e+00 3.6091473669836618e+07 4.7921758834808731e+08 0.0000000000000000e+00 0.0000000000000000e+00 0.0000000000000000e+00 0.0000000000000000e+00  2.5605024932434415e+06 -5.2869311919746990e+05 0.0000000000000000e+00 -5.2869311919746990e+05 3.4882863122090977e+08 0.0000000000000000e+00 0.0000000000000000e+00 0.0000000000000000e+00 0.0000000000000000e+00  -2.3601749421180277e+06 4.9360842626982061e+06 0.0000000000000000e+00 4.9360842626982061e+06 3.3000172459273058e+08 0.0000000000000000e+00 0.0000000000000000e+00 0.0000000000000000e+00 0.0000000000000000e+00  6.0872053067609412e+05 1.0286940199708762e+06 0.0000000000000000e+00 1.0286940199708762e+06 3.1667711467850637e+08 0.0000000000000000e+00 0.0000000000000000e+00 0.0000000000000000e+00 0.0000000000000000e+00  -2.8165442849780980e+05 8.7704204114864534e+05 0.0000000000000000e+00 8.7704204114864534e+05 3.0745206083526856e+08 0.0000000000000000e+00 0.0000000000000000e+00 0.0000000000000000e+00 0.0000000000000000e+00  -8.3555172397161325e+04 4.7869725809125497e+05 0.0000000000000000e+00 4.7869725809125497e+05 3.0273820225387502e+08 0.0000000000000000e+00 0.0000000000000000e+00 0.0000000000000000e+00 0.0000000000000000e+00  -7.6778584597502777e+04 2.9490990652464348e+05 0.0000000000000000e+00 2.9490990652464348e+05 2.9961248234334290e+08 0.0000000000000000e+00 0.0000000000000000e+00 0.0000000000000000e+00 0.0000000000000000e+00  -4.8328146141637364e+04 9.1024714734795896e+04 0.0000000000000000e+00 9.1024714734795896e+04 2.9822518852057773e+08 0.0000000000000000e+00 0.0000000000000000e+00 0.0000000000000000e+00 0.0000000000000000e+00  -5.8757417917678089e+04 -1.0732048169543331e+05 0.0000000000000000e+00 -1.0732048169543331e+05 2.9823655849219233e+08 0.0000000000000000e+00 0.0000000000000000e+00 0.0000000000000000e+00 0.0000000000000000e+00  -7.4161655985709891e+04 -3.0911996908459917e+05 0.0000000000000000e+00 -3.0911996908459917e+05 2.9963729803645867e+08 0.0000000000000000e+00 0.0000000000000000e+00 0.0000000000000000e+00 0.0000000000000000e+00  -6.4152815460203310e+04 -5.3303010596833716e+05 0.0000000000000000e+00 -5.3303010596833716e+05 3.0265229944371212e+08 0.0000000000000000e+00 0.0000000000000000e+00 0.0000000000000000e+00 0.0000000000000000e+00  -2.6551214039023436e+05 -9.1451698978394608e+05 0.0000000000000000e+00 -9.1451698978394608e+05 3.0750260057224220e+08 0.0000000000000000e+00 0.0000000000000000e+00 0.0000000000000000e+00 0.0000000000000000e+00  5.5019142552944948e+05 -1.0627919756623327e+06 0.0000000000000000e+00 -1.0627919756623327e+06 3.1664465640583837e+08 0.0000000000000000e+00 0.0000000000000000e+00 0.0000000000000000e+00 0.0000000000000000e+00  -2.0233153497361806e+06 -4.7387132605584869e+06 0.0000000000000000e+00 -4.7387132605584869e+06 3.2962289375286043e+08 0.0000000000000000e+00 0.0000000000000000e+00 0.0000000000000000e+00 0.0000000000000000e+00  1.6757925534009198e+06 -6.1277363567119746e+03 0.0000000000000000e+00 -6.1277363567119746e+03 3.4879242323785800e+08 0.0000000000000000e+00 0.0000000000000000e+00 0.0000000000000000e+00 0.0000000000000000e+00  2.7494748977862123e+07 -3.5927945990181901e+07 0.0000000000000000e+00 -3.5927945990181901e+07 4.7960076448362982e+08 0.0000000000000000e+00 0.0000000000000000e+00 0.0000000000000000e+00 0.0000000000000000e+00  -1.5880174775799969e+07 -4.2365886726359278e+07 0.0000000000000000e+00 -4.2365886726359278e+07 -5.8557974518943936e+07 0.0000000000000000e+00 0.0000000000000000e+00 0.0000000000000000e+00 0.0000000000000000e+00  -1.5792788277922410e+08 1.4963795240241695e+07 0.0000000000000000e+00 1.4963795240241695e+07 1.6978548910380926e+07 0.0000000000000000e+00 0.0000000000000000e+00 0.0000000000000000e+00 0.0000000000000000e+00  -1.3697830781427085e+08 -5.5085429409891935e+06 0.0000000000000000e+00 -5.5085429409891935e+06 2.1044386952873641e+06 0.0000000000000000e+00 0.0000000000000000e+00 0.0000000000000000e+00 0.0000000000000000e+00  -1.4539075529074943e+08 4.7557034248321615e+06 0.0000000000000000e+00 4.7557034248321615e+06 1.5972458694057004e+06 0.0000000000000000e+00 0.0000000000000000e+00 0.0000000000000000e+00 0.0000000000000000e+00  -1.4674460938853201e+08 -2.0522564129745702e+06 0.0000000000000000e+00 -2.0522564129745702e+06 1.7944406055753666e+06 0.0000000000000000e+00 0.0000000000000000e+00 0.0000000000000000e+00 0.0000000000000000e+00  -1.4504112033550966e+08 2.5609011860053334e+06 0.0000000000000000e+00 2.5609011860053334e+06 -5.3749455218980811e+05 0.0000000000000000e+00 0.0000000000000000e+00 0.0000000000000000e+00 0.0000000000000000e+00  -1.4841851791331407e+08 1.4204574964138688e+05 0.0000000000000000e+00 1.4204574964138688e+05 4.8713713335729152e+05 0.0000000000000000e+00 0.0000000000000000e+00 0.0000000000000000e+00 0.0000000000000000e+00  -1.4633191862708554e+08 -1.6704932536302642e+06 0.0000000000000000e+00 -1.6704932536302642e+06 -1.1147468933048590e+05 0.0000000000000000e+00 0.0000000000000000e+00 0.0000000000000000e+00 0.0000000000000000e+00  -1.4951041750663388e+08 2.0558903801283783e+06 0.0000000000000000e+00 2.0558903801283783e+06 1.7138602929016640e+06 0.0000000000000000e+00 0.0000000000000000e+00 0.0000000000000000e+00 0.0000000000000000e+00  -1.4904907944286072e+08 -2.4811874001478357e+06 0.0000000000000000e+00 -2.4811874001478357e+06 8.3959472685942159e+05 0.0000000000000000e+00 0.0000000000000000e+00 0.0000000000000000e+00 0.0000000000000000e+00  -1.4687193335723370e+08 2.4038451720255059e+06 0.0000000000000000e+00 2.4038451720255059e+06 8.1100906287453731e+05 0.0000000000000000e+00 0.0000000000000000e+00 0.0000000000000000e+00 0.0000000000000000e+00  -1.4960805171361598e+08 -1.1241108596427783e+06 0.0000000000000000e+00 -1.1241108596427783e+06 2.4892443764975867e+06 0.0000000000000000e+00 0.0000000000000000e+00 0.0000000000000000e+00 0.0000000000000000e+00  -1.3641159423184592e+08 8.0835590373349481e+05 0.0000000000000000e+00 8.0835590373349481e+05 -1.0605496244988842e+06 0.0000000000000000e+00 0.0000000000000000e+00 0.0000000000000000e+00 0.0000000000000000e+00  -1.4336174619917315e+08 4.6778849879186861e+06 0.0000000000000000e+00 4.6778849879186861e+06 1.5630845283995362e+06 0.0000000000000000e+00 0.0000000000000000e+00 0.0000000000000000e+00 0.0000000000000000e+00  -1.4403574487503174e+08 -2.0792777029143825e+07 0.0000000000000000e+00 -2.0792777029143825e+07 8.8107107126605548e+06 0.0000000000000000e+00 0.0000000000000000e+00 0.0000000000000000e+00 0.0000000000000000e+00  -1.1783899846323907e+07 6.3612213795167565e+07 0.0000000000000000e+00 6.3612213795167565e+07 -3.6458534148696005e+07 0.0000000000000000e+00 0.0000000000000000e+00 0.0000000000000000e+00 0.0000000000000000e+00  2.5694749376253184e+07 3.6159172822553597e+07 0.0000000000000000e+00 3.6159172822553597e+07 4.8002059662670773e+08 0.0000000000000000e+00 0.0000000000000000e+00 0.0000000000000000e+00 0.0000000000000000e+00  2.6052593453630591e+06 -3.4380643499093963e+05 0.0000000000000000e+00 -3.4380643499093963e+05 3.4806672763413382e+08 0.0000000000000000e+00 0.0000000000000000e+00 0.0000000000000000e+00 0.0000000000000000e+00  -2.1664197305647549e+06 4.7330311085573947e+06 0.0000000000000000e+00 4.7330311085573947e+06 3.3056415131341892e+08 0.0000000000000000e+00 0.0000000000000000e+00 0.0000000000000000e+00 0.0000000000000000e+00  1.5068008351995761e+06 2.0805662893929698e+06 0.0000000000000000e+00 2.0805662893929698e+06 3.1590578337802660e+08 0.0000000000000000e+00 0.0000000000000000e+00 0.0000000000000000e+00 0.0000000000000000e+00  2.8528286201662919e+05 1.2439938926072284e+06 0.0000000000000000e+00 1.2439938926072284e+06 3.0920612226567262e+08 0.0000000000000000e+00 0.0000000000000000e+00 0.0000000000000000e+00 0.0000000000000000e+00  1.7653251884915342e+05 9.9182920311913325e+05 0.0000000000000000e+00 9.9182920311913325e+05 3.0182363905803025e+08 0.0000000000000000e+00 0.0000000000000000e+00 0.0000000000000000e+00 0.0000000000000000e+00  1.7561451497277798e+05 2.5722813054332961e+05 0.0000000000000000e+00 2.5722813054332961e+05 2.9993836560583663e+08 0.0000000000000000e+00 0.0000000000000000e+00 0.0000000000000000e+00 0.0000000000000000e+00  -1.1202586209610222e+05 -1.0825983801638565e+05 0.0000000000000000e+00 -1.0825983801638565e+05 2.9822188834854394e+08 0.0000000000000000e+00 0.0000000000000000e+00 0.0000000000000000e+00 0.0000000000000000e+00  -1.9720996648706892e+05 -1.0555394320361498e+04 0.0000000000000000e+00 -1.0555394320361498e+04 2.9775665835106975e+08 0.0000000000000000e+00 0.0000000000000000e+00 0.0000000000000000e+00 0.0000000000000000e+00  -1.3410432475999905e+04 -3.2402091172560438e+05 0.0000000000000000e+00 -3.2402091172560438e+05 2.9943111969975531e+08 0.0000000000000000e+00 0.0000000000000000e+00 0.0000000000000000e+00 0.0000000000000000e+00  -1.4740521611539170e+05 -6.7409946544732503e+05 0.0000000000000000e+00 -6.7409946544732503e+05 3.0196878564726371e+08 0.0000000000000000e+00 0.0000000000000000e+00 0.0000000000000000e+00 0.0000000000000000e+00  -1.1094405368257847e+05 -4.4090220354113268e+05 0.0000000000000000e+00 -4.4090220354113268e+05 3.0794856041565305e+08 0.0000000000000000e+00 0.0000000000000000e+00 0.0000000000000000e+00 0.0000000000000000e+00  1.1761550503522479e+06 -1.5307916374681836e+06 0.0000000000000000e+00 -1.5307916374681836e+06 3.1571257017291594e+08 0.0000000000000000e+00 0.0000000000000000e+00 0.0000000000000000e+00 0.0000000000000000e+00  -1.0160458272763633e+06 -5.4125387426413158e+06 0.0000000000000000e+00 -5.4125387426413158e+06 3.2681018988724667e+08 0.0000000000000000e+00 0.0000000000000000e+00 0.0000000000000000e+00 0.0000000000000000e+00  -5.2465304543919433e+06 4.0933750331860776e+06 0.0000000000000000e+00 4.0933750331860776e+06 3.4515846347406870e+08 0.0000000000000000e+00 0.0000000000000000e+00 0.0000000000000000e+00 0.0000000000000000e+00  -2.3983499026080505e+06 -1.1994713476716599e+06 0.0000000000000000e+00 -1.1994713476716599e+06 4.3923214783908147e+08 0.0000000000000000e+00 0.0000000000000000e+00 0.0000000000000000e+00 0.0000000000000000e+00  1.8114190367501341e+07 -9.5776964849329814e+06 0.0000000000000000e+00 -9.5776964849329814e+06 2.1143591407558781e+08 0.0000000000000000e+00 0.0000000000000000e+00 0.0000000000000000e+00 0.0000000000000000e+00  -9.9179814579218980e+06 -2.4309348904229817e+06 0.0000000000000000e+00 -2.4309348904229817e+06 2.1560588325032923e+08 0.0000000000000000e+00 0.0000000000000000e+00 0.0000000000000000e+00 0.0000000000000000e+00  -6.4615893476683390e+05 5.1644036920838227e+05 0.0000000000000000e+00 5.1644036920838227e+05 2.1171512395966205e+08 0.0000000000000000e+00 0.0000000000000000e+00 0.0000000000000000e+00 0.0000000000000000e+00  -6.1304665459520451e+05 -1.1188637063837874e+05 0.0000000000000000e+00 -1.1188637063837874e+05 2.0971457992854038e+08 0.0000000000000000e+00 0.0000000000000000e+00 0.0000000000000000e+00 0.0000000000000000e+00  -9.6191680841486400e+05 1.8242200485865815e+05 0.0000000000000000e+00 1.8242200485865815e+05 2.0665647712773865e+08 0.0000000000000000e+00 0.0000000000000000e+00 0.0000000000000000e+00 0.0000000000000000e+00  -1.0659054215211840e+06 2.2465561313015089e+05 0.0000000000000000e+00 2.2465561313015089e+05 2.0413805524004123e+08 0.0000000000000000e+00 0.0000000000000000e+00 0.0000000000000000e+00 0.0000000000000000e+00  -1.2506864037174375e+06 2.4826857969584022e+05 0.0000000000000000e+00 2.4826857969584022e+05 2.0128344588606042e+08 0.0000000000000000e+00 0.0000000000000000e+00 0.0000000000000000e+00 0.0000000000000000e+00  -1.5230938353688521e+06 2.2672744514555496e+05 0.0000000000000000e+00 2.2672744514555496e+05 1.9881169746321785e+08 0.0000000000000000e+00 0.0000000000000000e+00 0.0000000000000000e+00 0.0000000000000000e+00  -1.5884314780369829e+06 1.9179234411067309e+05 0.0000000000000000e+00 1.9179234411067309e+05 1.9587219217501706e+08 0.0000000000000000e+00 0.0000000000000000e+00 0.0000000000000000e+00 0.0000000000000000e+00  -1.6484253061485416e+06 1.3592120649021197e+05 0.0000000000000000e+00 1.3592120649021197e+05 1.9315165436203337e+08 0.0000000000000000e+00 0.0000000000000000e+00 0.0000000000000000e+00 0.0000000000000000e+00  -1.7340491114043710e+06 1.4819248326391744e+05 0.0000000000000000e+00 1.4819248326391744e+05 1.9055785435146034e+08 0.0000000000000000e+00 0.0000000000000000e+00 0.0000000000000000e+00 0.0000000000000000e+00  -1.4996370062124871e+06 1.0452183705066262e+05 0.0000000000000000e+00 1.0452183705066262e+05 1.8726335069498414e+08 0.0000000000000000e+00 0.0000000000000000e+00 0.0000000000000000e+00 0.0000000000000000e+00  -1.2260166333719131e+06 1.4948116764512254e+05 0.0000000000000000e+00 1.4948116764512254e+05 1.8406143793128380e+08 0.0000000000000000e+00 0.0000000000000000e+00 0.0000000000000000e+00 0.0000000000000000e+00  -8.8822834094265453e+05 1.3829507697527757e+05 0.0000000000000000e+00 1.3829507697527757e+05 1.8059283548737097e+08 0.0000000000000000e+00 0.0000000000000000e+00 0.0000000000000000e+00 0.0000000000000000e+00  -1.9633702625071601e+05 1.0684065287126144e+05 0.0000000000000000e+00 1.0684065287126144e+05 1.7738735526498470e+08 0.0000000000000000e+00 0.0000000000000000e+00 0.0000000000000000e+00 0.0000000000000000e+00  4.3383832642774109e+05 9.7659907617677323e+04 0.0000000000000000e+00 9.7659907617677323e+04 1.7356881054332492e+08 0.0000000000000000e+00 0.0000000000000000e+00 0.0000000000000000e+00 0.0000000000000000e+00  1.4301740595093220e+06 6.1427107735766534e+04 0.0000000000000000e+00 6.1427107735766534e+04 1.6952571096941221e+08 0.0000000000000000e+00 0.0000000000000000e+00 0.0000000000000000e+00 0.0000000000000000e+00  2.5500192495481190e+06 1.7539490192124958e+04 0.0000000000000000e+00 1.7539490192124958e+04 1.6511160615227470e+08 0.0000000000000000e+00 0.0000000000000000e+00 0.0000000000000000e+00 0.0000000000000000e+00  3.7975566134954980e+06 -3.7194225595343618e+04 0.0000000000000000e+00 -3.7194225595343618e+04 1.6124796334140134e+08 0.0000000000000000e+00 0.0000000000000000e+00 0.0000000000000000e+00 0.0000000000000000e+00  5.2537394103937848e+06 1.1559628748335943e+04 0.0000000000000000e+00 1.1559628748335943e+04 1.5699158884978044e+08 0.0000000000000000e+00 0.0000000000000000e+00 0.0000000000000000e+00 0.0000000000000000e+00  6.7370299625780853e+06 -2.4716986832954790e+04 0.0000000000000000e+00 -2.4716986832954790e+04 1.5218207272509232e+08 0.0000000000000000e+00 0.0000000000000000e+00 0.0000000000000000e+00 0.0000000000000000e+00  8.7570052154034264e+06 -3.7854557030890464e+03 0.0000000000000000e+00 -3.7854557030890464e+03 1.4811065636230168e+08 0.0000000000000000e+00 0.0000000000000000e+00 0.0000000000000000e+00 0.0000000000000000e+00  1.0416540982617330e+07 -1.1009316761401276e+04 0.0000000000000000e+00 -1.1009316761401276e+04 1.4309926829056102e+08 0.0000000000000000e+00 0.0000000000000000e+00 0.0000000