<?xml version="1.0"?>
<VTKFile type="UnstructuredGrid"  version="0.1"  >
<UnstructuredGrid>
<Piece  NumberOfPoints="2049" NumberOfCells="3558">
<Points>
<DataArray  type="Float64"  NumberOfComponents="3"  format="ascii">0.9902368927062191 0.7067276079229867 0  0.9902368927062191 0.7932723920770133 0  -1.360001172087048e-15 0.09714045207910317 0  0.05522847498307933 0.1523689270621825 0  0.00976310729378305 0.2067276079229859 0  0.009763107293783081 0.2932723920770141 0  0.05522847498307936 0.3476310729378175 0  -1.371939238749579e-15 0.4028595479208968 0  0 0.4902368927062182 0  0.04327239207701404 0.490236892706217 0  0.1528595479208968 0.5 0  0.04327239207701404 0.5097631072937829 0  0 0.5097631072937817 0  -1.360001172087048e-15 0.5971404520791032 0  0.05522847498307933 0.6523689270621825 0  0.00976310729378305 0.7067276079229859 0  0.009763107293783081 0.7932723920770141 0  0.05522847498307936 0.8476310729378175 0  -1.371939238749579e-15 0.9028595479208968 0  0 1 0  1 1 0  0.9999999999999987 0.9028595479208968 0  0.9999999999999987 0.5971404520791032 0  1 0.5097631072937817 0  0.9567276079229865 0.5097631072937816 0  0.9567276079229864 0.4902368927062183 0  1 0.4902368927062182 0  0.9999999999999987 0.4028595479208968 0  0.9902368927062191 0.2932723920770133 0  0.9902368927062191 0.2067276079229867 0  0.9999999999999987 0.09714045207910318 0  1 0 0  0 0 0  0.2932723920770141 0.259763107293783 0  0.2067276079229864 0.2597631072937817 0  0.4028595479208968 0.25 0  0.2067276079229864 0.2402368927062183 0  0.2932723920770141 0.240236892706217 0  0.490236892706219 0.2067276079229867 0  0.5552284749830794 0.1523689270621825 0  0.490236892706219 0.2932723920770133 0  0.509763107293783 0.2067276079229859 0  0.5552284749830794 0.3476310729378175 0  0.509763107293783 0.2932723920770141 0  0.7932723920770141 0.259763107293783 0  0.7067276079229865 0.2597631072937817 0  0.9028595479208968 0.25 0  0.7067276079229864 0.2402368927062183 0  0.7932723920770141 0.240236892706217 0  0.240236892706219 0.4567276079229867 0  0.3052284749830794 0.4023689270621825 0  0.240236892706219 0.5432723920770133 0  0.259763107293783 0.4567276079229859 0  0.3052284749830794 0.5976310729378175 0  0.259763107293783 0.5432723920770141 0  0.293272392077014 0.7597631072937829 0  0.2067276079229864 0.7597631072937816 0  0.4028595479208968 0.75 0  0.2067276079229864 0.7402368927062184 0  0.293272392077014 0.7402368927062171 0  0.5432723920770141 0.5097631072937829 0  0.4567276079229864 0.5097631072937816 0  0.6528595479208968 0.5 0  0.4567276079229864 0.4902368927062183 0  0.5432723920770141 0.490236892706217 0  0.7402368927062191 0.4567276079229867 0  0.8052284749830794 0.4023689270621825 0  0.7402368927062191 0.5432723920770133 0  0.7597631072937829 0.4567276079229859 0  0.8052284749830794 0.5976310729378175 0  0.759763107293783 0.5432723920770141 0  0.490236892706219 0.7067276079229867 0  0.5552284749830794 0.6523689270621825 0  0.490236892706219 0.7932723920770133 0  0.5097631072937829 0.7067276079229859 0  0.5552284749830794 0.8476310729378175 0  0.509763107293783 0.7932723920770141 0  0.7932723920770141 0.7597631072937829 0  0.7067276079229865 0.7597631072937816 0  0.9028595479208968 0.75 0  0.7067276079229864 0.7402368927062184 0  0.7932723920770141 0.7402368927062171 0  0.9902368927062183 0.7716361960385065 0  0.9902368927062183 0.7499999999999999 0  0.9902368927062183 0.7283638039614933 0  0.02113502237081425 0.1013444694135039 0  0.03905242917512695 0.1133164978870555 0  0.05102445764867861 0.1312339046913682 0  0.05191277999905797 0.1712169434492198 0  0.04236381696618259 0.1878018420003075 0  0.02772814837202542 0.2001322418216877 0  0.009763107293781747 0.228363803961493 0  0.009763107293781751 0.25 0  0.009763107293781752 0.271636196038507 0  0.02772814837202542 0.2998677581783123 0  0.0423638169661826 0.3121981579996925 0  0.051912779999058 0.3287830565507802 0  0.05102445764867868 0.3687660953086317 0  0.03905242917512704 0.3866835021129444 0  0.02113502237081433 0.3986555305864961 0  0 0.4683925565098879 0  0 0.4465482203135576 0  0 0.4247038841172271 0  0.02163619603850703 0.4902368927062182 0  0.05208407317217896 0.4687645191920223 0  0.0689400409400554 0.4528088023900642 0  0.09086327740869171 0.445187762382543 0  0.1139818085764017 0.4472473897040748 0  0.1342125533813815 0.4586239231256301 0  0.1479824573600854 0.4773080953704273 0  0.1479824573600853 0.5226919046295727 0  0.1342125533813813 0.5413760768743701 0  0.1139818085764015 0.5527526102959253 0  0.09086327740869138 0.5548122376174569 0  0.06894004094005518 0.5471911976099357 0  0.05208407317217886 0.5312354808079776 0  0.02163619603850701 0.5097631072937817 0  0 0.5752961158827727 0  0 0.5534517796864424 0  0 0.5316074434901121 0  0.02113502237081425 0.6013444694135038 0  0.03905242917512695 0.6133164978870554 0  0.05102445764867861 0.6312339046913682 0  0.05191277999905797 0.6712169434492198 0  0.04236381696618259 0.6878018420003075 0  0.02772814837202542 0.7001322418216877 0  0.009763107293781747 0.728363803961493 0  0.009763107293781751 0.75 0  0.009763107293781752 0.7716361960385071 0  0.02772814837202542 0.7998677581783122 0  0.0423638169661826 0.8121981579996925 0  0.051912779999058 0.8287830565507801 0  0.05102445764867868 0.8687660953086317 0  0.03905242917512704 0.8866835021129444 0  0.02113502237081433 0.8986555305864961 0  0 0.9757148869802242 0  0 0.9514297739604484 0  0 0.9271446609406726 0  0.975 1 0  0.95 1 0  0.925 1 0  0.9 1 0  0.875 1 0  0.85 1 0  0.825 1 0  0.8 1 0  0.775 1 0  0.75 1 0  0.725 1 0  0.7 1 0  0.675 1 0  0.65 1 0  0.625 1 0  0.6 1 0  0.575 1 0  0.55 1 0  0.525 1 0  0.5 1 0  0.475 1 0  0.45 1 0  0.425 1 0  0.4 1 0  0.375 1 0  0.35 1 0  0.325 1 0  0.3 1 0  0.275 1 0  0.25 1 0  0.225 1 0  0.2 1 0  0.175 1 0  0.15 1 0  0.125 1 0  0.09999999999999998 1 0  0.07499999999999996 1 0  0.05000000000000004 1 0  0.02500000000000002 1 0  1 0.9271446609406726 0  1 0.9514297739604485 0  1 0.9757148869802242 0  0.977308095370427 0.8979824573600852 0  0.9586239231256296 0.8842125533813808 0  0.9472473897040745 0.8639818085764006 0  0.9451877623825432 0.8408632774086903 0  0.952808802390065 0.818940040940054 0  0.9687645191920239 0.8020840731721779 0  0.9687645191920238 0.6979159268278221 0  0.9528088023900649 0.6810599590599459 0  0.9451877623825432 0.6591367225913095 0  0.9472473897040745 0.6360181914235991 0  0.9586239231256297 0.6157874466186189 0  0.9773080953704271 0.6020175426399148 0  1 0.5316074434901121 0  1 0.5534517796864424 0  1 0.5752961158827727 0  0.9783638039614933 0.5097631072937817 0  0.9479159268278218 0.5312354808079767 0  0.9310599590599454 0.5471911976099353 0  0.9091367225913092 0.5548122376174569 0  0.8860181914235989 0.5527526102959254 0  0.8657874466186188 0.5413760768743702 0  0.8520175426399147 0.5226919046295727 0  0.8471404520791032 0.4999999999999997 0  0.8520175426399149 0.4773080953704267 0  0.8657874466186193 0.4586239231256295 0  0.8860181914235993 0.4472473897040745 0  0.9091367225913094 0.4451877623825432 0  0.9310599590599455 0.4528088023900647 0  0.9479159268278218 0.4687645191920233 0  0.9783638039614933 0.4902368927062182 0  1 0.4247038841172272 0  1 0.4465482203135576 0  1 0.4683925565098879 0  0.977308095370427 0.3979824573600852 0  0.9586239231256296 0.3842125533813809 0  0.9472473897040745 0.3639818085764006 0  0.9451877623825432 0.3408632774086902 0  0.952808802390065 0.318940040940054 0  0.9687645191920239 0.3020840731721779 0  0.9902368927062183 0.2716361960385066 0  0.9902368927062183 0.2499999999999999 0  0.9902368927062183 0.2283638039614933 0  0.9687645191920238 0.1979159268278221 0  0.9528088023900649 0.1810599590599458 0  0.9451877623825432 0.1591367225913095 0  0.9472473897040745 0.1360181914235991 0  0.9586239231256297 0.115787446618619 0  0.9773080953704271 0.1020175426399148 0  1 0.0242851130197758 0  1 0.04857022603955161 0  1 0.07285533905932737 0  0.025 0 0  0.05 0 0  0.075 0 0  0.1 0 0  0.125 0 0  0.15 0 0  0.175 0 0  0.2 0 0  0.225 0 0  0.25 0 0  0.275 0 0  0.3 0 0  0.325 0 0  0.35 0 0  0.375 0 0  0.4 0 0  0.425 0 0  0.45 0 0  0.475 0 0  0.5 0 0  0.525 0 0  0.55 0 0  0.575 0 0  0.6 0 0  0.625 0 0  0.65 0 0  0.675 0 0  0.7 0 0  0.725 0 0  0.75 0 0  0.775 0 0  0.8 0 0  0.825 0 0  0.85 0 0  0.875 0 0  0.9 0 0  0.925 0 0  0.95 0 0  0.975 0 0  0 0.0728553390593274 0  0 0.04857022603955152 0  0 0.02428511301977576 0  0.2716361960385071 0.2597631072937818 0  0.2500000000000002 0.2597631072937818 0  0.2283638039614933 0.2597631072937818 0  0.3979824573600853 0.2726919046295727 0  0.3842125533813813 0.29137607687437 0  0.3639818085764015 0.3027526102959253 0  0.3408632774086914 0.304812237617457 0  0.3189400409400552 0.2971911976099357 0  0.3020840731721789 0.2812354808079777 0  0.1979159268278217 0.2812354808079767 0  0.1810599590599454 0.2971911976099353 0  0.1591367225913091 0.3048122376174569 0  0.1360181914235989 0.3027526102959254 0  0.1157874466186188 0.2913760768743701 0  0.1020175426399147 0.2726919046295727 0  0.09714045207910318 0.2499999999999997 0  0.1020175426399149 0.2273080953704267 0  0.1157874466186193 0.2086239231256294 0  0.1360181914235993 0.1972473897040745 0  0.1591367225913095 0.1951877623825432 0  0.1810599590599456 0.2028088023900648 0  0.1979159268278218 0.2187645191920233 0  0.3020840731721789 0.2187645191920223 0  0.3189400409400554 0.2028088023900642 0  0.3408632774086917 0.195187762382543 0  0.3639818085764017 0.1972473897040748 0  0.3842125533813815 0.2086239231256301 0  0.3979824573600854 0.2273080953704273 0  0.2283638039614934 0.2402368927062183 0  0.2500000000000003 0.2402368927062182 0  0.2716361960385072 0.2402368927062182 0  0.4692751360844765 0.1982619242004081 0  0.4534613771222042 0.1821067990370722 0  0.445445235174887 0.1609690482144242 0  0.4465698270125854 0.138390334018118 0  0.4566467255631975 0.1181537543377331 0  0.4739875311548516 0.103649978864004 0  0.4956867654477704 0.09730913722736682 0  0.5181086887472435 0.1001936470839009 0  0.53749647371682
[...]
<PointData  Tensors="$\sigma$"> 
<DataArray  type="Float64"  Name="$\sigma$"  NumberOfComponents="9" format="ascii">-2.3922237872083303e+07 -2.3344187512578189e+07 0.0000000000000000e+00 -2.3344187512578189e+07 -2.8712112275293108e+07 0.0000000000000000e+00 0.0000000000000000e+00 0.0000000000000000e+00 0.0000000000000000e+00  -2.6554642288483076e+07 1.9481743109581463e+07 0.0000000000000000e+00 1.9481743109581463e+07 -2.5084238718276992e+07 0.0000000000000000e+00 0.0000000000000000e+00 0.0000000000000000e+00 0.0000000000000000e+00  6.9557231188134814e+05 -2.8293655095903282e+06 0.0000000000000000e+00 -2.8293655095903291e+06 -2.9866598063912080e+06 0.0000000000000000e+00 0.0000000000000000e+00 0.0000000000000000e+00 0.0000000000000000e+00  8.4892752561922725e+06 1.0172266569849592e+07 0.0000000000000000e+00 1.0172266569849592e+07 1.3628909761435813e+08 0.0000000000000000e+00 0.0000000000000000e+00 0.0000000000000000e+00 0.0000000000000000e+00  -1.9101339614923585e+07 1.8780121237690307e+07 0.0000000000000000e+00 1.8780121237690307e+07 -2.2100953278917350e+07 0.0000000000000000e+00 0.0000000000000000e+00 0.0000000000000000e+00 0.0000000000000000e+00  -6.0387862197049335e+06 -2.2315864100328311e+07 0.0000000000000000e+00 -2.2315864100328311e+07 -3.1663202565584946e+07 0.0000000000000000e+00 0.0000000000000000e+00 0.0000000000000000e+00 0.0000000000000000e+00  4.4952893067086249e+05 -4.3035028200616343e+06 0.0000000000000000e+00 -4.3035028200616343e+06 4.3923595624081872e+07 0.0000000000000000e+00 0.0000000000000000e+00 0.0000000000000000e+00 0.0000000000000000e+00  -6.8544135733312066e+05 7.2983374154853390e+05 0.0000000000000000e+00 7.2983374154853390e+05 -7.5166892850769998e+05 0.0000000000000000e+00 0.0000000000000000e+00 0.0000000000000000e+00 0.0000000000000000e+00  1.1721544036133210e+05 7.3572644383460633e+04 0.0000000000000000e+00 7.3572644383460633e+04 5.4045904666740105e+04 0.0000000000000000e+00 0.0000000000000000e+00 0.0000000000000000e+00 0.0000000000000000e+00  2.0536576509571218e+05 3.9144619116016279e+05 0.0000000000000000e+00 3.9144619116016279e+05 -3.2296445227551588e+05 0.0000000000000000e+00 0.0000000000000000e+00 0.0000000000000000e+00 0.0000000000000000e+00  6.4223732272017509e+07 1.4060602571559460e+06 0.0000000000000000e+00 1.4060602571559460e+06 5.3735858066995764e+08 0.0000000000000000e+00 0.0000000000000000e+00 0.0000000000000000e+00 0.0000000000000000e+00  2.6966502853262733e+05 -4.6370844303031662e+05 0.0000000000000000e+00 -4.6370844303031662e+05 -3.3434323845265189e+05 0.0000000000000000e+00 0.0000000000000000e+00 0.0000000000000000e+00 0.0000000000000000e+00  1.5348399694290973e+05 -6.5914685870487723e+04 0.0000000000000000e+00 -6.5914685870487738e+04 3.1085002634729812e+04 0.0000000000000000e+00 0.0000000000000000e+00 0.0000000000000000e+00 0.0000000000000000e+00  -5.0789672560065670e+05 -7.7542884839882178e+05 0.0000000000000000e+00 -7.7542884839882189e+05 -9.1287091005885159e+05 0.0000000000000000e+00 0.0000000000000000e+00 0.0000000000000000e+00 0.0000000000000000e+00  -4.9878594375155815e+04 7.2276538859287184e+05 0.0000000000000000e+00 7.2276538859287451e+05 5.1892049082581155e+07 0.0000000000000000e+00 0.0000000000000000e+00 0.0000000000000000e+00 0.0000000000000000e+00  -6.9960467944188006e+06 2.0163693421135910e+07 0.0000000000000000e+00 2.0163693421135910e+07 -3.1549680928958405e+07 0.0000000000000000e+00 0.0000000000000000e+00 0.0000000000000000e+00 0.0000000000000000e+00  -9.7139897920622006e+06 -1.9200091997917876e+07 0.0000000000000000e+00 -1.9200091997917876e+07 -2.8243817530970946e+07 0.0000000000000000e+00 0.0000000000000000e+00 0.0000000000000000e+00 0.0000000000000000e+00  7.3977236077573095e+06 -1.4876059564103523e+07 0.0000000000000000e+00 -1.4876059564103523e+07 1.5300597477217397e+08 0.0000000000000000e+00 0.0000000000000000e+00 0.0000000000000000e+00 0.0000000000000000e+00  7.0300607296319818e+05 2.8522999797888300e+06 0.0000000000000000e+00 2.8522999797888300e+06 -2.9794580827860404e+06 0.0000000000000000e+00 0.0000000000000000e+00 0.0000000000000000e+00 0.0000000000000000e+00  -6.2600595298816857e+05 -1.3908138576263771e+04 0.0000000000000000e+00 -1.3908138576263771e+04 2.4862335527882621e+07 0.0000000000000000e+00 0.0000000000000000e+00 0.0000000000000000e+00 0.0000000000000000e+00  -2.2011251473141633e+05 1.0020463018205415e+04 0.0000000000000000e+00 1.0020463018205217e+04 2.5474116569467597e+07 0.0000000000000000e+00 0.0000000000000000e+00 0.0000000000000000e+00 0.0000000000000000e+00  5.2928854122231722e+04 -2.3380502043950190e+06 0.0000000000000000e+00 -2.3380502043950194e+06 2.1356926210237961e+05 0.0000000000000000e+00 0.0000000000000000e+00 0.0000000000000000e+00 0.0000000000000000e+00  -1.2831933232559464e+06 3.7224527338486240e+05 0.0000000000000000e+00 3.7224527338486223e+05 1.1542677044799838e+05 0.0000000000000000e+00 0.0000000000000000e+00 0.0000000000000000e+00 0.0000000000000000e+00  1.0442777603229112e+05 6.4148728572988766e+04 0.0000000000000000e+00 6.4148728572988868e+04 4.7167302007706436e+04 0.0000000000000000e+00 0.0000000000000000e+00 0.0000000000000000e+00 0.0000000000000000e+00  1.5664144579472888e+05 2.7016911103976273e+05 0.0000000000000000e+00 2.7016911103976273e+05 -2.7028151811726275e+05 0.0000000000000000e+00 0.0000000000000000e+00 0.0000000000000000e+00 0.0000000000000000e+00  3.2358579121046502e+05 6.0279743635171049e+04 0.0000000000000000e+00 6.0279743635171020e+04 -1.4974378052184702e+05 0.0000000000000000e+00 0.0000000000000000e+00 0.0000000000000000e+00 0.0000000000000000e+00  1.0649520802562792e+05 4.1673577096828936e+04 0.0000000000000000e+00 4.1673577096828922e+04 1.3576417310587887e+05 0.0000000000000000e+00 0.0000000000000000e+00 0.0000000000000000e+00 0.0000000000000000e+00  -1.2579257042913232e+06 -8.0517358051208174e+05 0.0000000000000000e+00 -8.0517358051208151e+05 -1.0703081436810342e+06 0.0000000000000000e+00 0.0000000000000000e+00 0.0000000000000000e+00 0.0000000000000000e+00  -2.8816240369867709e+07 2.1972987160991311e+07 0.0000000000000000e+00 2.1972987160991311e+07 -2.4847469826363228e+07 0.0000000000000000e+00 0.0000000000000000e+00 0.0000000000000000e+00 0.0000000000000000e+00  -2.2916900739881378e+07 -2.1908054622715540e+07 0.0000000000000000e+00 -2.1908054622715551e+07 -2.6903773259267919e+07 0.0000000000000000e+00 0.0000000000000000e+00 0.0000000000000000e+00 0.0000000000000000e+00  3.3424007205267862e+05 2.0370835956894304e+06 0.0000000000000000e+00 2.0370835956894304e+06 5.9619255878860166e+05 0.0000000000000000e+00 0.0000000000000000e+00 0.0000000000000000e+00 0.0000000000000000e+00  -2.0824528152839158e+05 -2.6093476881194645e+04 0.0000000000000000e+00 -2.6093476881194594e+04 2.5266802484208316e+07 0.0000000000000000e+00 0.0000000000000000e+00 0.0000000000000000e+00 0.0000000000000000e+00  -6.2752857606909284e+05 1.3190225435764794e+04 0.0000000000000000e+00 1.3190225435764918e+04 2.4768721437507890e+07 0.0000000000000000e+00 0.0000000000000000e+00 0.0000000000000000e+00 0.0000000000000000e+00  -2.4478053445868332e+07 -2.5707312514372259e+07 0.0000000000000000e+00 -2.5707312514372259e+07 -2.9637601643102538e+07 0.0000000000000000e+00 0.0000000000000000e+00 0.0000000000000000e+00 0.0000000000000000e+00  -2.2138518771318555e+07 3.1592219677789576e+07 0.0000000000000000e+00 3.1592219677789565e+07 -3.7946493376620449e+07 0.0000000000000000e+00 0.0000000000000000e+00 0.0000000000000000e+00 0.0000000000000000e+00  4.4477753910683013e+07 -3.3925934570905522e+07 0.0000000000000000e+00 -3.3925934570905522e+07 4.6811456164681017e+08 0.0000000000000000e+00 0.0000000000000000e+00 0.0000000000000000e+00 0.0000000000000000e+00  -7.1127176826891920e+05 -3.7845453537299652e+06 0.0000000000000000e+00 -3.7845453537299652e+06 -4.3115129649986709e+06 0.0000000000000000e+00 0.0000000000000000e+00 0.0000000000000000e+00 0.0000000000000000e+00  -6.2477560995216372e+04 -1.3954061848694950e+06 0.0000000000000000e+00 -1.3954061848694950e+06 -1.0356261767791739e+06 0.0000000000000000e+00 0.0000000000000000e+00 0.0000000000000000e+00 0.0000000000000000e+00  -1.9345382018182617e+07 -1.3653787850611378e+07 0.0000000000000000e+00 -1.3653787850611379e+07 -3.0901182308209255e+07 0.0000000000000000e+00 0.0000000000000000e+00 0.0000000000000000e+00 0.0000000000000000e+00  2.3153567475029964e+07 1.4450865739931669e+07 0.0000000000000000e+00 1.4450865739931669e+07 3.4845483556397051e+08 0.0000000000000000e+00 0.0000000000000000e+00 0.0000000000000000e+00 0.0000000000000000e+00  -2.6094746641010933e+07 2.4131209633873019e+07 0.0000000000000000e+00 2.4131209633873016e+07 -2.9802940657139637e+07 0.0000000000000000e+00 0.0000000000000000e+00 0.0000000000000000e+00 0.0000000000000000e+00  -7.6980577944690567e+06 2.1400936171691466e+07 0.0000000000000000e+00 2.1400936171691466e+07 -3.3709230485422634e+07 0.0000000000000000e+00 0.0000000000000000e+00 0.0000000000000000e+00 0.0000000000000000e+00  6.4099990665005874e+06 -2.2301597605935842e+07 0.0000000000000000e+00 -2.2301597605935846e+07 7.8982273867111787e+07 0.0000000000000000e+00 0.0000000000000000e+00 0.0000000000000000e+00 0.0000000000000000e+00  -1.1061808453749927e+07 -2.2659091744083192e+07 0.0000000000000000e+00 -2.2659091744083185e+07 -3.3587596758049183e+07 0.0000000000000000e+00 0.0000000000000000e+00 0.0000000000000000e+00 0.0000000000000000e+00  -2.2792266672207195e+07 -2.8880210237163082e+07 0.0000000000000000e+00 -2.8880210237163082e+07 -3.2686804187395647e+07 0.0000000000000000e+00 0.0000000000000000e+00 0.0000000000000000e+00 0.0000000000000000e+00  -2.4866570605233926e+07 2.4490736167265929e+07 0.0000000000000000e+00 2.4490736167265933e+07 -2.8970437217920035e+07 0.0000000000000000e+00 0.0000000000000000e+00 0.0000000000000000e+00 0.0000000000000000e+00  3.9317375310560517e+07 -8.1798010825458309e+06 0.0000000000000000e+00 -8.1798010825458309e+06 3.6724132590902913e+08 0.0000000000000000e+00 0.0000000000000000e+00 0.0000000000000000e+00 0.0000000000000000e+00  -5.0422649166104326e+05 -4.2083072620143108e+06 0.0000000000000000e+00 -4.2083072620143108e+06 -4.3932182188644065e+06 0.0000000000000000e+00 0.0000000000000000e+00 0.0000000000000000e+00 0.0000000000000000e+00  -1.8509522468775804e+06 2.2151877793611321e+06 0.0000000000000000e+00 2.2151877793611321e+06 -2.9027165701235584e+06 0.0000000000000000e+00 0.0000000000000000e+00 0.0000000000000000e+00 0.0000000000000000e+00  -4.1318354910989493e+07 -3.5002248146271400e+07 0.0000000000000000e+00 -3.5002248146271400e+07 -4.2817947628654972e+07 0.0000000000000000e+00 0.0000000000000000e+00 0.0000000000000000e+00 0.0000000000000000e+00  9.7650091127981339e+06 1.0128719864125103e+07 0.0000000000000000e+00 1.0128719864125103e+07 1.2100652198424342e+08 0.0000000000000000e+00 0.0000000000000000e+00 0.0000000000000000e+00 0.0000000000000000e+00  -3.8409551463744536e+07 3.5183591619333588e+07 0.0000000000000000e+00 3.5183591619333588e+07 -4.3539437679669484e+07 0.0000000000000000e+00 0.0000000000000000e+00 0.0000000000000000e+00 0.0000000000000000e+00  -9.4591103237646576e+06 2.5337445803882997e+07 0.0000000000000000e+00 2.5337445803882997e+07 -3.9066846213193946e+07 0.0000000000000000e+00 0.0000000000000000e+00 0.0000000000000000e+00 0.0000000000000000e+00  5.8999977748365141e+06 -1.1784921289308039e+07 0.0000000000000000e+00 -1.1784921289308039e+07 1.1548395671500264e+08 0.0000000000000000e+00 0.0000000000000000e+00 0.0000000000000000e+00 0.0000000000000000e+00  -1.2334377170988904e+07 -2.4519655368231762e+07 0.0000000000000000e+00 -2.4519655368231762e+07 -3.5976286374048717e+07 0.0000000000000000e+00 0.0000000000000000e+00 0.0000000000000000e+00 0.0000000000000000e+00  -2.6002050191591243e+05 1.2585468246429481e+06 0.0000000000000000e+00 1.2585468246429481e+06 -8.5758105536367022e+05 0.0000000000000000e+00 0.0000000000000000e+00 0.0000000000000000e+00 0.0000000000000000e+00  -6.9877143096762663e+05 3.7922594185961410e+06 0.0000000000000000e+00 3.7922594185961410e+06 -4.2846075559039908e+06 0.0000000000000000e+00 0.0000000000000000e+00 0.0000000000000000e+00 0.0000000000000000e+00  3.9123699155300520e+07 2.9937633973063488e+07 0.0000000000000000e+00 2.9937633973063499e+07 4.4751599313363200e+08 0.0000000000000000e+00 0.0000000000000000e+00 0.0000000000000000e+00 0.0000000000000000e+00  -2.9378733037754532e+07 -2.5582215555067934e+07 0.0000000000000000e+00 -2.5582215555067934e+07 -3.2208965186115287e+07 0.0000000000000000e+00 0.0000000000000000e+00 0.0000000000000000e+00 0.0000000000000000e+00  -2.6854916478011642e+07 2.3244214394813269e+07 0.0000000000000000e+00 2.3244214394813269e+07 -2.6428400636327837e+07 0.0000000000000000e+00 0.0000000000000000e+00 0.0000000000000000e+00 0.0000000000000000e+00  -1.4414518367612457e+07 -2.0118186478371911e+07 0.0000000000000000e+00 -2.0118186478371911e+07 -2.2762154908934511e+07 0.0000000000000000e+00 0.0000000000000000e+00 0.0000000000000000e+00 0.0000000000000000e+00  -1.5796722345198255e+07 1.8638720837646227e+07 0.0000000000000000e+00 1.8638720837646227e+07 -2.2426195698000543e+07 0.0000000000000000e+00 0.0000000000000000e+00 0.0000000000000000e+00 0.0000000000000000e+00  4.7641330491289787e+07 -7.3101385405659827e+05 0.0000000000000000e+00 -7.3101385405660013e+05 4.9828921637010843e+08 0.0000000000000000e+00 0.0000000000000000e+00 0.0000000000000000e+00 0.0000000000000000e+00  -2.0014496861258384e+07 -1.7616738241699819e+07 0.0000000000000000e+00 -1.7616738241699819e+07 -2.2473499224071842e+07 0.0000000000000000e+00 0.0000000000000000e+00 0.0000000000000000e+00 0.0000000000000000e+00  -1.7726373845598046e+07 1.7139011750378165e+07 0.0000000000000000e+00 1.7139011750378165e+07 -2.0133516662215788e+07 0.0000000000000000e+00 0.0000000000000000e+00 0.0000000000000000e+00 0.0000000000000000e+00  -3.1174853223732010e+07 -2.6518379212378398e+07 0.0000000000000000e+00 -2.6518379212378416e+07 -3.4504496155187145e+07 0.0000000000000000e+00 0.0000000000000000e+00 0.0000000000000000e+00 0.0000000000000000e+00  9.6955520157607552e+06 3.5570046829490840e+07 0.0000000000000000e+00 3.5570046829490840e+07 9.7438522516104922e+07 0.0000000000000000e+00 0.0000000000000000e+00 0.0000000000000000e+00 0.0000000000000000e+00  -2.8500031962461509e+07 2.6262645554703869e+07 0.0000000000000000e+00 2.6262645554703843e+07 -3.4842349279719055e+07 0.0000000000000000e+00 0.0000000000000000e+00 0.0000000000000000e+00 0.0000000000000000e+00  -1.1929508338155869e+07 2.9615004373476271e+07 0.0000000000000000e+00 2.9615004373476271e+07 -4.4877464297682203e+07 0.0000000000000000e+00 0.0000000000000000e+00 0.0000000000000000e+00 0.0000000000000000e+00  8.8938183639205452e+06 -3.7187596893098943e+07 0.0000000000000000e+00 -3.7187596893098943e+07 9.2375595223051265e+07 0.0000000000000000e+00 0.0000000000000000e+00 0.0000000000000000e+00 0.0000000000000000e+00  -1.5128468327179311e+07 -2.8752260397824958e+07 0.0000000000000000e+00 -2.8752260397824958e+07 -4.2388998863782078e+07 0.0000000000000000e+00 0.0000000000000000e+00 0.0000000000000000e+00 0.0000000000000000e+00  -2.8478636443738397e+07 -2.4220027532920267e+07 0.0000000000000000e+00 -2.4220027532920267e+07 -2.9022903401234202e+07 0.0000000000000000e+00 0.0000000000000000e+00 0.0000000000000000e+00 0.0000000000000000e+00  5.7963476356820564e+05 2.0903987039418787e+07 0.0000000000000000e+00 2.0903987039418783e+07 7.5363846231827438e+07 0.0000000000000000e+00 0.0000000000000000e+00 0.0000000000000000e+00 0.0000000000000000e+00  -1.8442048946156662e+07 1.5131777526542619e+07 0.0000000000000000e+00 1.5131777526542619e+07 -2.9573603771155480e+07 0.0000000000000000e+00 0.0000000000000000e+00 0.0000000000000000e+00 0.0000000000000000e+00  -6.9298318223764114e+06 2.3143445458530724e+07 0.0000000000000000e+00 2.3143445458530724e+07 -3.7959208884105071e+07 0.0000000000000000e+00 0.0000000000000000e+00 0.0000000000000000e+00 0.0000000000000000e+00  3.6910807956787333e+07 -3.0213401760227587e+06 0.0000000000000000e+00 -3.0213401760227587e+06 3.2342150713079017e+08 0.0000000000000000e+00 0.0000000000000000e+00 0.0000000000000000e+00 0.0000000000000000e+00  -8.7153240031002369e+06 -2.0198399619918000e+07 0.0000000000000000e+00 -2.0198399619918000e+07 -2.9285816793279726e+07 0.0000000000000000e+00 0.0000000000000000e+00 0.0000000000000000e+00 0.0000000000000000e+00  -2.8569002158626551e+06 -4.2635351962034600e+06 0.0000000000000000e+00 -4.2635351962034581e+06 -3.9538631605023784e+06 0.0000000000000000e+00 0.0000000000000000e+00 0.0000000000000000e+00 0.0000000000000000e+00  -1.6557476787010938e+05 2.9264584312211000e+06 0.0000000000000000e+00 2.9264584312211000e+06 -4.0016226780697918e+06 0.0000000000000000e+00 0.0000000000000000e+00 0.0000000000000000e+00 0.0000000000000000e+00  4.0830570836459123e+07 1.2639671586505119e+07 0.0000000000000000e+00 1.2639671586505121e+07 3.7095561939181280e+08 0.0000000000000000e+00 0.0000000000000000e+00 0.0000000000000000e+00 0.0000000000000000e+00  -2.9742572253244873e+07 -2.4725007261739511e+07 0.0000000000000000e+00 -2.4725007261739511e+07 -2.9260601506002918e+07 0.0000000000000000e+00 0.0000000000000000e+00 0.0000000000000000e+00 0.0000000000000000e+00  -2.7420049600714609e+07 2.5720030015861634e+07 0.0000000000000000e+00 2.5720030015861634e+07 -2.9500760007584136e+07 0.0000000000000000e+00 0.0000000000000000e+00 0.0000000000000000e+00 0.0000000000000000e+00  9.6668833739663456e+06 1.0111824598185252e+07 0.0000000000000000e+00 1.0111824598185252e+07 -6.3833282658821829e+07 0.0000000000000000e+00 0.0000000000000000e+00 0.0000000000000000e+00 0.0000000000000000e+00  2.0880139076637367e+06 3.0281739613491884e+06 0.0000000000000000e+00 3.0281739613491884e+06 -8.9925989738613561e+07 0.0000000000000000e+00 0.0000000000000000e+00 0.0000000000000000e+00 0.0000000000000000e+00  1.1434589434871631e+07 -1.2350161120661644e+07 0.0000000000000000e+00 -1.2350161120661644e+07 -6.3393901077647142e+07 0.0000000000000000e+00 0.0000000000000000e+00 0.0000000000000000e+00 0.0000000000000000e+00  8.3497837689040406e+06 1.0789228142265603e+07 0.0000000000000000e+00 1.0789228142265609e+07 1.1759176525834534e+07 0.0000000000000000e+00 0.0000000000000000e+00 0.0000000000000000e+00 0.0000000000000000e+00  2.0721206819963846e+07 2.8330165027000926e+07 0.0000000000000000e+00 2.8330165027000926e+07 5.5266277931754895e+07 0.0000000000000000e+00 0.0000000000000000e+00 0.0000000000000000e+00 0.0000000000000000e+00  1.6933849862847105e+07 3.7193662753520779e+07 0.0000000000000000e+00 3.7193662753520779e+07 1.3120026555680127e+08 0.0000000000000000e+00 0.0000000000000000e+00 0.0000000000000000e+00 0.0000000000000000e+00  -1.1471000290615927e+07 4.3733443808641685e+06 0.0000000000000000e+00 4.3733443808641685e+06 8.0020197307241902e+07 0.0000000000000000e+00 0.0000000000000000e+00 0.0000000000000000e+00 0.0000000000000000e+00  -4.4557239717602380e+07 3.5954662450834721e+07 0.0000000000000000e+00 3.5954662450834721e+07 -2.0796756362231042e+07 0.0000000000000000e+00 0.0000000000000000e+00 0.0000000000000000e+00 0.0000000000000000e+00  -3.7925269056835406e+07 4.5287143432439864e+07 0.0000000000000000e+00 4.5287143432439864e+07 -3.5179357940160915e+07 0.0000000000000000e+00 0.0000000000000000e+00 0.0000000000000000e+00 0.0000000000000000e+00  5.0714175405578893e+06 1.3763839640966287e+07 0.0000000000000000e+00 1.3763839640966287e+07 -6.0792107798199117e+07 0.0000000000000000e+00 0.0000000000000000e+00 0.0000000000000000e+00 0.0000000000000000e+00  6.3653534180322215e+06 1.6187715235855160e+06 0.0000000000000000e+00 1.6187715235855160e+06 -8.8118974734642997e+07 0.0000000000000000e+00 0.0000000000000000e+00 0.0000000000000000e+00 0.0000000000000000e+00  3.1309936704854714e+06 -1.2511695438023387e+07 0.0000000000000000e+00 -1.2511695438023387e+07 -6.3952220623655841e+07 0.0000000000000000e+00 0.0000000000000000e+00 0.0000000000000000e+00 0.0000000000000000e+00  -3.9619822426397562e+07 -4.5587455689084254e+07 0.0000000000000000e+00 -4.5587455689084254e+07 -4.6060952100064434e+07 0.000000000000