<?xml version="1.0"?>
<VTKFile type="UnstructuredGrid"  version="0.1"  >
<UnstructuredGrid>
<Piece  NumberOfPoints="4169" NumberOfCells="7368">
<Points>
<DataArray  type="Float64"  NumberOfComponents="3"  format="ascii">0.7066987298107785 0.6886751345948137 0  0.716746824526945 0.7261751345948129 0  0.6417468245269455 0.8011751345948128 0  0.6850480947161667 0.8761751345948137 0  0.8149519052838332 0.8761751345948136 0  0.9082531754730548 0.8511751345948129 0  0.8582531754730551 0.8011751345948128 0  0.7933012701892215 0.6886751345948137 0  0.8 0.6636751345948129 0  2.725844971637317e-16 0.1806624327025936 0  0.04999999999999998 0.2306624327025936 0  0 0 0  0.04330127018922151 0.2556624327025943 0  1 0 0  0.1082531754730552 0.3681624327025936 0  1 0.1806624327025936 0  0.1582531754730548 0.4181624327025936 0  0.9566987298107785 0.2556624327025943 0  0.06495190528383332 0.4431624327025943 0  0.966746824526945 0.2931624327025936 0  1.062752486642282e-15 0.4056624327025935 0  0.8917468245269455 0.3681624327025936 0  2.725844971637317e-16 0.4693375672974065 0  0.9350480947161668 0.4431624327025943 0  0.04999999999999998 0.5193375672974064 0  0.9999999999999989 0.4056624327025936 0  0.04330127018922152 0.5443375672974071 0  1 0.4693375672974064 0  0.1082531754730552 0.6568375672974064 0  0.9566987298107785 0.5443375672974071 0  0.1582531754730548 0.7068375672974064 0  0.966746824526945 0.5818375672974064 0  0.06495190528383331 0.7318375672974071 0  0.8917468245269455 0.6568375672974064 0  1.062752486642282e-15 0.6943375672974065 0  0.9350480947161668 0.7318375672974071 0  0 1 0  0.9999999999999989 0.6943375672974065 0  1 1 0  0.2066987298107785 0.1113248654051878 0  0.3 0.08632486540518708 0  0.2167468245269452 0.1488248654051871 0  0.2933012701892215 0.1113248654051878 0  0.1417468245269455 0.2238248654051871 0  0.3582531754730552 0.2238248654051871 0  0.1850480947161667 0.2988248654051878 0  0.4082531754730548 0.2738248654051871 0  0.3149519052838333 0.2988248654051878 0  0.7066987298107785 0.1113248654051878 0  0.8 0.08632486540518708 0  0.716746824526945 0.1488248654051871 0  0.7933012701892215 0.1113248654051878 0  0.6417468245269455 0.2238248654051871 0  0.8582531754730551 0.2238248654051871 0  0.6850480947161668 0.2988248654051878 0  0.9082531754730548 0.2738248654051871 0  0.8149519052838332 0.2988248654051878 0  0.4566987298107785 0.2556624327025943 0  0.55 0.2306624327025936 0  0.4667468245269452 0.2931624327025936 0  0.5433012701892215 0.2556624327025943 0  0.3917468245269455 0.3681624327025936 0  0.6082531754730551 0.3681624327025936 0  0.4350480947161667 0.4431624327025943 0  0.6582531754730548 0.4181624327025936 0  0.5649519052838332 0.4431624327025943 0  0.2066987298107784 0.4000000000000007 0  0.3 0.375 0  0.2167468245269452 0.4375000000000001 0  0.2933012701892215 0.4000000000000007 0  0.1417468245269455 0.5125 0  0.3582531754730552 0.5125 0  0.1850480947161667 0.5875000000000008 0  0.4082531754730548 0.5625 0  0.3149519052838333 0.5875000000000007 0  0.2066987298107785 0.6886751345948137 0  0.3 0.6636751345948129 0  0.2167468245269452 0.7261751345948129 0  0.2933012701892215 0.6886751345948137 0  0.1417468245269455 0.8011751345948128 0  0.3582531754730552 0.8011751345948128 0  0.1850480947161667 0.8761751345948137 0  0.4082531754730548 0.8511751345948129 0  0.3149519052838333 0.8761751345948136 0  0.4566987298107785 0.5443375672974071 0  0.55 0.5193375672974064 0  0.4667468245269452 0.5818375672974064 0  0.5433012701892215 0.5443375672974071 0  0.3917468245269455 0.6568375672974064 0  0.6082531754730551 0.6568375672974064 0  0.4350480947161667 0.7318375672974071 0  0.6582531754730548 0.7068375672974064 0  0.5649519052838332 0.7318375672974071 0  0.7066987298107785 0.4000000000000007 0  0.8 0.375 0  0.716746824526945 0.4375000000000001 0  0.7933012701892215 0.4000000000000007 0  0.6417468245269455 0.5125 0  0.8582531754730551 0.5125 0  0.6850480947161667 0.5875000000000008 0  0.9082531754730548 0.5625 0  0.8149519052838332 0.5875000000000007 0  0.7122237710858884 0.7005236238453882 0  0.7156074060028608 0.7131515212697934 0  0.7153057205571873 0.7408069087460225 0  0.7110377894652916 0.7548763920221946 0  0.704107045449636 0.7678429020712829 0  0.6947798331159363 0.7792081431838038 0  0.6834145920034154 0.7885353555175036 0  0.6704480819543269 0.7954660995331594 0  0.6563785986781547 0.7997340306250551 0  0.6757554614154905 0.8878277281863047 0  0.6634410114828223 0.8962235779899342 0  0.6491989378357531 0.9006166759060694 0  0.6342947112181357 0.9006166759060692 0  0.6200526375710667 0.8962235779899335 0  0.6077381876383987 0.8878277281863037 0  0.598445554337723 0.8761751345948123 0  0.5930004289178539 0.8623011812926281 0  0.5918866346678863 0.8474386299154912 0  0.5952031370947352 0.8329080833764928 0  0.6026552504035438 0.8200006445018759 0  0.6135808216237643 0.809863195879013 0  0.6270090658064 0.8033964943055059 0  0.6933187819234301 0.8645605795489171 0  0.7036380760334542 0.8547211524891042 0  0.7156330108704438 0.8470124759456938 0  0.7288700582368925 0.8417131615737257 0  0.7428707967521861 0.8390147404018315 0  0.7571292032478137 0.8390147404018315 0  0.7711299417631075 0.8417131615737257 0  0.7843669891295562 0.8470124759456938 0  0.7963619239665458 0.8547211524891042 0  0.8066812180765698 0.864560579548917 0  0.9061526510888293 0.8655152962303673 0  0.9000275660437017 0.878650583498353 0  0.890392555957382 0.8894773567507616 0  0.878057163775013 0.8970859399388265 0  0.8640578211793167 0.9008370524819099 0  0.8495707665897088 0.9004155222454233 0  0.8358132164630322 0.8958567666109838 0  0.8239410935796185 0.8875438166734657 0  0.8711941277281808 0.8028788432803594 0  0.8832531754730548 0.8078738644055909 0  0.8936085145323822 0.8158197955354854 0  0.9015544456622767 0.8261751345948128 0  0.9065494667875083 0.8382341823396868 0  0.8440593321460241 0.7998197868895158 0  0.8303784912985304 0.7958027295710184 0  0.8177051141638851 0.7892691495571516 0  0.8064972496118965 0.7804551874526933 0  0.7971599790692798 0.7696794028126529 0  0.7900307758214661 0.7573312605699546 0  0.7853673078487893 0.7438570547580203 0  0.7833381250343292 0.729743778281594 0  0.7840165673319848 0.715501521724317 0  0.7873781140694545 0.7016450373460069 0  0.7982962913144533 0.6766160868499393 0  0.7014529091286976 0.6756409178091916 0  0.7000405500914215 0.6616618375893429 0  0.7025731779026425 0.64784173490474 0  0.7088508067053169 0.6352718972582556 0  0.7183777312202307 0.6249448865034305 0  0.7304016695069958 0.6176761624118718 0  0.7439731659872335 0.6140396908899102 0  0.7580205640428878 0.6143226214629172 0  0.7714346280701525 0.6185026128642936 0  0.7831561329120397 0.6262495971862577 0  0.7922595042771897 0.6369518432884227 0  0.7980259055815686 0.6497642613989901 0  0.01294095225512599 0.1823661413881401 0  0.02499999999999998 0.1873611625133716 0  0.03535533905932735 0.1953070936432662 0  0.04330127018922193 0.2056624327025936 0  0.04829629131445341 0.2177214804474676 0  0 0.1667653224947019 0  0 0.15286821228681 0  0 0.1389711020789183 0  0 0.1250739918710265 0  0 0.1111768816631347 0  0 0.09727977145524291 0  0 0.08338266124735105 0  0 0.06948555103945919 0  0 0.05558844083156744 0  0 0.04169133062367558 0  0 0.02779422041578372 0  0 0.01389711020789186 0  0.0482962913144533 0.24360338495772 0  0.01492537313432838 0 0  0.02985074626865675 0 0  0.04477611940298513 0 0  0.05970149253731351 0 0  0.0746268656716419 0 0  0.08955223880597028 0 0  0.1044776119402987 0 0  0.1194029850746271 0 0  0.1343283582089554 0 0  0.1492537313432838 0 0  0.1641791044776121 0 0  0.1791044776119405 0 0  0.1940298507462689 0 0  0.2089552238805972 0 0  0.2238805970149256 0 0  0.2388059701492539 0 0  0.2537313432835824 0 0  0.2686567164179108 0 0  0.2835820895522392 0 0  0.2985074626865676 0 0  0.313432835820896 0 0  0.3283582089552244 0 0  0.3432835820895528 0 0  0.3582089552238813 0 0  0.3731343283582096 0 0  0.3880597014925381 0 0  0.4029850746268665 0 0  0.4179104477611949 0 0  0.4328358208955234 0 0  0.4477611940298517 0 0  0.4626865671641802 0 0  0.4776119402985086 0 0  0.4925373134328369 0 0  0.5074626865671652 0 0  0.5223880597014936 0 0  0.5373134328358218 0 0  0.5522388059701502 0 0  0.5671641791044785 0 0  0.5820895522388068 0 0  0.5970149253731351 0 0  0.6119402985074635 0 0  0.6268656716417917 0 0  0.64179104477612 0 0  0.6567164179104483 0 0  0.6716417910447767 0 0  0.6865671641791049 0 0  0.7014925373134333 0 0  0.7164179104477616 0 0  0.7313432835820899 0 0  0.7462686567164182 0 0  0.7611940298507465 0 0  0.7761194029850749 0 0  0.791044776119403 0 0  0.8059701492537314 0 0  0.8208955223880597 0 0  0.835820895522388 0 0  0.8507462686567163 0 0  0.8656716417910447 0 0  0.8805970149253729 0 0  0.8955223880597013 0 0  0.9104477611940296 0 0  0.925373134328358 0 0  0.9402985074626862 0 0  0.9552238805970146 0 0  0.9701492537313429 0 0  0.9850746268656715 0 0  0.09405933214602409 0.3668070849972965 0  0.08037849129853032 0.362790027678799 0  0.06770511416388508 0.3562564476649321 0  0.05649724961189653 0.3474424855604739 0  0.04715997906927976 0.3366667009204335 0  0.04003077582146604 0.3243185586777352 0  0.03536730784878925 0.3108443528658009 0  0.03333812503432922 0.2967310763893746 0  0.03401656733198477 0.2824888198320977 0  0.03737811406945442 0.2686323354537876 0  1 0.01389711020789178 0  1 0.02779422041578355 0  1 0.04169133062367532 0  1 0.05558844083156708 0  1 0.0694855510394589 0  1 0.08338266124735073 0  1 0.09727977145524257 0  1 0.1111768816631344 0  1 0.1250739918710262 0  1 0.1389711020789181 0  1 0.1528682122868099 0  1 0.1667653224947017 0  0.1211941277281809 0.3698661413881401 0  0.1332531754730548 0.3748611625133716 0  0.1436085145323822 0.3828070936432662 0  0.1515544456622768 0.3931624327025936 0  0.1565494667875083 0.4052214804474676 0  0.951253604390909 0.24178847940041 0  0.950139810140941 0.226925928023273 0  0.9534563125677896 0.2123953814842743 0  0.9609084258765983 0.1994879426096
[...]
<PointData  Tensors="$\sigma$"> 
<DataArray  type="Float64"  Name="$\sigma$"  NumberOfComponents="9" format="ascii">-1.1216309489048999e+07 -5.0260401253767401e+07 0.0000000000000000e+00 -5.0260401253767401e+07 -1.4023271640735295e+08 0.0000000000000000e+00 0.0000000000000000e+00 0.0000000000000000e+00 0.0000000000000000e+00  3.5848265489129527e+06 4.1113239337421567e+06 0.0000000000000000e+00 4.1113239337421567e+06 -7.9388953431162417e+07 0.0000000000000000e+00 0.0000000000000000e+00 0.0000000000000000e+00 0.0000000000000000e+00  4.0552374268803388e+07 -2.2710841931452088e+07 0.0000000000000000e+00 -2.2710841931452088e+07 1.0691535020958066e+07 0.0000000000000000e+00 0.0000000000000000e+00 0.0000000000000000e+00 0.0000000000000000e+00  -1.6066585512989159e+06 1.6100487440652286e+06 0.0000000000000000e+00 1.6100487440652286e+06 -1.5031384646554689e+06 0.0000000000000000e+00 0.0000000000000000e+00 0.0000000000000000e+00 0.0000000000000000e+00  -1.8786799444202601e+06 -1.9078798635057127e+06 0.0000000000000000e+00 -1.9078798635057127e+06 -1.8103762353710067e+06 0.0000000000000000e+00 0.0000000000000000e+00 0.0000000000000000e+00 0.0000000000000000e+00  9.4227200134836845e+06 -1.2513439227974649e+05 0.0000000000000000e+00 -1.2513439227974649e+05 1.6553170916034529e+08 0.0000000000000000e+00 0.0000000000000000e+00 0.0000000000000000e+00 0.0000000000000000e+00  -2.4620604605000287e+07 3.5357987451946875e+06 0.0000000000000000e+00 3.5357987451946875e+06 2.6949098417512570e+06 0.0000000000000000e+00 0.0000000000000000e+00 0.0000000000000000e+00 0.0000000000000000e+00  -1.5445060683854224e+07 4.9181711121796615e+07 0.0000000000000000e+00 4.9181711121796615e+07 -1.3683066745171788e+08 0.0000000000000000e+00 0.0000000000000000e+00 0.0000000000000000e+00 0.0000000000000000e+00  -7.9984119975458309e+06 2.7835386249246314e+07 0.0000000000000000e+00 2.7835386249246314e+07 -7.9856960245141283e+07 0.0000000000000000e+00 0.0000000000000000e+00 0.0000000000000000e+00 0.0000000000000000e+00  -3.7531348700006690e+05 -1.2158594908493608e+06 0.0000000000000000e+00 -1.2158594908493608e+06 -1.0748098730607007e+06 0.0000000000000000e+00 0.0000000000000000e+00 0.0000000000000000e+00 0.0000000000000000e+00  -2.3934055274005635e+06 1.5666157844047096e+07 0.0000000000000000e+00 1.5666157844047096e+07 -3.1372309687670288e+06 0.0000000000000000e+00 0.0000000000000000e+00 0.0000000000000000e+00 0.0000000000000000e+00  6.9072290385062136e+06 1.1734809917979441e+06 0.0000000000000000e+00 1.1734809917979441e+06 2.8916294627374969e+07 0.0000000000000000e+00 0.0000000000000000e+00 0.0000000000000000e+00 0.0000000000000000e+00  -1.0586382374237819e+07 2.4559774699715991e+07 0.0000000000000000e+00 2.4559774699715991e+07 -6.1077150762555547e+07 0.0000000000000000e+00 0.0000000000000000e+00 0.0000000000000000e+00 0.0000000000000000e+00  2.8799099805909727e+05 -2.4313410927042700e+05 0.0000000000000000e+00 -2.4313410927042700e+05 2.7633969252187591e+07 0.0000000000000000e+00 0.0000000000000000e+00 0.0000000000000000e+00 0.0000000000000000e+00  -8.2620935786866061e+06 7.3504044317590697e+06 0.0000000000000000e+00 7.3504044317590697e+06 3.2300318186089825e+06 0.0000000000000000e+00 0.0000000000000000e+00 0.0000000000000000e+00 0.0000000000000000e+00  5.9499882724686305e+05 -5.5135835892403673e+05 0.0000000000000000e+00 -5.5135835892403673e+05 1.1278685600270745e+06 0.0000000000000000e+00 0.0000000000000000e+00 0.0000000000000000e+00 0.0000000000000000e+00  5.6923407828438496e+06 1.6812705117521927e+07 0.0000000000000000e+00 1.6812705117521927e+07 3.0631598157109219e+08 0.0000000000000000e+00 0.0000000000000000e+00 0.0000000000000000e+00 0.0000000000000000e+00  -1.0547633169966761e+07 -3.0786873290708236e+07 0.0000000000000000e+00 -3.0786873290708236e+07 -6.6523933921540558e+07 0.0000000000000000e+00 0.0000000000000000e+00 0.0000000000000000e+00 0.0000000000000000e+00  8.8073321294525964e+05 1.0574725492708101e+06 0.0000000000000000e+00 1.0574725492708101e+06 1.0283438299450503e+06 0.0000000000000000e+00 0.0000000000000000e+00 0.0000000000000000e+00 0.0000000000000000e+00  2.2034501083049974e+06 2.6232256472261744e+06 0.0000000000000000e+00 2.6232256472261744e+06 -5.8835355665667273e+07 0.0000000000000000e+00 0.0000000000000000e+00 0.0000000000000000e+00 0.0000000000000000e+00  1.3581610514242682e+03 -3.9113651468157300e+03 0.0000000000000000e+00 -3.9113651468157300e+03 7.6563207757392388e+02 0.0000000000000000e+00 0.0000000000000000e+00 0.0000000000000000e+00 0.0000000000000000e+00  -5.2149377623305740e+06 -8.2856401342919329e+06 0.0000000000000000e+00 -8.2856401342919329e+06 6.5687944050759319e+06 0.0000000000000000e+00 0.0000000000000000e+00 0.0000000000000000e+00 0.0000000000000000e+00  3.5227758830084174e+04 -1.3493856526879368e+04 0.0000000000000000e+00 -1.3493856526879368e+04 1.0381003868920048e+04 0.0000000000000000e+00 0.0000000000000000e+00 0.0000000000000000e+00 0.0000000000000000e+00  1.3297045204173261e+06 -1.4338433677409408e+06 0.0000000000000000e+00 -1.4338433677409408e+06 4.3494561941186612e+05 0.0000000000000000e+00 0.0000000000000000e+00 0.0000000000000000e+00 0.0000000000000000e+00  -1.5050723058839895e+07 2.2964905838668790e+07 0.0000000000000000e+00 2.2964905838668790e+07 -1.4022420157179952e+08 0.0000000000000000e+00 0.0000000000000000e+00 0.0000000000000000e+00 0.0000000000000000e+00  1.6240234479277372e+03 1.1847061502432405e+03 0.0000000000000000e+00 1.1847061502432405e+03 2.2868048978407883e+03 0.0000000000000000e+00 0.0000000000000000e+00 0.0000000000000000e+00 0.0000000000000000e+00  -1.8076106946097713e+07 5.7298372614633292e+07 0.0000000000000000e+00 5.7298372614633292e+07 -1.6458277142126364e+08 0.0000000000000000e+00 0.0000000000000000e+00 0.0000000000000000e+00 0.0000000000000000e+00  2.0143818158397579e+05 -1.2652285144046204e+04 0.0000000000000000e+00 -1.2652285144046204e+04 -1.0432828475868551e+05 0.0000000000000000e+00 0.0000000000000000e+00 0.0000000000000000e+00 0.0000000000000000e+00  -1.6645610370860508e+07 7.4475844909955263e+06 0.0000000000000000e+00 7.4475844909955263e+06 4.5463827233776674e+06 0.0000000000000000e+00 0.0000000000000000e+00 0.0000000000000000e+00 0.0000000000000000e+00  -2.4162915147501007e+07 -7.2433265162505239e+07 0.0000000000000000e+00 -7.2433265162505239e+07 -1.6686519630198526e+08 0.0000000000000000e+00 0.0000000000000000e+00 0.0000000000000000e+00 0.0000000000000000e+00  9.4239801364012286e+06 1.6640192464831544e+07 0.0000000000000000e+00 1.6640192464831544e+07 2.8423375105629730e+08 0.0000000000000000e+00 0.0000000000000000e+00 0.0000000000000000e+00 0.0000000000000000e+00  5.8228379255676949e+06 4.0256253267034045e+06 0.0000000000000000e+00 4.0256253267034045e+06 -9.5135190800766215e+07 0.0000000000000000e+00 0.0000000000000000e+00 0.0000000000000000e+00 0.0000000000000000e+00  -6.2758009222684018e+06 -3.0169565832995069e+06 0.0000000000000000e+00 -3.0169565832995069e+06 -1.4902280458105006e+06 0.0000000000000000e+00 0.0000000000000000e+00 0.0000000000000000e+00 0.0000000000000000e+00  -1.0059275968794286e+07 -1.0843293156849282e+07 0.0000000000000000e+00 -1.0843293156849282e+07 5.8393478264312474e+06 0.0000000000000000e+00 0.0000000000000000e+00 0.0000000000000000e+00 0.0000000000000000e+00  6.8163631672209362e+04 -5.5169110976955584e+04 0.0000000000000000e+00 -5.5169110976955584e+04 6.1435190735354576e+04 0.0000000000000000e+00 0.0000000000000000e+00 0.0000000000000000e+00 0.0000000000000000e+00  -3.7217215301824342e+06 4.6018281723289173e+06 0.0000000000000000e+00 4.6018281723289173e+06 -3.2837190341112423e+06 0.0000000000000000e+00 0.0000000000000000e+00 0.0000000000000000e+00 0.0000000000000000e+00  -3.1333233051804818e+04 9.5623739369725867e+04 0.0000000000000000e+00 9.5623739369725867e+04 -5.5042793659603884e+06 0.0000000000000000e+00 0.0000000000000000e+00 0.0000000000000000e+00 0.0000000000000000e+00  2.1144684812437758e+04 5.6684105774292162e+04 0.0000000000000000e+00 5.6684105774292162e+04 8.7350166563032821e+04 0.0000000000000000e+00 0.0000000000000000e+00 0.0000000000000000e+00 0.0000000000000000e+00  -3.7026649006140599e+05 2.4965361506876125e+04 0.0000000000000000e+00 2.4965361506876125e+04 -5.5233082994389003e+06 0.0000000000000000e+00 0.0000000000000000e+00 0.0000000000000000e+00 0.0000000000000000e+00  -4.1528519471647870e+05 -1.3812356485355778e+06 0.0000000000000000e+00 -1.3812356485355778e+06 -4.7686148668992892e+06 0.0000000000000000e+00 0.0000000000000000e+00 0.0000000000000000e+00 0.0000000000000000e+00  -9.3483524837498681e+05 -3.5740991240283032e+05 0.0000000000000000e+00 -3.5740991240283032e+05 -7.6577988317659870e+06 0.0000000000000000e+00 0.0000000000000000e+00 0.0000000000000000e+00 0.0000000000000000e+00  1.2763626304457290e+05 4.5847238648962579e+04 0.0000000000000000e+00 4.5847238648962579e+04 -2.0598465713424725e+06 0.0000000000000000e+00 0.0000000000000000e+00 0.0000000000000000e+00 0.0000000000000000e+00  -6.9126407456806221e+05 1.7475721048993119e+06 0.0000000000000000e+00 1.7475721048993119e+06 -4.8179723519472070e+06 0.0000000000000000e+00 0.0000000000000000e+00 0.0000000000000000e+00 0.0000000000000000e+00  -7.0639181258447180e+06 2.0203321928144980e+06 0.0000000000000000e+00 2.0203321928144980e+06 -2.1838670629042733e+05 0.0000000000000000e+00 0.0000000000000000e+00 0.0000000000000000e+00 0.0000000000000000e+00  -1.1540444349683080e+07 -2.9151121079757330e+06 0.0000000000000000e+00 -2.9151121079757330e+06 -6.8765031780796673e+05 0.0000000000000000e+00 0.0000000000000000e+00 0.0000000000000000e+00 0.0000000000000000e+00  -3.7315403779186040e+07 4.6526426525034420e+07 0.0000000000000000e+00 4.6526426525034420e+07 -5.5587284915115453e+07 0.0000000000000000e+00 0.0000000000000000e+00 0.0000000000000000e+00 0.0000000000000000e+00  2.6341780822280715e+06 2.2257085864926204e+06 0.0000000000000000e+00 2.2257085864926204e+06 2.1964256137854531e+08 0.0000000000000000e+00 0.0000000000000000e+00 0.0000000000000000e+00 0.0000000000000000e+00  -3.3639663997886144e+07 -4.1900819289051667e+07 0.0000000000000000e+00 -4.1900819289051667e+07 -5.1546690459691159e+07 0.0000000000000000e+00 0.0000000000000000e+00 0.0000000000000000e+00 0.0000000000000000e+00  -4.4961645844087109e+05 -1.6726914613477525e+06 0.0000000000000000e+00 -1.6726914613477525e+06 -5.0331703119396660e+06 0.0000000000000000e+00 0.0000000000000000e+00 0.0000000000000000e+00 0.0000000000000000e+00  -3.0738617708511045e+05 -6.1774735997652053e+05 0.0000000000000000e+00 -6.1774735997652053e+05 -1.3197504358502245e+07 0.0000000000000000e+00 0.0000000000000000e+00 0.0000000000000000e+00 0.0000000000000000e+00  2.2020519484162083e+05 5.8385246902904815e+04 0.0000000000000000e+00 5.8385246902904815e+04 -2.8905922406263789e+06 0.0000000000000000e+00 0.0000000000000000e+00 0.0000000000000000e+00 0.0000000000000000e+00  -4.4602603763892729e+05 1.3868975262994547e+06 0.0000000000000000e+00 1.3868975262994547e+06 -4.3954976897894805e+06 0.0000000000000000e+00 0.0000000000000000e+00 0.0000000000000000e+00 0.0000000000000000e+00  -1.1365643747946350e+07 3.0034492267869082e+06 0.0000000000000000e+00 3.0034492267869082e+06 -6.2893198793293815e+05 0.0000000000000000e+00 0.0000000000000000e+00 0.0000000000000000e+00 0.0000000000000000e+00  -7.1994846153669963e+06 -1.9899761319790145e+06 0.0000000000000000e+00 -1.9899761319790145e+06 -2.4872393128835404e+05 0.0000000000000000e+00 0.0000000000000000e+00 0.0000000000000000e+00 0.0000000000000000e+00  -3.2580966307643771e+07 4.2150322852534547e+07 0.0000000000000000e+00 4.2150322852534547e+07 -5.1719136322424650e+07 0.0000000000000000e+00 0.0000000000000000e+00 0.0000000000000000e+00 0.0000000000000000e+00  2.0520036224402957e+07 -8.4772258077698499e+06 0.0000000000000000e+00 -8.4772258077698499e+06 1.8090841110657093e+08 0.0000000000000000e+00 0.0000000000000000e+00 0.0000000000000000e+00 0.0000000000000000e+00  -3.4703806864172600e+07 -4.4957986686872795e+07 0.0000000000000000e+00 -4.4957986686872795e+07 -5.5848334045296460e+07 0.0000000000000000e+00 0.0000000000000000e+00 0.0000000000000000e+00 0.0000000000000000e+00  -1.0072864873016553e+07 -2.8934654560859520e+07 0.0000000000000000e+00 -2.8934654560859520e+07 -5.6260354401363492e+07 0.0000000000000000e+00 0.0000000000000000e+00 0.0000000000000000e+00 0.0000000000000000e+00  -2.1762990626971084e+06 1.3495960031395385e+07 0.0000000000000000e+00 1.3495960031395385e+07 3.2034012796509478e+07 0.0000000000000000e+00 0.0000000000000000e+00 0.0000000000000000e+00 0.0000000000000000e+00  3.0825205350365969e+06 2.1641738188146185e+06 0.0000000000000000e+00 2.1641738188146185e+06 -6.3793035914789163e+07 0.0000000000000000e+00 0.0000000000000000e+00 0.0000000000000000e+00 0.0000000000000000e+00  -1.0116003987425372e+07 2.7120591990074955e+07 0.0000000000000000e+00 2.7120591990074955e+07 -5.2535849390144520e+07 0.0000000000000000e+00 0.0000000000000000e+00 0.0000000000000000e+00 0.0000000000000000e+00  -1.7754831573399571e+06 -1.1881620070840333e+07 0.0000000000000000e+00 -1.1881620070840333e+07 7.0047843308047401e+06 0.0000000000000000e+00 0.0000000000000000e+00 0.0000000000000000e+00 0.0000000000000000e+00  -7.5002611314957449e+06 8.4878932575827111e+06 0.0000000000000000e+00 8.4878932575827111e+06 6.1151791649630591e+06 0.0000000000000000e+00 0.0000000000000000e+00 0.0000000000000000e+00 0.0000000000000000e+00  -4.3862685175654322e+07 5.0503915615259022e+07 0.0000000000000000e+00 5.0503915615259022e+07 -5.8056251618201643e+07 0.0000000000000000e+00 0.0000000000000000e+00 0.0000000000000000e+00 0.0000000000000000e+00  3.3908666347173013e+07 4.6991958252674006e+06 0.0000000000000000e+00 4.6991958252674006e+06 3.0169692078445143e+08 0.0000000000000000e+00 0.0000000000000000e+00 0.0000000000000000e+00 0.0000000000000000e+00  -4.4711370948192619e+07 -5.1640330449058272e+07 0.0000000000000000e+00 -5.1640330449058272e+07 -5.5833440718197905e+07 0.0000000000000000e+00 0.0000000000000000e+00 0.0000000000000000e+00 0.0000000000000000e+00  -2.3156613634667702e+07 -6.4671884933457345e+07 0.0000000000000000e+00 -6.4671884933457345e+07 -1.4273695453676289e+08 0.0000000000000000e+00 0.0000000000000000e+00 0.0000000000000000e+00 0.0000000000000000e+00  -1.0067402126918873e+07 2.7073595275298577e+07 0.0000000000000000e+00 2.7073595275298577e+07 -1.1785738954079027e+08 0.0000000000000000e+00 0.0000000000000000e+00 0.0000000000000000e+00 0.0000000000000000e+00  4.6029244177935831e+06 3.4451097994155921e+06 0.0000000000000000e+00 3.4451097994155921e+06 -8.9936428675867781e+07 0.0000000000000000e+00 0.0000000000000000e+00 0.0000000000000000e+00 0.0000000000000000e+00  -1.7043030432949200e+07 5.7013323625647046e+07 0.0000000000000000e+00 5.7013323625647046e+07 -1.6015436476066232e+08 0.0000000000000000e+00 0.0000000000000000e+00 0.0000000000000000e+00 0.0000000000000000e+00  -2.3490030598532069e+07 -5.5444173868777985e+06 0.0000000000000000e+00 -5.5444173868777985e+06 6.5725105399971735e+06 0.0000000000000000e+00 0.0000000000000000e+00 0.0000000000000000e+00 0.0000000000000000e+00  1.4288264632925356e+07 1.5346882004095895e+07 0.0000000000000000e+00 1.5346882004095895e+07 6.4940856824124958e+06 0.0000000000000000e+00 0.0000000000000000e+00 0.0000000000000000e+00 0.0000000000000000e+00  -4.3315465432781532e+07 5.2076226960294805e+07 0.0000000000000000e+00 5.2076226960294805e+07 -5.8201821579857931e+07 0.0000000000000000e+00 0.0000000000000000e+00 0.0000000000000000e+00 0.0000000000000000e+00  3.3703808705593415e+07 2.8222416249652649e+06 0.0000000000000000e+00 2.8222416249652649e+06 2.9911907915606755e+08 0.0000000000000000e+00 0.0000000000000000e+00 0.0000000000000000e+00 0.0000000000000000e+00  -5.0560916342722967e+07 -5.7425690043313101e+07 0.0000000000000000e+00 -5.7425690043313101e+07 -6.5142687465826392e+07 0.0000000000000000e+00 0.0000000000000000e+00 0.0000000000000000e+00 0.0000000000000000e+00  -1.9990363681885172e+07 -5.8226172055463985e+07 0.0000000000000000e+00 -5.8226172055463985e+07 -1.3070941299803683e+08 0.0000000000000000e+00 0.0000000000000000e+00 0.0000000000000000e+00 0.0000000000000000e+00  -3.0871723975757929e+06 3.0807353810848650e+07 0.0000000000000000e+00 3.0807353810848650e+07 -6.6691107603889279e+07 0.0000000000000000e+00 0.0000000000000000e+00 0.0000000000000000e+00 0.0000000000000000e+00  4.5236457593176998e+06 3.2629979233789006e+06 0.0000000000000000e+00 3.2629979233789006e+06 -8.4921271445910469e+07 0.0000000000000000e+00 0.0000000000000000e+00 0.0000000000000000e+00 0.0000000000000000e+00  -1.4265008034704506e+07 4.6791304129430391e+07 0.0000000000000000e+00 4.6791304129430391e+07 -1.2947698171811193e+08 0.0000000000000000e+00 0.0000000000000000e+00 0.0000000000000000e+00 0.0000000000000000e+00  -2.2393485447798718e+07 -5.6188804568797266e+06 0.0000000000000000e+00 -5.6188804568797266e+06 3.6890020652476861e+06 0.0000000000000000e+00 0.0000000000000000e+00 0.0000000000000000e+00 0.0000000000000000e+00  3.3508225078698274e+07 1.9795135033556715e+07 0.0000000000000000e+00 1.9795135033556715e+07 7.0467415770208323e+06 0.0000000000000000e+00 0.0000000000000000e+00 0.0000000000000000e+00 0.0000000000000000e+00  -2.1674010382784414e+06 1.8555490424199172e+06 0.0000000000000000e+00 1.8555490424199172e+06 -1.7736863473346794e+06 0.0000000000000000e+00 0.0000000000000000e+00 0.0000000000000000e+00 0.0000000000000000e+00  4.9619882286570007e+06 8.1435011509521445e+06 0.0000000000000000e+00 8.1435011509521445e+06 8.3643602734204680e+07 0.0000000000000000e+00 0.0000000000000000e+00 0.0000000000000000e+00 0.0000000000000000e+00  -1.4282156974871042e+06 -1.6375670283911023e+06 0.0000000000000000e+00 -1.6375670283911023e+06 -1.6137069603776294e+06 0.0000000000000000e+00 0.0000000000000000e+00 0.0000000000000000e+00 0.0000000000000000e+00  -1.3619393273145190e+07 -5.9877425844300508e+07 0.0000000000000000e+00 -5.9877425844300508e+07 -1.6893245597506246e+08 0.0000000000000000e+00 0.0000000000000000e+00 0.0000000000000000e+00 0.0000000000000000e+00  -5.9227207202619575e+06 3.0440789289961345e+07 0.0000000000000000e+00 3.0440789289961345e+07 -1.2320522628069429e+08 0.0000000000000000e+00 0.0000000000000000e+00 0.0000000000000000e+00 0.0000000000000000e+00  4.1660579332999266e+06 4.5761963163155904e+06 0.0000000000000000e+00 4.5761963163155904e+06 -9.4397334445874736e+07 0.0000000000000000e+00 0.0000000000000000e+00 0.0000000000000000e+00 0.0000000000000000e+00  -1.7150947553482242e+07 5.6315984249178670e+07 0.0000000000000000e+00 5.6315984249178670e+07 -1.5722781501978153e+08 0.0000000000000000e+00 0.0000000000000000e+00 0.0000000000000000e+00 0.0000000000000000e+00  5.2834569070589794e+06 -1.5490817508182550e+07 0.0000000000000000e+00 -1.5490817508182550e+07 7.4518218714898182e+06 0.0000000000000000e+00 0.0000000000000000e+00 0.0000000000000000e+00 0.0000000000000000e+00  8.3474086953997693e+05 1.2442731757800177e+07 0.0000000000000000e+00 1.2442731757800177e+07 6.0159830824873447e+06 0.0000000000000000e+00 0.0000000000000000e+00 0.0000000000000000e+00 0.0000000000000000e+00  -2.9958409788454145e+07 2.5919189139494151e+07 0.0000000000000000e+00 2.5919189139494151e+07 -2.4778103228176568e+07 0.0000000000000000e+00 0.0000000000000000e+00 0.0000000000000000e+00 0.0000000000000000e+00  3.0368499358194970e+07 1.3370013534566597e+06 0.0000000000000000e+00 1.3370013534566597e+06 2.7129521698698419e+08 0.0000000000000000e+00 0.0000000000000000e+00 0.0000000000000000e+00 0.0000000000000000e+00  -2.8163441707372077e+07 -2.5763331278617907e+07 0.0000000000000000e+00 -2.5763331278617907e+07 -2.6023023288340058e+07 0.0000000000000000e+00 0.0000000000000000e+00 0.0000000000000000e+00 0.0000000000000000e+00  -1.3621632809806466e+07 -6.0196854888698578e+07 0.0000000000000000e+00 -6.0196854888698578e+07 -1.7171718317745990e+08 0.0000000000000000e+00 0.0000000000000000e+00 0.0000000000000000e+00 0.0000000000000000e+00  -5.6146638877717825e+06 2.5173919398426224e+07 0.0000000000000000e+00 2.5173919398426224e+07 -1.1107587424439566e+08 0.000000000000000