<?xml version="1.0"?>
<VTKFile type="UnstructuredGrid"  version="0.1"  >
<UnstructuredGrid>
<Piece  NumberOfPoints="2067" NumberOfCells="3400">
<Points>
<DataArray  type="Float64"  NumberOfComponents="3"  format="ascii">0.6917468245269452 0.8511751345948129 0  0.6791732313981376 0.8180199831291364 0  0.7025735931288073 0.8045097779848006 0  0.7399999999999995 0.7396853397391495 0  0.7399999999999998 0.7126649294504763 0  0.8 0.6636751345948129 0  0.7599999999999998 0.7126649294504765 0  0.7599999999999995 0.7396853397391491 0  0.8 0.7886751345948129 0  0.7974264068711927 0.8045097779848006 0  0.8208267686018624 0.8180199831291364 0  0.9082531754730548 0.8511751345948129 0  0.810826768601862 0.8353404912048252 0  0.7874264068711924 0.8218302860604894 0  0.7125735931288076 0.8218302860604894 0  0.689173231398138 0.8353404912048252 0  1.715874429176435e-15 0.1806624327025936 0  0.04999999999999998 0.2306624327025936 0  0 0 0  0.009999999999999776 0.2796522275582572 0  1 0 0  0.009999999999999429 0.3066726378469298 0  0.9999999999999982 0.1806624327025936 0  0.05 0.3556624327025936 0  0.9899999999999998 0.279652227558257 0  0.0474264068711928 0.3714970760925813 0  0.9899999999999994 0.3066726378469302 0  0.07082676860186239 0.3850072812369171 0  0.9525735931288073 0.3714970760925813 0  0.1582531754730548 0.4181624327025936 0  0.9291732313981377 0.3850072812369171 0  0.06082676860186204 0.4023277893126058 0  0.9417468245269452 0.4181624327025936 0  0.03742640687119245 0.3888175841682701 0  0.939173231398138 0.4023277893126059 0  1.050691566769707e-15 0.4056624327025935 0  0.9625735931288075 0.38881758416827 0  1.715874429176435e-15 0.4693375672974065 0  1.000000000000001 0.4056624327025936 0  0.04999999999999998 0.5193375672974064 0  0.9999999999999982 0.4693375672974064 0  0.009999999999999776 0.5683273621530701 0  0.9899999999999998 0.5683273621530699 0  0.009999999999999429 0.5953477724417426 0  0.9899999999999994 0.5953477724417431 0  0.05 0.6443375672974064 0  0.9525735931288072 0.6601722106873942 0  0.0474264068711928 0.6601722106873942 0  0.9291732313981376 0.6736824158317299 0  0.07082676860186236 0.6736824158317301 0  0.9417468245269452 0.7068375672974064 0  0.1582531754730548 0.7068375672974064 0  0.939173231398138 0.6910029239074187 0  0.06082676860186202 0.6910029239074187 0  0.9625735931288075 0.6774927187630828 0  0.03742640687119241 0.6774927187630829 0  1.000000000000001 0.6943375672974065 0  1.050691566769707e-15 0.6943375672974065 0  1 1 0  0 1 0  0.1917468245269451 0.2738248654051871 0  0.1791732313981376 0.2406697139395106 0  0.189173231398138 0.2579902220151994 0  0.2025735931288072 0.2271595087951748 0  0.2125735931288075 0.2444800168708636 0  0.2399999999999995 0.1623350705495237 0  0.2874264068711925 0.2444800168708635 0  0.2399999999999997 0.1353146602608505 0  0.310826768601862 0.2579902220151994 0  0.3 0.08632486540518708 0  0.4082531754730548 0.2738248654051871 0  0.2599999999999998 0.1353146602608507 0  0.3208267686018624 0.2406697139395106 0  0.2599999999999995 0.1623350705495233 0  0.2974264068711928 0.2271595087951749 0  0.3 0.2113248654051871 0  0.6917468245269452 0.2738248654051871 0  0.6791732313981377 0.2406697139395106 0  0.689173231398138 0.2579902220151994 0  0.7025735931288073 0.2271595087951748 0  0.7125735931288075 0.2444800168708635 0  0.7399999999999995 0.1623350705495237 0  0.7874264068711925 0.2444800168708636 0  0.7399999999999998 0.1353146602608505 0  0.810826768601862 0.2579902220151993 0  0.8 0.08632486540518708 0  0.9082531754730548 0.2738248654051871 0  0.7599999999999998 0.1353146602608507 0  0.8208267686018623 0.2406697139395106 0  0.7599999999999995 0.1623350705495233 0  0.7974264068711927 0.2271595087951748 0  0.8 0.2113248654051871 0  0.4417468245269451 0.4181624327025936 0  0.4291732313981376 0.3850072812369171 0  0.4391732313981379 0.4023277893126059 0  0.4525735931288072 0.3714970760925813 0  0.4625735931288075 0.3888175841682701 0  0.4899999999999995 0.3066726378469302 0  0.5374264068711925 0.3888175841682701 0  0.4899999999999998 0.279652227558257 0  0.560826768601862 0.4023277893126058 0  0.55 0.2306624327025936 0  0.6582531754730548 0.4181624327025936 0  0.5099999999999998 0.2796522275582572 0  0.5708267686018623 0.3850072812369171 0  0.5099999999999995 0.3066726378469298 0  0.5474264068711927 0.3714970760925813 0  0.55 0.3556624327025936 0  0.1917468245269451 0.5625 0  0.1791732313981376 0.5293448485343235 0  0.189173231398138 0.5466653566100124 0  0.2025735931288072 0.5158346433899876 0  0.2125735931288076 0.5331551514656765 0  0.2399999999999995 0.4510102051443367 0  0.2874264068711924 0.5331551514656765 0  0.2399999999999997 0.4239897948556635 0  0.310826768601862 0.5466653566100124 0  0.3 0.375 0  0.4082531754730548 0.5625 0  0.2599999999999998 0.4239897948556636 0  0.3208267686018624 0.5293448485343235 0  0.2599999999999995 0.4510102051443362 0  0.2974264068711928 0.5158346433899879 0  0.3 0.5 0  0.1917468245269451 0.8511751345948129 0  0.1791732313981376 0.8180199831291364 0  0.189173231398138 0.8353404912048252 0  0.2025735931288072 0.8045097779848005 0  0.2125735931288076 0.8218302860604894 0  0.2399999999999995 0.7396853397391495 0  0.2874264068711924 0.8218302860604894 0  0.2399999999999997 0.7126649294504763 0  0.310826768601862 0.8353404912048252 0  0.3 0.6636751345948129 0  0.4082531754730548 0.8511751345948129 0  0.2599999999999998 0.7126649294504765 0  0.3208267686018624 0.8180199831291364 0  0.2599999999999995 0.7396853397391491 0  0.2974264068711928 0.8045097779848005 0  0.3 0.7886751345948129 0  0.4417468245269451 0.7068375672974064 0  0.4291732313981376 0.6736824158317299 0  0.439173231398138 0.6910029239074187 0  0.4525735931288072 0.6601722106873942 0  0.4625735931288075 0.677492718763083 0  0.4899999999999995 0.5953477724417431 0  0.5374264068711924 0.6774927187630829 0  0.4899999999999998 0.5683273621530699 0  0.560826768601862 0.6910029239074187 0  0.55 0.5193375672974064 0  0.6582531754730548 0.7068375672974064 0  0.5099999999999998 0.5683273621530701 0  0.5708267686018623 0.6736824158317301 0  0.5099999999999995 0.5953477724417426 0  0.5474264068711928 0.6601722106873942 0  0.55 0.6443375672974064 0  0.6917468245269452 0.5625 0  0.6791732313981376 0.5293448485343235 0  0.689173231398138 0.5466653566100124 0  0.7025735931288071 0.5158346433899876 0  0.7125735931288076 0.5331551514656765 0  0.7399999999999995 0.4510102051443367 0  0.7874264068711924 0.5331551514656765 0  0.7399999999999998 0.4239897948556635 0  0.810826768601862 0.5466653566100124 0  0.8 0.375 0  0.9082531754730548 0.5625 0  0.7599999999999998 0.4239897948556637 0  0.8208267686018624 0.5293448485343235 0  0.7599999999999995 0.4510102051443362 0  0.7974264068711927 0.5158346433899877 0  0.8 0.5 0  0.6864785075125303 0.8735151555723573 0  0.6717837630358602 0.8911474040451663 0  0.6507592539908921 0.9003561890279722 0  0.6278355315264789 0.8992009185764948 0  0.6078433731263404 0.8879250459297648 0  0.5949957799206499 0.868904765956468 0  0.5920001596646002 0.8461482732406947 0  0.5994877874447382 0.8244511044929617 0  0.6158807753877955 0.8083855622444014 0  0.6377245852018719 0.8013371812779697 0  0.6604160122908417 0.8047912858084478 0  0.6908734122634724 0.8112648805569685 0  0.7002531923497437 0.7836496864945529 0  0.7066987298107779 0.7636751345948133 0  0.7207744304546457 0.7481058594626434 0  0.74 0.7261751345948129 0  0.7196428122709678 0.7034047350607664 0  0.7053590813552231 0.6861959778860933 0  0.7000065035461027 0.6644815540353997 0  0.7046559504425709 0.6426057926560286 0  0.7183772233983163 0.6249453011327386 0  0.7384251551249886 0.615033352492186 0  0.760788825750019 0.6148529957750548 0  0.7809940135852831 0.6244403143215495 0  0.7949983370762974 0.6418772067032007 0  0.794880493731128 0.6857146736655415 0  0.780570348701993 0.7032409503988445 0  0.76 0.7261751345948128 0  0.7805703487019928 0.7491093187907811 0  0.794880493731128 0.7666355955240841 0  0.8091265877365276 0.8112648805569685 0  0.8405219503425138 0.8044246944324992 0  0.8642792285109612 0.8015395960686285 0  0.8866559811748947 0.8100256433675386 0  0.9025258548876328 0.8279387437938731 0  0.9022555683570265 0.8749193848563942 0  0.8857015986536707 0.8929672877446307 0  0.8625626346226422 0.9009890740278474 0  0.8383898128771416 0.8970602828062252 0  0.8189822969257812 0.8821234479272917 0  0.8089960329995333 0.8597619800774801 0  0.7991265877365272 0.8285853886326572 0  0.770521238104902 0.8342698578272432 0  0.75 0.8386751345948129 0  0.729478761895098 0.8342698578272432 0  0.7008734122634728 0.8285853886326572 0  0.01913417161825448 0.1844684560770292 0  0.03535533905932735 0.1953070936432662 0  0.04619397662556431 0.211528261084339 0  0 0.1580796286147694 0  0 0.1354968245269452 0  0 0.112914020439121 0  0 0.09033121635129682 0  0 0.06774841226347261 0  0 0.04516560817564841 0  0 0.0225828040878242 0  0.04488049373112805 0.2527019717733222 0  0.03057034870199298 0.2702282485066251 0  0.025 0 0  0.05 0 0  0.075 0 0  0.1 0 0  0.125 0 0  0.15 0 0  0.175 0 0  0.2 0 0  0.225 0 0  0.25 0 0  0.275 0 0  0.3 0 0  0.325 0 0  0.35 0 0  0.375 0 0  0.4 0 0  0.425 0 0  0.45 0 0  0.475 0 0  0.5 0 0  0.525 0 0  0.55 0 0  0.575 0 0  0.6 0 0  0.625 0 0  0.65 0 0  0.675 0 0  0.7 0 0  0.725 0 0  0.75 0 0  0.775 0 0  0.8 0 0  0.825 0 0  0.85 0 0  0.875 0 0  0.9 0 0  0.925 0 0  0.95 0 0  0.975 0 0  0.009999999999999992 0.2931624327025935 0  1 0.02258280408782414 0  1 0.04516560817564828 0  1 0.06774841226347247 0  1 0.09033121635129671 0  1 0.1129140204391209 0  1 0.1354968245269451 0  1 0.1580796286147693 0  0.03057034870199281 0.3160966168985618 0  0.04488049373112799 0.3336228936318648 0  0.9681192987757422 0.2691802323470386 0  0.9537423935195095 0.2496422599593439 0  0.9502531923497438 0.225636984602333 0  0.9584729524114853 0.2028145545324126 0  0.9764669796722674 0.1865467104002837 0  0.99 0.2931624327025936 0  0.05912658773652756 0.3782521786647493 0  0.9502531923497437 0.3506369846023336 
[...]
<PointData  Tensors="$\sigma$"> 
<DataArray  type="Float64"  Name="$\sigma$"  NumberOfComponents="9" format="ascii">-2.4961233867215095e+05 1.0524928179114121e+05 0.0000000000000000e+00 1.0524928179114129e+05 -2.7851820182690833e+05 0.0000000000000000e+00 0.0000000000000000e+00 0.0000000000000000e+00 0.0000000000000000e+00  -1.0948769265059745e+07 -1.7312475899660934e+06 0.0000000000000000e+00 -1.7312475899660934e+06 -2.7591194379184297e+06 0.0000000000000000e+00 0.0000000000000000e+00 0.0000000000000000e+00 0.0000000000000000e+00  2.9104898167206841e+06 -3.4545875959773054e+06 0.0000000000000000e+00 -3.4545875959773054e+06 -1.0818676651221139e+07 0.0000000000000000e+00 0.0000000000000000e+00 0.0000000000000000e+00 0.0000000000000000e+00  -1.0909979172492104e+07 7.5681063886705609e+06 0.0000000000000000e+00 7.5681063886705600e+06 6.9599469557039929e+05 0.0000000000000000e+00 0.0000000000000000e+00 0.0000000000000000e+00 0.0000000000000000e+00  -1.6710475792601122e+07 -8.4996957057328150e+06 0.0000000000000000e+00 -8.4996957057328131e+06 8.1257522042757943e+06 0.0000000000000000e+00 0.0000000000000000e+00 0.0000000000000000e+00 0.0000000000000000e+00  -5.0212395598534252e+06 4.5236635064238079e+07 0.0000000000000000e+00 4.5236635064238079e+07 -7.5785472711089894e+07 0.0000000000000000e+00 0.0000000000000000e+00 0.0000000000000000e+00 0.0000000000000000e+00  -1.5833678019075584e+07 8.9948222520684060e+06 0.0000000000000000e+00 8.9948222520684060e+06 9.9750055433860067e+06 0.0000000000000000e+00 0.0000000000000000e+00 0.0000000000000000e+00 0.0000000000000000e+00  -1.5610672717712892e+07 -8.9212499950713105e+06 0.0000000000000000e+00 -8.9212499950713105e+06 4.7614149384512268e+06 0.0000000000000000e+00 0.0000000000000000e+00 0.0000000000000000e+00 0.0000000000000000e+00  -5.7801468948344225e+06 -2.4766810033488635e+07 0.0000000000000000e+00 -2.4766810033488635e+07 -3.1171933014742259e+07 0.0000000000000000e+00 0.0000000000000000e+00 0.0000000000000000e+00 0.0000000000000000e+00  1.6964024250785674e+06 2.6978269750056341e+06 0.0000000000000000e+00 2.6978269750056341e+06 -5.3011971394055709e+06 0.0000000000000000e+00 0.0000000000000000e+00 0.0000000000000000e+00 0.0000000000000000e+00  -1.1478492019475793e+07 5.2759699235155499e+06 0.0000000000000000e+00 5.2759699235155499e+06 -1.9209604876288990e+06 0.0000000000000000e+00 0.0000000000000000e+00 0.0000000000000000e+00 0.0000000000000000e+00  1.9524443518331122e+07 1.0530155667834326e+06 0.0000000000000000e+00 1.0530155667834347e+06 1.5928331449707940e+08 0.0000000000000000e+00 0.0000000000000000e+00 0.0000000000000000e+00 0.0000000000000000e+00  2.6897908527182532e+05 1.1446761204204908e+05 0.0000000000000000e+00 1.1446761204204903e+05 -4.4736824776600763e+04 0.0000000000000000e+00 0.0000000000000000e+00 0.0000000000000000e+00 0.0000000000000000e+00  9.8929924142485732e+04 2.2678826455248109e+04 0.0000000000000000e+00 2.2678826455248112e+04 1.3136227167854516e+05 0.0000000000000000e+00 0.0000000000000000e+00 0.0000000000000000e+00 0.0000000000000000e+00  9.3495659079734643e+04 -5.0655850987050682e+04 0.0000000000000000e+00 -5.0655850987050690e+04 9.3515025903278351e+04 0.0000000000000000e+00 0.0000000000000000e+00 0.0000000000000000e+00 0.0000000000000000e+00  9.3429707934301914e+04 2.1225669350528915e+04 0.0000000000000000e+00 2.1225669350528857e+04 1.3740207301809374e+05 0.0000000000000000e+00 0.0000000000000000e+00 0.0000000000000000e+00 0.0000000000000000e+00  3.9438980557604349e+05 -9.0465071810537577e+05 0.0000000000000000e+00 -9.0465071810537577e+05 -9.2815892873222509e+05 0.0000000000000000e+00 0.0000000000000000e+00 0.0000000000000000e+00 0.0000000000000000e+00  -3.7610788005564935e+06 2.4158601518573016e+07 0.0000000000000000e+00 2.4158601518573016e+07 -1.1856008979061471e+07 0.0000000000000000e+00 0.0000000000000000e+00 0.0000000000000000e+00 0.0000000000000000e+00  -2.2034215229051977e+04 1.7692785446858994e+05 0.0000000000000000e+00 1.7692785446858988e+05 3.3175130991458528e+07 0.0000000000000000e+00 0.0000000000000000e+00 0.0000000000000000e+00 0.0000000000000000e+00  -1.1646319972361907e+07 6.2582307534106085e+06 0.0000000000000000e+00 6.2582307534106085e+06 3.9730796552351294e+06 0.0000000000000000e+00 0.0000000000000000e+00 0.0000000000000000e+00 0.0000000000000000e+00  -7.6071379437890762e+04 -4.7677566848221642e+05 0.0000000000000000e+00 -4.7677566848221631e+05 3.2632045180855166e+07 0.0000000000000000e+00 0.0000000000000000e+00 0.0000000000000000e+00 0.0000000000000000e+00  -1.2558841441022744e+07 -6.5003780606735945e+06 0.0000000000000000e+00 -6.5003780606735945e+06 3.1409619861385832e+06 0.0000000000000000e+00 0.0000000000000000e+00 0.0000000000000000e+00 0.0000000000000000e+00  3.8623232008815366e+06 -2.5235522019348303e+06 0.0000000000000000e+00 -2.5235522019348303e+06 7.4267483976456115e+05 0.0000000000000000e+00 0.0000000000000000e+00 0.0000000000000000e+00 0.0000000000000000e+00  -4.0090054378830590e+06 -1.8946980789635021e+07 0.0000000000000000e+00 -1.8946980789635021e+07 -2.4730456589349378e+07 0.0000000000000000e+00 0.0000000000000000e+00 0.0000000000000000e+00 0.0000000000000000e+00  -1.1128289458277322e+07 -7.6410885187927289e+06 0.0000000000000000e+00 -7.6410885187927289e+06 -4.5902289500994347e+06 0.0000000000000000e+00 0.0000000000000000e+00 0.0000000000000000e+00 0.0000000000000000e+00  5.2767512223465578e+05 1.7030295400760297e+06 0.0000000000000000e+00 1.7030295400760297e+06 -5.1278681386716655e+06 0.0000000000000000e+00 0.0000000000000000e+00 0.0000000000000000e+00 0.0000000000000000e+00  -6.5853346169065023e+06 3.7264957363114487e+06 0.0000000000000000e+00 3.7264957363114487e+06 -1.7358933238092784e+06 0.0000000000000000e+00 0.0000000000000000e+00 0.0000000000000000e+00 0.0000000000000000e+00  -1.0189417918720324e+07 4.5840242968003787e+06 0.0000000000000000e+00 4.5840242968003787e+06 -1.8562112742766782e+06 0.0000000000000000e+00 0.0000000000000000e+00 0.0000000000000000e+00 0.0000000000000000e+00  2.7527729014561279e+06 -2.8805371907288670e+06 0.0000000000000000e+00 -2.8805371907288670e+06 -1.0483519228674280e+07 0.0000000000000000e+00 0.0000000000000000e+00 0.0000000000000000e+00 0.0000000000000000e+00  1.7387208256679486e+07 -1.3216565903390542e+07 0.0000000000000000e+00 -1.3216565903390542e+07 2.8775183875411499e+08 0.0000000000000000e+00 0.0000000000000000e+00 0.0000000000000000e+00 0.0000000000000000e+00  -8.5587436782266460e+06 -4.1284065377784492e+06 0.0000000000000000e+00 -4.1284065377784492e+06 -2.3134383181402646e+06 0.0000000000000000e+00 0.0000000000000000e+00 0.0000000000000000e+00 0.0000000000000000e+00  -5.6437378281016112e+05 -3.5429701984723174e+05 0.0000000000000000e+00 -3.5429701984723174e+05 1.0899669226441810e+05 0.0000000000000000e+00 0.0000000000000000e+00 0.0000000000000000e+00 0.0000000000000000e+00  -2.0121640324837167e+05 -8.3370816259388556e+05 0.0000000000000000e+00 -8.3370816259388591e+05 -8.3196113098378963e+04 0.0000000000000000e+00 0.0000000000000000e+00 0.0000000000000000e+00 0.0000000000000000e+00  -1.0000411938959114e+05 -7.2777850280548868e+04 0.0000000000000000e+00 -7.2777850280548839e+04 -3.9102221515360776e+04 0.0000000000000000e+00 0.0000000000000000e+00 0.0000000000000000e+00 0.0000000000000000e+00  -1.4315812323856544e+04 1.7026509822590108e+05 0.0000000000000000e+00 1.7026509822590114e+05 1.3571080007150292e+05 0.0000000000000000e+00 0.0000000000000000e+00 0.0000000000000000e+00 0.0000000000000000e+00  4.3925701719797034e+04 -3.6837095665088113e+04 0.0000000000000000e+00 -3.6837095665088142e+04 3.8038574600650667e+04 0.0000000000000000e+00 0.0000000000000000e+00 0.0000000000000000e+00 0.0000000000000000e+00  4.5997207817179020e+04 1.9742585649018234e+04 0.0000000000000000e+00 1.9742585649018263e+04 -8.3653252756765687e+03 0.0000000000000000e+00 0.0000000000000000e+00 0.0000000000000000e+00 0.0000000000000000e+00  1.9182573333205975e+05 -2.4272975184474658e+05 0.0000000000000000e+00 -2.4272975184474658e+05 4.6483998265752965e+05 0.0000000000000000e+00 0.0000000000000000e+00 0.0000000000000000e+00 0.0000000000000000e+00  -7.8434537452472417e+04 8.9071195819049753e+04 0.0000000000000000e+00 8.9071195819049753e+04 8.1255582897049782e+04 0.0000000000000000e+00 0.0000000000000000e+00 0.0000000000000000e+00 0.0000000000000000e+00  -1.3679836115314957e+07 4.1269449864887387e+07 0.0000000000000000e+00 4.1269449864887379e+07 -1.3659155822238797e+08 0.0000000000000000e+00 0.0000000000000000e+00 0.0000000000000000e+00 0.0000000000000000e+00  4.4021107092353853e+05 -9.7511449482162797e+05 0.0000000000000000e+00 -9.7511449482162832e+05 -2.7914836643723195e+05 0.0000000000000000e+00 0.0000000000000000e+00 0.0000000000000000e+00 0.0000000000000000e+00  -1.7608899856522698e+07 9.9132319454814512e+06 0.0000000000000000e+00 9.9132319454814512e+06 1.2763705094004018e+07 0.0000000000000000e+00 0.0000000000000000e+00 0.0000000000000000e+00 0.0000000000000000e+00  -4.8724517307928540e+06 -5.7989924565190431e+06 0.0000000000000000e+00 -5.7989924565190459e+06 -3.5579398132309108e+06 0.0000000000000000e+00 0.0000000000000000e+00 0.0000000000000000e+00 0.0000000000000000e+00  -1.6441047246725665e+07 -9.8397054589061327e+06 0.0000000000000000e+00 -9.8397054589061309e+06 4.7626667513282336e+06 0.0000000000000000e+00 0.0000000000000000e+00 0.0000000000000000e+00 0.0000000000000000e+00  -9.0425371506075989e+06 5.8445710354406144e+06 0.0000000000000000e+00 5.8445710354406154e+06 8.9762851524014620e+05 0.0000000000000000e+00 0.0000000000000000e+00 0.0000000000000000e+00 0.0000000000000000e+00  -6.4196750247559408e+06 -2.4663676310112342e+07 0.0000000000000000e+00 -2.4663676310112342e+07 -3.0699868239970509e+07 0.0000000000000000e+00 0.0000000000000000e+00 0.0000000000000000e+00 0.0000000000000000e+00  4.9497900536102233e+06 -4.0221565839371793e+06 0.0000000000000000e+00 -4.0221565839371802e+06 -1.2046202094607223e+07 0.0000000000000000e+00 0.0000000000000000e+00 0.0000000000000000e+00 0.0000000000000000e+00  1.8324539015095253e+06 2.6544112243651389e+06 0.0000000000000000e+00 2.6544112243651389e+06 -5.3978906828293325e+06 0.0000000000000000e+00 0.0000000000000000e+00 0.0000000000000000e+00 0.0000000000000000e+00  -9.5218957173570562e+06 -5.1223678477118313e+06 0.0000000000000000e+00 -5.1223678477118304e+06 -1.9985246996874446e+06 0.0000000000000000e+00 0.0000000000000000e+00 0.0000000000000000e+00 0.0000000000000000e+00  -1.1390900187260995e+07 4.9758126851510582e+06 0.0000000000000000e+00 4.9758126851510582e+06 -1.8731765113044120e+06 0.0000000000000000e+00 0.0000000000000000e+00 0.0000000000000000e+00 0.0000000000000000e+00  3.7439981269214139e+05 4.8621726461601190e+02 0.0000000000000000e+00 4.8621726461601190e+02 3.3964945602618519e+05 0.0000000000000000e+00 0.0000000000000000e+00 0.0000000000000000e+00 0.0000000000000000e+00  1.6203922706995403e+07 -1.5205505760851992e+07 0.0000000000000000e+00 -1.5205505760851990e+07 2.7492138534323871e+08 0.0000000000000000e+00 0.0000000000000000e+00 0.0000000000000000e+00 0.0000000000000000e+00  -1.2425362355356805e+04 -8.1844541342723242e+04 0.0000000000000000e+00 -8.1844541342723242e+04 4.6675554301174224e+05 0.0000000000000000e+00 0.0000000000000000e+00 0.0000000000000000e+00 0.0000000000000000e+00  -8.5601574604513968e+04 1.3467182938618952e+05 0.0000000000000000e+00 1.3467182938618952e+05 1.4434330147480136e+06 0.0000000000000000e+00 0.0000000000000000e+00 0.0000000000000000e+00 0.0000000000000000e+00  3.6418975239457109e+05 1.5879327842294145e+05 0.0000000000000000e+00 1.5879327842294145e+05 1.5133533097904141e+05 0.0000000000000000e+00 0.0000000000000000e+00 0.0000000000000000e+00 0.0000000000000000e+00  5.2073911562916229e+05 -1.3449500163173472e+05 0.0000000000000000e+00 -1.3449500163173472e+05 4.5357473975041648e+05 0.0000000000000000e+00 0.0000000000000000e+00 0.0000000000000000e+00 0.0000000000000000e+00  5.9513817906325299e+05 5.1861919974043826e+05 0.0000000000000000e+00 5.1861919974043826e+05 4.9393064243523747e+05 0.0000000000000000e+00 0.0000000000000000e+00 0.0000000000000000e+00 0.0000000000000000e+00  6.3746634080674371e+05 -3.3300409623843408e+05 0.0000000000000000e+00 -3.3300409623843414e+05 4.9212314263756911e+05 0.0000000000000000e+00 0.0000000000000000e+00 0.0000000000000000e+00 0.0000000000000000e+00  -3.6702477507028729e+05 -2.7560922979238007e+05 0.0000000000000000e+00 -2.7560922979238007e+05 -2.9992046928279810e+06 0.0000000000000000e+00 0.0000000000000000e+00 0.0000000000000000e+00 0.0000000000000000e+00  -9.8629671928733366e+05 -1.9935245298280401e+05 0.0000000000000000e+00 -1.9935245298280401e+05 -2.9777185104685896e+06 0.0000000000000000e+00 0.0000000000000000e+00 0.0000000000000000e+00 0.0000000000000000e+00  -9.3080993282531947e+06 1.7931690185049873e+07 0.0000000000000000e+00 1.7931690185049873e+07 -3.1953894312563293e+07 0.0000000000000000e+00 0.0000000000000000e+00 0.0000000000000000e+00 0.0000000000000000e+00  -5.0346086070541682e+05 -1.1603144128740396e+05 0.0000000000000000e+00 -1.1603144128740393e+05 -2.2179039998427112e+05 0.0000000000000000e+00 0.0000000000000000e+00 0.0000000000000000e+00 0.0000000000000000e+00  2.6183524143069768e+06 -1.4830049665875377e+06 0.0000000000000000e+00 -1.4830049665875386e+06 -5.9834178222100446e+06 0.0000000000000000e+00 0.0000000000000000e+00 0.0000000000000000e+00 0.0000000000000000e+00  4.6669285707401737e+04 -7.0952493057118671e+04 0.0000000000000000e+00 -7.0952493057118350e+04 -2.2728502785286328e+05 0.0000000000000000e+00 0.0000000000000000e+00 0.0000000000000000e+00 0.0000000000000000e+00  -6.3845230116319861e+06 -1.0047231005914457e+07 0.0000000000000000e+00 -1.0047231005914459e+07 -8.5642471256515913e+04 0.0000000000000000e+00 0.0000000000000000e+00 0.0000000000000000e+00 0.0000000000000000e+00  -1.5534413262680901e+05 1.1495606308868810e+04 0.0000000000000000e+00 1.1495606308868822e+04 2.7974140009757207e+05 0.0000000000000000e+00 0.0000000000000000e+00 0.0000000000000000e+00 0.0000000000000000e+00  -1.8172263588561732e+06 5.6362565782188401e+06 0.0000000000000000e+00 5.6362565782188401e+06 -1.3270280958112145e+06 0.0000000000000000e+00 0.0000000000000000e+00 0.0000000000000000e+00 0.0000000000000000e+00  -2.5961988803353612e+05 -3.2479963786971901e+05 0.0000000000000000e+00 -3.2479963786971901e+05 9.8621097260119986e+03 0.0000000000000000e+00 0.0000000000000000e+00 0.0000000000000000e+00 0.0000000000000000e+00  7.9828382062631275e+05 -1.1201425544637681e+06 0.0000000000000000e+00 -1.1201425544637681e+06 -9.9733637672399860e+06 0.0000000000000000e+00 0.0000000000000000e+00 0.0000000000000000e+00 0.0000000000000000e+00  -3.3215931724418589e+05 4.9778689563270455e+04 0.0000000000000000e+00 4.9778689563270455e+04 -7.5546888607832938e+06 0.0000000000000000e+00 0.0000000000000000e+00 0.0000000000000000e+00 0.0000000000000000e+00  1.5731079319202757e+07 -2.8015147037949957e+07 0.0000000000000000e+00 -2.8015147037949964e+07 2.1463996297661215e+08 0.0000000000000000e+00 0.0000000000000000e+00 0.0000000000000000e+00 0.0000000000000000e+00  -3.8541835691821616e+05 2.9593267335017194e+05 0.0000000000000000e+00 2.9593267335017194e+05 2.9403403746046807e+05 0.0000000000000000e+00 0.0000000000000000e+00 0.0000000000000000e+00 0.0000000000000000e+00  -3.0202333435322682e+05 1.1720917679310392e+06 0.0000000000000000e+00 1.1720917679310392e+06 -6.2987078908015421e+04 0.0000000000000000e+00 0.0000000000000000e+00 0.0000000000000000e+00 0.0000000000000000e+00  -4.2045166818515986e+05 -2.7330787216626201e+05 0.0000000000000000e+00 -2.7330787216626201e+05 2.9393269238194777e+05 0.0000000000000000e+00 0.0000000000000000e+00 0.0000000000000000e+00 0.0000000000000000e+00  1.1421147966990859e+05 2.4237767791562749e+05 0.0000000000000000e+00 2.4237767791562749e+05 -1.8044932405409976e+05 0.0000000000000000e+00 0.0000000000000000e+00 0.0000000000000000e+00 0.0000000000000000e+00  -1.1718548469695520e+05 -1.3283791926696699e+06 0.0000000000000000e+00 -1.3283791926696699e+06 -1.9451109771890552e+06 0.0000000000000000e+00 0.0000000000000000e+00 0.0000000000000000e+00 0.0000000000000000e+00  -8.8800778995905351e+06 1.7008163291925911e+07 0.0000000000000000e+00 1.7008163291925911e+07 -3.0812928314663447e+07 0.0000000000000000e+00 0.0000000000000000e+00 0.0000000000000000e+00 0.0000000000000000e+00  1.3612244644851011e+05 -4.7371066493701295e+05 0.0000000000000000e+00 -4.7371066493701295e+05 -4.4803773108499183e+04 0.0000000000000000e+00 0.0000000000000000e+00 0.0000000000000000e+00 0.0000000000000000e+00  2.4326006929296865e+06 -1.2713981005579801e+06 0.0000000000000000e+00 -1.2713981005579801e+06 -5.9340074810312903e+06 0.0000000000000000e+00 0.0000000000000000e+00 0.0000000000000000e+00 0.0000000000000000e+00  5.2020703269128787e+05 -1.5270699133250690e+04 0.0000000000000000e+00 -1.5270699133250690e+04 -4.8465090476661257e+05 0.0000000000000000e+00 0.0000000000000000e+00 0.0000000000000000e+00 0.0000000000000000e+00  -6.2504045477936957e+06 -9.7155858674438726e+06 0.0000000000000000e+00 -9.7155858674438726e+06 -1.7573873893737723e+05 0.0000000000000000e+00 0.0000000000000000e+00 0.0000000000000000e+00 0.0000000000000000e+00  -2.2881170096342897e+05 2.2217015663048666e+05 0.0000000000000000e+00 2.2217015663048666e+05 2.2370198645452023e+05 0.0000000000000000e+00 0.0000000000000000e+00 0.0000000000000000e+00 0.0000000000000000e+00  -3.2328703785040402e+06 5.2465297928213365e+06 0.0000000000000000e+00 5.2465297928213365e+06 -1.6836429927122393e+06 0.0000000000000000e+00 0.0000000000000000e+00 0.0000000000000000e+00 0.0000000000000000e+00  -2.5733673274577231e+05 -2.6934092220379284e+05 0.0000000000000000e+00 -2.6934092220379284e+05 2.9541352463410900e+05 0.0000000000000000e+00 0.0000000000000000e+00 0.0000000000000000e+00 0.0000000000000000e+00  1.4038488434289079e+06 -4.9317502442284423e+05 0.0000000000000000e+00 -4.9317502442284423e+05 -9.0918994570886884e+06 0.0000000000000000e+00 0.0000000000000000e+00 0.0000000000000000e+00 0.0000000000000000e+00  -1.6632117343220217e+06 -1.6050799362325314e+06 0.0000000000000000e+00 -1.6050799362325321e+06 -1.3905092666868834e+07 0.0000000000000000e+00 0.0000000000000000e+00 0.0000000000000000e+00 0.0000000000000000e+00  1.7116530171408195e+07 -9.8250866700036023e+06 0.0000000000000000e+00 -9.8250866700036023e+06 1.7110309192262161e+08 0.0000000000000000e+00 0.0000000000000000e+00 0.0000000000000000e+00 0.0000000000000000e+00  -1.8496436424912559e+05 2.0227439014092865e+05 0.0000000000000000e+00 2.0227439014092865e+05 3.0933263443195837e+05 0.0000000000000000e+00 0.0000000000000000e+00 0.0000000000000000e+00 0.0000000000000000e+00  -3.8907033276809537e+05 8.3494498696921731e+05 0.0000000000000000e+00 8.3494498696921708e+05 3.3935919644360285e+04 0.0000000000000000e+00 0.0000000000000000e+00 0.0000000000000000e+00 0.0000000000000000e+00  -2.3629941008621105e+05 -1.8407101603925638e+05 0.0000000000000000e+00 -1.8407101603925653e+05 2.5922064942025003e+05 0.0000000000000000e+00 0.0000000000000000e+00 0.0000000000000000e+00 0.0000000000000000e+00  2.0441592498657214e+04 1.4667906740523208e+05 0.0000000000000000e+00 1.4667906740523170e+05 -1.4812321286752899e+05 0.0000000000000000e+00 0.0000000000000000e+00 0.0000000000000000e+00 0.0000000000000000e+00  -8.6956206861366110e+04 -1.0507068254323397e+06 0.0000000000000000e+00 -1.0507068254323395e+06 -1.5241691421788787e+06 0.0000000000000000e+00 0.0000000000000000e+00 0.0000000000000000e+00 0.0000000000000000e+00  -9.1694220483337063e+06 1.5940077452650903e+07 0.0000000000000000e+00 1.5940077452650903e+07 -2.9118584805518348e+07 0.0000000000000000e+00 0.0000000000000000e+00 0.0000000000000000e+00 0.0000000000000000e+00  -9.9282093313453309e+06 -4.7810885396416103e+06 0.0000000000000000e+00 -4.7810885396416103e+06 -2.7085918152824077e+06 0.0000000000000000e+00 0.0000000000000000e+00 0.0000000000000000e+00 0.0000000000000000e+00  2.9848065919686453e+06 -1.3326153445479057e+06 0.0000000000000000e+00 -1.3326153445479053e+06 -4.0145666380767305e+0