<?xml version="1.0"?>
<VTKFile type="UnstructuredGrid"  version="0.1"  >
<UnstructuredGrid>
<Piece  NumberOfPoints="1318" NumberOfCells="2352">
<Points>
<DataArray  type="Float64"  NumberOfComponents="3"  format="ascii">0.95 0.7 0  0 0 0  1 0 0  0 1 0  1 1 0  0.55 0.3 0  0.9487576938413503 0.7248919616489541 0  0.9450431219621359 0.7495365357998492 0  0.9388932014465352 0.7736887936027258 0  0.930369052967602 0.7971086990686734 0  0.9195553933425572 0.8195634946553292 0  0.9065596935789989 0.8408300145159051 0  0.8915111107797448 0.8606969024216344 0  0.8745592045215185 0.8789667123149292 0  0.8558724504646837 0.8954578706170071 0  0.8356365659664403 0.9100064807876925 0  0.8140526643382913 0.9224679522028668 0  0.7913352560915994 0.9327184371610507 0  0.767710117035752 0.9406560617375028 0  0.7434120444167334 0.9462019382530518 0  0.7186825233966069 0.949300949295295 0  0.6937673270654826 0.949922295500204 0  0.6689140738381296 0.9480598016500431 0  0.6443697665109225 0.9437319780454561 0  0.6203783374370799 0.9369818365417832 0  0.5971782242173482 0.9278764630779188 0  0.5750000000000011 0.9165063509461102 0  0.5540640819413036 0.9029845014289649 0  0.5345785406007861 0.8874453007419344 0  0.5167370320425444 0.870043184442731 0  0.5007168731942702 0.8509511025813704 0  0.4866772795919618 0.8303588008448758 0  0.4747577830243959 0.8084709347793909 0  0.4650768448035234 0.7855050358314187 0  0.4577306784427309 0.761689349422575 0  0.4527922934437181 0.7372605665440453 0  0.4503107696952695 0.712461471415176 0  0.4503107696952693 0.6875385285848276 0  0.4527922934437175 0.6627394334559583 0  0.45773067844273 0.6383106505774285 0  0.4650768448035222 0.6144949641685846 0  0.4747577830243943 0.5915290652206122 0  0.4866772795919601 0.569641199155127 0  0.5007168731942684 0.5490488974186319 0  0.5167370320425423 0.5299568155572714 0  0.5345785406007839 0.5125546992580675 0  0.5540640819413012 0.4970154985710368 0  0.5749999999999987 0.483493649053891 0  0.5971782242173458 0.4721235369220822 0  0.6203783374370777 0.4630181634582174 0  0.6443697665109203 0.4562680219545443 0  0.6689140738381274 0.4519401983499571 0  0.6937673270654806 0.4500777044997959 0  0.718682523396605 0.4506990507047048 0  0.7434120444167316 0.4537980617469478 0  0.7677101170357502 0.4593439382624966 0  0.7913352560915978 0.4672815628389485 0  0.8140526643382899 0.4775320477971324 0  0.8356365659664391 0.4899935192123067 0  0.8558724504646827 0.504542129382992 0  0.8745592045215177 0.5210332876850698 0  0.891511110779744 0.5393030975783646 0  0.9065596935789983 0.5591699854840939 0  0.9195553933425569 0.58043650534467 0  0.9303690529676018 0.602891300931326 0  0.9388932014465351 0.6263112063972738 0  0.9450431219621359 0.6504634642001506 0  0.9487576938413502 0.6751080383510456 0  0.025 0 0  0.05 0 0  0.075 0 0  0.1 0 0  0.125 0 0  0.15 0 0  0.175 0 0  0.2 0 0  0.225 0 0  0.25 0 0  0.275 0 0  0.3 0 0  0.325 0 0  0.35 0 0  0.375 0 0  0.4 0 0  0.425 0 0  0.45 0 0  0.475 0 0  0.5 0 0  0.525 0 0  0.55 0 0  0.575 0 0  0.6 0 0  0.625 0 0  0.65 0 0  0.675 0 0  0.7 0 0  0.725 0 0  0.75 0 0  0.775 0 0  0.8 0 0  0.825 0 0  0.85 0 0  0.875 0 0  0.9 0 0  0.925 0 0  0.95 0 0  0.975 0 0  0 0.975 0  0 0.95 0  0 0.925 0  0 0.9 0  0 0.875 0  0 0.85 0  0 0.825 0  0 0.8 0  0 0.775 0  0 0.75 0  0 0.725 0  0 0.7 0  0 0.675 0  0 0.65 0  0 0.625 0  0 0.6 0  0 0.575 0  0 0.55 0  0 0.525 0  0 0.5 0  0 0.475 0  0 0.45 0  0 0.425 0  0 0.4 0  0 0.375 0  0 0.35 0  0 0.325 0  0 0.3 0  0 0.275 0  0 0.25 0  0 0.225 0  0 0.2 0  0 0.175 0  0 0.15 0  0 0.125 0  0 0.09999999999999998 0  0 0.07499999999999996 0  0 0.05000000000000004 0  0 0.02500000000000002 0  1 0.025 0  1 0.05 0  1 0.075 0  1 0.1 0  1 0.125 0  1 0.15 0  1 0.175 0  1 0.2 0  1 0.225 0  1 0.25 0  1 0.275 0  1 0.3 0  1 0.325 0  1 0.35 0  1 0.375 0  1 0.4 0  1 0.425 0  1 0.45 0  1 0.475 0  1 0.5 0  1 0.525 0  1 0.55 0  1 0.575 0  1 0.6 0  1 0.625 0  1 0.65 0  1 0.675 0  1 0.7 0  1 0.725 0  1 0.75 0  1 0.775 0  1 0.8 0  1 0.825 0  1 0.85 0  1 0.875 0  1 0.9 0  1 0.925 0  1 0.95 0  1 0.975 0  0.975 1 0  0.95 1 0  0.925 1 0  0.9 1 0  0.875 1 0  0.85 1 0  0.825 1 0  0.8 1 0  0.775 1 0  0.75 1 0  0.725 1 0  0.7 1 0  0.675 1 0  0.65 1 0  0.625 1 0  0.6 1 0  0.575 1 0  0.55 1 0  0.525 1 0  0.5 1 0  0.475 1 0  0.45 1 0  0.425 1 0  0.4 1 0  0.375 1 0  0.35 1 0  0.325 1 0  0.3 1 0  0.275 1 0  0.25 1 0  0.225 1 0  0.2 1 0  0.175 1 0  0.15 1 0  0.125 1 0  0.09999999999999998 1 0  0.07499999999999996 1 0  0.05000000000000004 1 0  0.02500000000000002 1 0  0.5487576938413503 0.3248919616489541 0  0.545043121962136 0.3495365357998493 0  0.5388932014465353 0.3736887936027258 0  0.530369052967602 0.3971086990686734 0  0.5195553933425573 0.4195634946553293 0  0.5065596935789989 0.4408300145159052 0  0.4915111107797447 0.4606969024216345 0  0.4745592045215186 0.4789667123149293 0  0.4558724504646838 0.4954578706170071 0  0.4356365659664403 0.5100064807876925 0  0.4140526643382913 0.5224679522028668 0  0.3913352560915994 0.5327184371610508 0  0.367710117035752 0.5406560617375028 0  0.3434120444167333 0.5462019382530519 0  0.3186825233966069 0.5493009492952949 0  0.2937673270654826 0.5499222955002041 0  0.2689140738381297 0.5480598016500431 0  0.2443697665109225 0.5437319780454561 0  0.22037833743708 0.5369818365417833 0  0.1971782242173483 0.5278764630779188 0  0.1750000000000011 0.5165063509461103 0  0.1540640819413037 0.5029845014289649 0  0.1345785406007862 0.4874453007419345 0  0.1167370320425445 0.470043184442731 0  0.1007168731942703 0.4509511025813705 0  0.08667727959196189 0.4303588008448759 0  0.0747577830243959 0.4084709347793909 0  0.06507684480352346 0.3855050358314188 0  0.05773067844273091 0.3616893494225751 0  0.05279229344371811 0.3372605665440453 0  0.05031076969526949 0.312461471415176 0  0.05031076969526929 0.2875385285848276 0  0.05279229344371755 0.2627394334559583 0  0.05773067844273 0.2383106505774285 0  0.06507684480352224 0.2144949641685846 0  0.07475778302439437 0.1915290652206122 0  0.08667727959196012 0.169641199155127 0  0.1007168731942684 0.1490488974186319 0  0.1167370320425423 0.1299568155572713 0  0.1345785406007839 0.1125546992580675 0  0.1540640819413013 0.09701549857103678 0  0.1749999999999987 0.08349364905389106 0  0.1971782242173459 0.07212353692208226 0  0.2203783374370777 0.06301816345821745 0  0.2443697665109203 0.05626802195454433 0  0.2689140738381274 0.05194019834995714 0  0.2937673270654806 0.05007770449979596 0  0.318682523396605 0.05069905070470487 0  0.3434120444167316 0.05379806174694779 0  0.3677101170357502 0.05934393826249668 0  0.3913352560915978 0.06728156283894857 0  0.4140526643382899 0.07753204779713241 0  0.4356365659664392 0.08999351921230669 0  0.4558724504646828 0.1045421293829921 0  0.4745592045215178 0.1210332876850699 0  0.491511110779744 0.1393030975783646 0  0.5065596935789983 0.1591699854840939 0  0.5195553933425568 0.18043650534467 0  0.5303690529676018 0.2028913009313261 0  0.5388932014465351 0.2263112063972738 0  0.5450431219621359 0.2504634642001505 0  0.5487576938413503 0.2751080383510457 0  0.5667884114878879 0.2598282371845304 0  0.02120440940678681 0.7624999104837704 0  0.2338596701915067 0.9771910899865965 0  0.9786574426950262 0.2364252111565223 0  0.7631772237090275 0.02125366552018043 0  0.2540258940700942 0.5669123891178203 0  0.43017070698675 0.7528112046432338 0  0.7337311061958591 0.4308321627989755 0  0.978349364905389 0.3375 0  0.02165063509461096 0.6625 0  0.661442925099809 0.02071406453130659 0  0.3377156516429431 0.9758830815864067 0  0.9783493778971282 0.1375008878698273 0  0.02200327803704027 0.8616144802039505 0  0.8383176946840816 0.02087625734143628 0  0.159734791367988 0.9789139137915128 0  0.8108728170208962 0.4524951775159039 0  0.5427918662744016 0.1825950456919712 0  0.1706314584115339 0.5396463283577793 0  0.4313063422358903 0.6735105493932096 0  0.4629394064436786 0.8308658554791415 0  0.5669216728886366 0.3392400337967279 0  0.9787485403234744 0.4131911566269278 0  0.5874999999999999 0.02165063509461096 0  0.0213435956114878 0.5904217517852373 0  0.3321447304529423 0.5681423725994776 0  0.6796680770702292 0.4288058808605169 0  0.4123578606845218 0.9787563561392376 0  0.8579706460702217 0.4795924575562449 0  0.0873692890023684 0.9805248999942329 0  0.912499451428652 0.02165062799809958 0  0.5144534397530381 0.1358513666427725 0  0.1323372448575414 0.5107842606612925 0  0.4921927247153372 0.8743710080473179 0  0.1104899727636162 0.1062064379189195 0  0.4417785167828254 0.6215426850101446 0  0.6261534884461837 0.4414331000555661 0  0.8988572771405363 0.5154874111695208 0  0.8989341078595598 0.8841062472374962 0  0.5125 0.02165063509461096 0  0.4625 0.978349364905389 0  0.02401322774169212 0.5376687915106344 0  0.9794287689159741 0.2875000515155038 0  0.02138469746775751 0.7133853728856883 0  0.7113179697139931 0.0200187573302561 0  0.0216506350946109 0.8125 0  0.9788036748740955 0.1872420301219752 0  0.2875000054630354 0.9785078574869797 0  0.02022887543045504 0.9117769763146997 0  0.9786048553296289 0.08794308138669782 0  0.975061833123686 0.4631211942464707 0  0.9783620110000104 0.9346414542845581 0  0.01944749733446693 0.06603385150600971 0  0.5325124046475915 0.9121450313407107 0  0.9125799458628361 0.9786524513687489 0  0.09243222650893257 0.4742897163783308 0  0.02378010097109429 0.1093189649735843 0  0.08737816778231844 0.02287759245071508 0  0.3866232920826517 0.5568469610182744 0  0.5543335385471391 0.393310208792145 0  0.4783823036890333 0.09680994684534061 0  0.8599608328196849 0.9198548113302186 0  0.9812416109613435 0.5155311907691948 0  0.9794469012751368 0.8875007148190931 0  0.1375 0.02165063509461096 0  0.4623172102000373 0.01932981726110106 0  0.02162893846728731 0.4861819514278411 0  0.510785699353443 0.9776117433955001 0  0.57787727192923 0.457921070932384 0  0.4614758085619498 0.5709416691352219 0  0.9338314738255069 0.8445320121692568 0  0.9310342938729154 0.5579557996435903 0  0.06297578516369984 0.4296286861679731 0
[...]
<PointData  Tensors="$\sigma$"> 
<DataArray  type="Float64"  Name="$\sigma$"  NumberOfComponents="9" format="ascii">1.0182002584527440e+08 1.1452586862365313e+07 0.0000000000000000e+00 1.1452586862365313e+07 5.0755431543191296e+08 0.0000000000000000e+00 0.0000000000000000e+00 0.0000000000000000e+00 0.0000000000000000e+00  3.1149150787787382e+06 1.6356235156160614e+06 0.0000000000000000e+00 1.6356235156160614e+06 3.1921347045425826e+08 0.0000000000000000e+00 0.0000000000000000e+00 0.0000000000000000e+00 0.0000000000000000e+00  7.2474191154336484e+04 -7.4674077675529712e+04 0.0000000000000000e+00 -7.4674077675529712e+04 8.3121767176394865e+07 0.0000000000000000e+00 0.0000000000000000e+00 0.0000000000000000e+00 0.0000000000000000e+00  5.5031756479932519e+04 -1.1228690614048811e+05 0.0000000000000000e+00 -1.1228690614048811e+05 8.1591097534110591e+07 0.0000000000000000e+00 0.0000000000000000e+00 0.0000000000000000e+00 0.0000000000000000e+00  3.4222199342051968e+06 1.9492864319558970e+06 0.0000000000000000e+00 1.9492864319558970e+06 3.1953563496660680e+08 0.0000000000000000e+00 0.0000000000000000e+00 0.0000000000000000e+00 0.0000000000000000e+00  3.6403526237303265e+06 -8.3492104723357353e+06 0.0000000000000000e+00 -8.3492104723357353e+06 1.7564848810412255e+08 0.0000000000000000e+00 0.0000000000000000e+00 0.0000000000000000e+00 0.0000000000000000e+00  1.9511435471544862e+07 -1.5441746315680427e+07 0.0000000000000000e+00 -1.5441746315680427e+07 4.5249324390098792e+08 0.0000000000000000e+00 0.0000000000000000e+00 0.0000000000000000e+00 0.0000000000000000e+00  3.3331864501991170e+06 -3.8103379861075714e+07 0.0000000000000000e+00 -3.8103379861075714e+07 3.3809899551063114e+08 0.0000000000000000e+00 0.0000000000000000e+00 0.0000000000000000e+00 0.0000000000000000e+00  -2.2024069311243021e+06 -1.6648744252847051e+07 0.0000000000000000e+00 -1.6648744252847051e+07 1.7994243103286940e+08 0.0000000000000000e+00 0.0000000000000000e+00 0.0000000000000000e+00 0.0000000000000000e+00  -9.3909921897755153e+06 1.6486327247960119e+07 0.0000000000000000e+00 1.6486327247960119e+07 3.2713772089766685e+07 0.0000000000000000e+00 0.0000000000000000e+00 0.0000000000000000e+00 0.0000000000000000e+00  -3.2035047085174646e+07 4.0262804692208223e+07 0.0000000000000000e+00 4.0262804692208223e+07 -3.2133635478646148e+07 0.0000000000000000e+00 0.0000000000000000e+00 0.0000000000000000e+00 0.0000000000000000e+00  -4.4547656313937448e+07 6.5615171094959885e+07 0.0000000000000000e+00 6.5615171094959885e+07 -9.2537626684273258e+07 0.0000000000000000e+00 0.0000000000000000e+00 0.0000000000000000e+00 0.0000000000000000e+00  -7.0248209970837131e+07 8.2883219455351904e+07 0.0000000000000000e+00 8.2883219455351904e+07 -1.0483189741785942e+08 0.0000000000000000e+00 0.0000000000000000e+00 0.0000000000000000e+00 0.0000000000000000e+00  -8.4515602576564014e+07 8.4378996564079776e+07 0.0000000000000000e+00 8.4378996564079776e+07 -9.1159057332132816e+07 0.0000000000000000e+00 0.0000000000000000e+00 0.0000000000000000e+00 0.0000000000000000e+00  -8.7632975474929333e+07 7.4410050246056125e+07 0.0000000000000000e+00 7.4410050246056125e+07 -7.0773255111883402e+07 0.0000000000000000e+00 0.0000000000000000e+00 0.0000000000000000e+00 0.0000000000000000e+00  -7.4923307443320900e+07 5.8839836781589292e+07 0.0000000000000000e+00 5.8839836781589292e+07 -4.7931373846877128e+07 0.0000000000000000e+00 0.0000000000000000e+00 0.0000000000000000e+00 0.0000000000000000e+00  -5.5952481993693538e+07 3.7510892581725441e+07 0.0000000000000000e+00 3.7510892581725441e+07 -2.7448464243163686e+07 0.0000000000000000e+00 0.0000000000000000e+00 0.0000000000000000e+00 0.0000000000000000e+00  -3.4091644813637406e+07 1.8908937290486310e+07 0.0000000000000000e+00 1.8908937290486310e+07 -1.2773845490608990e+07 0.0000000000000000e+00 0.0000000000000000e+00 0.0000000000000000e+00 0.0000000000000000e+00  -2.5227215014144678e+07 9.2696751269058920e+06 0.0000000000000000e+00 9.2696751269058920e+06 -6.1689381963117830e+06 0.0000000000000000e+00 0.0000000000000000e+00 0.0000000000000000e+00 0.0000000000000000e+00  -1.9585201280740321e+07 3.4511247319010263e+06 0.0000000000000000e+00 3.4511247319010263e+06 -1.6729735852465355e+06 0.0000000000000000e+00 0.0000000000000000e+00 0.0000000000000000e+00 0.0000000000000000e+00  -2.0782970242408838e+07 9.1693127083007409e+05 0.0000000000000000e+00 9.1693127083007409e+05 -5.8181226130405045e+05 0.0000000000000000e+00 0.0000000000000000e+00 0.0000000000000000e+00 0.0000000000000000e+00  -2.1963197212020319e+07 -8.4391142932503507e+05 0.0000000000000000e+00 -8.4391142932503507e+05 -6.0099229433792131e+05 0.0000000000000000e+00 0.0000000000000000e+00 0.0000000000000000e+00 0.0000000000000000e+00  -2.1696318120195080e+07 -2.5399629969240474e+06 0.0000000000000000e+00 -2.5399629969240474e+06 -8.1259540030620736e+05 0.0000000000000000e+00 0.0000000000000000e+00 0.0000000000000000e+00 0.0000000000000000e+00  -2.0637749850701109e+07 -4.4073274865496475e+06 0.0000000000000000e+00 -4.4073274865496475e+06 -1.6291122938536461e+06 0.0000000000000000e+00 0.0000000000000000e+00 0.0000000000000000e+00 0.0000000000000000e+00  -1.8622756235589363e+07 -6.2841193370533995e+06 0.0000000000000000e+00 -6.2841193370533995e+06 -2.9026682947868002e+06 0.0000000000000000e+00 0.0000000000000000e+00 0.0000000000000000e+00 0.0000000000000000e+00  -1.7320673888383090e+07 -7.6042404142094161e+06 0.0000000000000000e+00 -7.6042404142094161e+06 -4.2128074610408079e+06 0.0000000000000000e+00 0.0000000000000000e+00 0.0000000000000000e+00 0.0000000000000000e+00  -1.5821049521876775e+07 -8.9904118110983018e+06 0.0000000000000000e+00 -8.9904118110983018e+06 -5.6646284904524954e+06 0.0000000000000000e+00 0.0000000000000000e+00 0.0000000000000000e+00 0.0000000000000000e+00  -1.3211057263383476e+07 -8.9978658728763983e+06 0.0000000000000000e+00 -8.9978658728763983e+06 -6.4118851909886748e+06 0.0000000000000000e+00 0.0000000000000000e+00 0.0000000000000000e+00 0.0000000000000000e+00  -9.1511848553638980e+06 -7.2499931950982362e+06 0.0000000000000000e+00 -7.2499931950982362e+06 -5.8299903620111542e+06 0.0000000000000000e+00 0.0000000000000000e+00 0.0000000000000000e+00 0.0000000000000000e+00  -4.7766986588748898e+06 -4.3261671447531162e+06 0.0000000000000000e+00 -4.3261671447531162e+06 -2.9874363326014248e+06 0.0000000000000000e+00 0.0000000000000000e+00 0.0000000000000000e+00 0.0000000000000000e+00  -7.6222901431224286e+05 1.3008625719720740e+06 0.0000000000000000e+00 1.3008625719720740e+06 4.7432511203376884e+06 0.0000000000000000e+00 0.0000000000000000e+00 0.0000000000000000e+00 0.0000000000000000e+00  3.0714652590241651e+06 5.7403825617229333e+06 0.0000000000000000e+00 5.7403825617229333e+06 1.5172336939504854e+07 0.0000000000000000e+00 0.0000000000000000e+00 0.0000000000000000e+00 0.0000000000000000e+00  4.6390429300291305e+06 1.0553617726317424e+07 0.0000000000000000e+00 1.0553617726317424e+07 3.0611416267033473e+07 0.0000000000000000e+00 0.0000000000000000e+00 0.0000000000000000e+00 0.0000000000000000e+00  5.5444205425477223e+06 1.3527641996519117e+07 0.0000000000000000e+00 1.3527641996519117e+07 5.3900524306905203e+07 0.0000000000000000e+00 0.0000000000000000e+00 0.0000000000000000e+00 0.0000000000000000e+00  4.8288237736081854e+06 1.2521857366819505e+07 0.0000000000000000e+00 1.2521857366819505e+07 7.8461778154814318e+07 0.0000000000000000e+00 0.0000000000000000e+00 0.0000000000000000e+00 0.0000000000000000e+00  3.2939229982853690e+06 1.0002505239346066e+07 0.0000000000000000e+00 1.0002505239346066e+07 1.1353997856294642e+08 0.0000000000000000e+00 0.0000000000000000e+00 0.0000000000000000e+00 0.0000000000000000e+00  3.2278805127366832e+06 -1.2707804599833481e+06 0.0000000000000000e+00 -1.2707804599833481e+06 1.5613072335503289e+08 0.0000000000000000e+00 0.0000000000000000e+00 0.0000000000000000e+00 0.0000000000000000e+00  6.4520796655444996e+06 -2.0564747166051470e+07 0.0000000000000000e+00 -2.0564747166051470e+07 2.0060042929090747e+08 0.0000000000000000e+00 0.0000000000000000e+00 0.0000000000000000e+00 0.0000000000000000e+00  1.5044915868878985e+07 -4.8458335809126496e+07 0.0000000000000000e+00 -4.8458335809126496e+07 2.5390348982754138e+08 0.0000000000000000e+00 0.0000000000000000e+00 0.0000000000000000e+00 0.0000000000000000e+00  3.5799822559534170e+07 -9.2410509080450431e+07 0.0000000000000000e+00 -9.2410509080450431e+07 3.1092629339624453e+08 0.0000000000000000e+00 0.0000000000000000e+00 0.0000000000000000e+00 0.0000000000000000e+00  6.9038721736561626e+07 -1.4065871876153094e+08 0.0000000000000000e+00 -1.4065871876153094e+08 3.3231605138770103e+08 0.0000000000000000e+00 0.0000000000000000e+00 0.0000000000000000e+00 0.0000000000000000e+00  9.4304823857824326e+07 -1.6817626684888735e+08 0.0000000000000000e+00 -1.6817626684888735e+08 3.5706701623788691e+08 0.0000000000000000e+00 0.0000000000000000e+00 0.0000000000000000e+00 0.0000000000000000e+00  1.2562627475784592e+08 -1.8947901535107547e+08 0.0000000000000000e+00 -1.8947901535107547e+08 3.3714340240429449e+08 0.0000000000000000e+00 0.0000000000000000e+00 0.0000000000000000e+00 0.0000000000000000e+00  1.0862899155931762e+08 -1.6367990393686298e+08 0.0000000000000000e+00 -1.6367990393686298e+08 2.6072645424845359e+08 0.0000000000000000e+00 0.0000000000000000e+00 0.0000000000000000e+00 0.0000000000000000e+00  5.7229330371111177e+07 -1.0123014080644207e+08 0.0000000000000000e+00 -1.0123014080644207e+08 1.5935962267853653e+08 0.0000000000000000e+00 0.0000000000000000e+00 0.0000000000000000e+00 0.0000000000000000e+00  -4.1578762719388716e+07 -1.0310917534520339e+07 0.0000000000000000e+00 -1.0310917534520339e+07 4.9187331340973616e+07 0.0000000000000000e+00 0.0000000000000000e+00 0.0000000000000000e+00 0.0000000000000000e+00  -1.1584513109264578e+08 4.2128399718730308e+07 0.0000000000000000e+00 4.2128399718730308e+07 -1.0190951615653802e+07 0.0000000000000000e+00 0.0000000000000000e+00 0.0000000000000000e+00 0.0000000000000000e+00  -1.8768526058011487e+08 8.8915367934729844e+07 0.0000000000000000e+00 8.8915367934729844e+07 -3.1905665365693063e+07 0.0000000000000000e+00 0.0000000000000000e+00 0.0000000000000000e+00 0.0000000000000000e+00  -2.0400526632344952e+08 9.5748735758329332e+07 0.0000000000000000e+00 9.5748735758329332e+07 -4.7669654877188861e+07 0.0000000000000000e+00 0.0000000000000000e+00 0.0000000000000000e+00 0.0000000000000000e+00  -2.0230363511556223e+08 7.8026366096691221e+07 0.0000000000000000e+00 7.8026366096691221e+07 -3.2813385024287321e+07 0.0000000000000000e+00 0.0000000000000000e+00 0.0000000000000000e+00 0.0000000000000000e+00  -1.8076058627364266e+08 4.5812951698050722e+07 0.0000000000000000e+00 4.5812951698050722e+07 -1.6668813522638654e+07 0.0000000000000000e+00 0.0000000000000000e+00 0.0000000000000000e+00 0.0000000000000000e+00  -1.5172760858616316e+08 2.8353901881623656e+07 0.0000000000000000e+00 2.8353901881623656e+07 -1.0338523650554949e+07 0.0000000000000000e+00 0.0000000000000000e+00 0.0000000000000000e+00 0.0000000000000000e+00  -1.4127520787800196e+08 8.9080015237050001e+06 0.0000000000000000e+00 8.9080015237050001e+06 -4.6061917968410011e+06 0.0000000000000000e+00 0.0000000000000000e+00 0.0000000000000000e+00 0.0000000000000000e+00  -1.2059071172778185e+08 -5.7989365280978587e+06 0.0000000000000000e+00 -5.7989365280978587e+06 -4.1337663699936583e+06 0.0000000000000000e+00 0.0000000000000000e+00 0.0000000000000000e+00 0.0000000000000000e+00  -1.0867075404789245e+08 -1.7418570212353330e+07 0.0000000000000000e+00 -1.7418570212353330e+07 -5.9579606508698994e+06 0.0000000000000000e+00 0.0000000000000000e+00 0.0000000000000000e+00 0.0000000000000000e+00  -9.4365502485447451e+07 -2.6257226762263205e+07 0.0000000000000000e+00 -2.6257226762263205e+07 -8.9977288758969996e+06 0.0000000000000000e+00 0.0000000000000000e+00 0.0000000000000000e+00 0.0000000000000000e+00  -8.0453698723171949e+07 -2.7406358854847398e+07 0.0000000000000000e+00 -2.7406358854847398e+07 -1.2204987586606957e+07 0.0000000000000000e+00 0.0000000000000000e+00 0.0000000000000000e+00 0.0000000000000000e+00  -6.8418291778527901e+07 -3.1201535376408670e+07 0.0000000000000000e+00 -3.1201535376408670e+07 -1.6963141584695172e+07 0.0000000000000000e+00 0.0000000000000000e+00 0.0000000000000000e+00 0.0000000000000000e+00  -4.8409212308769129e+07 -2.7893796824874073e+07 0.0000000000000000e+00 -2.7893796824874073e+07 -1.8620742591241084e+07 0.0000000000000000e+00 0.0000000000000000e+00 0.0000000000000000e+00 0.0000000000000000e+00  -3.3301694288881440e+07 -2.2683972579053596e+07 0.0000000000000000e+00 -2.2683972579053596e+07 -1.4348940819471842e+07 0.0000000000000000e+00 0.0000000000000000e+00 0.0000000000000000e+00 0.0000000000000000e+00  -1.2618858680966606e+07 -9.9889525426559132e+06 0.0000000000000000e+00 -9.9889525426559132e+06 -6.2273250827106182e+06 0.0000000000000000e+00 0.0000000000000000e+00 0.0000000000000000e+00 0.0000000000000000e+00  5.6052407291082796e+06 1.1310563997225555e+07 0.0000000000000000e+00 1.1310563997225555e+07 2.4512811882047087e+07 0.0000000000000000e+00 0.0000000000000000e+00 0.0000000000000000e+00 0.0000000000000000e+00  1.8471182301362336e+07 3.5378580444772109e+07 0.0000000000000000e+00 3.5378580444772109e+07 7.6156021995496616e+07 0.0000000000000000e+00 0.0000000000000000e+00 0.0000000000000000e+00 0.0000000000000000e+00  3.2314178766412608e+07 6.2555388054780632e+07 0.0000000000000000e+00 6.2555388054780632e+07 1.6344041962544507e+08 0.0000000000000000e+00 0.0000000000000000e+00 0.0000000000000000e+00 0.0000000000000000e+00  2.8175610318876751e+07 7.9780540017981187e+07 0.0000000000000000e+00 7.9780540017981187e+07 2.7248528241755062e+08 0.0000000000000000e+00 0.0000000000000000e+00 0.0000000000000000e+00 0.0000000000000000e+00  3.6900666255419329e+07 1.0513323860389468e+08 0.0000000000000000e+00 1.0513323860389468e+08 3.8449084658243370e+08 0.0000000000000000e+00 0.0000000000000000e+00 0.0000000000000000e+00 0.0000000000000000e+00  6.4358733675321914e+07 9.4844155657160133e+07 0.0000000000000000e+00 9.4844155657160133e+07 4.3894621608926481e+08 0.0000000000000000e+00 0.0000000000000000e+00 0.0000000000000000e+00 0.0000000000000000e+00  9.1190521750315621e+07 4.5313366402383462e+07 0.0000000000000000e+00 4.5313366402383462e+07 5.1036728066311425e+08 0.0000000000000000e+00 0.0000000000000000e+00 0.0000000000000000e+00 0.0000000000000000e+00  4.3068377347034924e+06 3.2455068379958957e+06 0.0000000000000000e+00 3.2455068379958957e+06 2.4941119892719525e+08 0.0000000000000000e+00 0.0000000000000000e+00 0.0000000000000000e+00 0.0000000000000000e+00  1.2233628076352308e+07 2.3876063597285179e+06 0.0000000000000000e+00 2.3876063597285179e+06 1.8289376554027212e+08 0.0000000000000000e+00 0.0000000000000000e+00 0.0000000000000000e+00 0.0000000000000000e+00  2.3103590338394936e+07 1.7459654070697944e+06 0.0000000000000000e+00 1.7459654070697944e+06 1.1079605612293449e+08 0.0000000000000000e+00 0.0000000000000000e+00 0.0000000000000000e+00 0.0000000000000000e+00  2.8260394670635123e+07 2.3904581007903768e+06 0.0000000000000000e+00 2.3904581007903768e+06 4.7957382659922890e+07 0.0000000000000000e+00 0.0000000000000000e+00 0.0000000000000000e+00 0.0000000000000000e+00  2.8780321354236305e+07 2.6049204176272028e+06 0.0000000000000000e+00 2.6049204176272028e+06 4.0420904076018874e+06 0.0000000000000000e+00 0.0000000000000000e+00 0.0000000000000000e+00 0.0000000000000000e+00  2.2839483274258483e+07 2.8570007179586082e+06 0.0000000000000000e+00 2.8570007179586082e+06 -2.3484115515455052e+07 0.0000000000000000e+00 0.0000000000000000e+00 0.0000000000000000e+00 0.0000000000000000e+00  1.2029259430831673e+07 1.5996141885360354e+06 0.0000000000000000e+00 1.5996141885360354e+06 -3.1168267312295042e+07 0.0000000000000000e+00 0.0000000000000000e+00 0.0000000000000000e+00 0.0000000000000000e+00  -5.5261175305963750e+05 1.2656801321386779e+06 0.0000000000000000e+00 1.2656801321386779e+06 -2.5600377810850449e+07 0.0000000000000000e+00 0.0000000000000000e+00 0.0000000000000000e+00 0.0000000000000000e+00  -1.0639040114521250e+07 3.6414917401384003e+05 0.0000000000000000e+00 3.6414917401384003e+05 -1.6339335729279611e+07 0.0000000000000000e+00 0.0000000000000000e+00 0.0000000000000000e+00 0.0000000000000000e+00  -1.7504558011010446e+07 -6.1427487460738497e+01 0.0000000000000000e+00 -6.1427487460738497e+01 -7.7072891438977756e+06 0.0000000000000000e+00 0.0000000000000000e+00 0.0000000000000000e+00 0.0000000000000000e+00  -1.9125607791805990e+07 1.4402006082899970e+05 0.0000000000000000e+00 1.4402006082899970e+05 -2.9060454239096730e+06 0.0000000000000000e+00 0.0000000000000000e+00 0.0000000000000000e+00 0.0000000000000000e+00  -1.9836974149556261e+07 8.5239204179900073e+04 0.0000000000000000e+00 8.5239204179900073e+04 -1.7533461359940292e+06 0.0000000000000000e+00 0.0000000000000000e+00 0.0000000000000000e+00 0.0000000000000000e+00  -1.9004019029295076e+07 -2.0233189687418053e+05 0.0000000000000000e+00 -2.0233189687418053e+05 -1.9282159367236919e+06 0.0000000000000000e+00 0.0000000000000000e+00 0.0000000000000000e+00 0.0000000000000000e+00  -1.7296244304221913e+07 -2.3673639773380355e+05 0.0000000000000000e+00 -2.3673639773380355e+05 -2.1713403929437138e+06 0.0000000000000000e+00 0.0000000000000000e+00 0.0000000000000000e+00 0.0000000000000000e+00  -1.5826606571153307e+07 -4.3942720002744778e+05 0.0000000000000000e+00 -4.3942720002744778e+05 -3.1312573462195112e+06 0.0000000000000000e+00 0.0000000000000000e+00 0.0000000000000000e+00 0.0000000000000000e+00  -1.2680525729912812e+07 -4.0098908643387241e+05 0.0000000000000000e+00 -4.0098908643387241e+05 -3.1071766694610463e+06 0.0000000000000000e+00 0.0000000000000000e+00 0.0000000000000000e+00 0.0000000000000000e+00  -1.0820694473955845e+07 -3.6015022924919927e+05 0.0000000000000000e+00 -3.6015022924919927e+05 -1.8240681582805614e+06 0.0000000000000000e+00 0.0000000000000000e+00 0.0000000000000000e+00 0.0000000000000000e+00  -9.2128171959058139e+06 -4.3935570789372397e+05 0.0000000000000000e+00 -4.3935570789372397e+05 1.0979444069975554e+06 0.0000000000000000e+00 0.0000000000000000e+00 0.0000000000000000e+00 0.0000000000000000e+00  -8.5100756113822889e+06 -4.7679439371773566e+05 0.0000000000000000e+00 -4.7679439371773566e+05 6.1971907410551673e+06 0.0000000000000000e+00 0.0000000000000000e+00 0.0000000000000000e+00 0.0000000000000000e+00  -7.9565016868659398e+06 -3.5425335137225653e+05 0.0000000000000000e+00 -3.5425335137225653e+05 1.1641865103516679e+07 0.0000000000000000e+00 0.0000000000000000e+00 0.0000000000000000e+00 0.0000000000000000e+00  -8.5177882396455240e+06 -4.9640719882963446e+05 0.0000000000000000e+00 -4.9640719882963446e+05 1.8695775878111459e+07 0.0000000000000000e+00 0.0000000000000000e+00 0.0000000000000000e+00 0.0000000000000000e+00  -7.8606922233746368e+06 -5.3740424071260076e+05 0.0000000000000000e+00 -5.3740424071260076e+05 2.4825307273621801e+07 0.0000000000000000e+00 0.0000000000000000e+00 0.0000000000000000e+00 0.0000000000000000e+00  -7.6834768735309923e+06 -4.8396923501882178e+05 0.0000000000000000e+00 -4.8396923501882178e+05 3.1120472101655308e+07 0.0000000000000000e+00 0.0000000000000000e+00 0.0000000000000000e+00 0.0000000000000000e+00  -6.8323628178683585e+06 -4.1957857690129842e+05 0.0000000000000000e+00 -4.1957857690129842e+05 3.6514814899048522e+07 0.0000000000000000e+00 0.0000000000000000e+00 0.0000000000000000e+00 0.0000000000000000e+00  -5.5880109694864089e+06 -3.6670779846308270e+05 0.0000000000000000e+00 -3.6670779846308270e+05 4.0575939771581240e+07 0.0000000000000000e+00 0.0000000000000000e+00 0.0000000000000000e+00 0.0000000000000000e+00  -3.9818829647877766e+06 -4.1584592211111879e+05 0.0000000000000000e+00 -4.1584592211111879e+05 4.3925884322532676e+07 0.0000000000000000e+00 0.0000000000000000e+00 0.0000000000000000e+00 0.0000000000000000e+00  -2.1278162239923459e+06 -4.0136372323688125e+05 0.0000000000000000e+00 -4.0136372323688125e+05 4.6598864820169434e+07 0.00000000000