<?xml version="1.0"?>
<VTKFile type="UnstructuredGrid"  version="0.1"  >
<UnstructuredGrid>
<Piece  NumberOfPoints="1387" NumberOfCells="2575">
<Points>
<DataArray  type="Float64"  NumberOfComponents="3"  format="ascii">0.75 0.5 0  0 0 0  1 0 0  0 1 0  1 1 0  0.749209709753674 0.5198625417429286 0  0.7468438354840834 0.5395995061018037 0  0.7429173350101025 0.5590861096332261 0  0.7374550329319457 0.5781991517555567 0  0.7304914636820516 0.5968177936626602 0  0.722070653187283 0.6148243223057444 0  0.712245840522841 0.6321048946131548 0  0.7010791413176912 0.6485502572429276 0  0.6886411550395576 0.6640564373175939 0  0.6750105186423564 0.6785253997741874 0  0.6602734093980551 0.6918656671734769 0  0.6445230000562122 0.7039928980497902 0  0.6278588697758557 0.7148304201449152 0  0.610386374553978 0.724309715154803 0  0.592215981131002 0.7323708519243467 0  0.5734625685844804 0.7389628653514402 0  0.5542447020265796 0.7440440786047626 0  0.5346838829972672 0.7475823666181254 0  0.5149037812924551 0.7495553591954832 0  0.4950294530837326 0.7499505824425163 0  0.4751865502729847 0.7487655376306068 0  0.4555005260806126 0.7460077169946052 0  0.4360958418898815 0.7416945563645093 0  0.4170951803619832 0.7358533249305337 0  0.3986186697967516 0.7285209528385087 0  0.3807831246428736 0.7197437977056085 0  0.3637013069593332 0.7095773515325692 0  0.347481213497369 0.6980858898653937 0  0.3322253929102409 0.6853420654246547 0  0.3180302974076266 0.6714264487716035 0  0.3049856729536971 0.6564270189151401 0  0.2931739918642358 0.6404386070801928 0  0.2826699313901045 0.623562297154181 0  0.2735399015836193 0.6059047866021323 0  0.2658416254328181 0.5875777118909563 0  0.259623773918145 0.5686969426877566 0  0.2549256582988411 0.5493818492944886 0  0.2517769815745067 0.5297545479504765 0  0.2501976506931746 0.5099391287742318 0  0.2501976506931745 0.490060871225769 0  0.2517769815745066 0.4702454520495242 0  0.2549256582988408 0.4506181507055124 0  0.2596237739181447 0.4313030573122441 0  0.2658416254328178 0.4124222881090445 0  0.273539901583619 0.3940952133978683 0  0.2826699313901041 0.3764377028458198 0  0.2931739918642353 0.3595613929198078 0  0.3049856729536965 0.3435729810848606 0  0.318030297407626 0.3285735512283973 0  0.3322253929102403 0.3146579345753459 0  0.3474812134973683 0.3019141101346069 0  0.3637013069593324 0.2904226484674313 0  0.3807831246428727 0.280256202294392 0  0.3986186697967508 0.2714790471614917 0  0.4170951803619821 0.2641466750694667 0  0.4360958418898802 0.258305443635491 0  0.4555005260806114 0.253992283005395 0  0.4751865502729833 0.2512344623693933 0  0.4950294530837311 0.2500494175574837 0  0.5149037812924534 0.2504446408045167 0  0.5346838829972655 0.2524176333818743 0  0.5542447020265782 0.255955921395237 0  0.5734625685844787 0.2610371346485594 0  0.5922159811310004 0.2676291480756526 0  0.6103863745539765 0.2756902848451962 0  0.6278588697758541 0.285169579855084 0  0.644523000056211 0.296007101950209 0  0.660273409398054 0.3081343328265223 0  0.6750105186423555 0.3214746002258118 0  0.6886411550395568 0.3359435626824053 0  0.7010791413176907 0.3514497427570717 0  0.7122458405228406 0.3678951053868445 0  0.7220706531872827 0.3851756776942549 0  0.7304914636820514 0.4031822063373391 0  0.7374550329319455 0.4218008482444427 0  0.7429173350101024 0.4409138903667735 0  0.7468438354840833 0.460400493898196 0  0.749209709753674 0.4801374582570713 0  0.03333333333333333 0 0  0.06666666666666667 0 0  0.1 0 0  0.1333333333333333 0 0  0.1666666666666667 0 0  0.2 0 0  0.2333333333333333 0 0  0.2666666666666667 0 0  0.3 0 0  0.3333333333333333 0 0  0.3666666666666666 0 0  0.4 0 0  0.4333333333333333 0 0  0.4666666666666667 0 0  0.5 0 0  0.5333333333333333 0 0  0.5666666666666667 0 0  0.6 0 0  0.6333333333333333 0 0  0.6666666666666666 0 0  0.7 0 0  0.7333333333333333 0 0  0.7666666666666667 0 0  0.8 0 0  0.8333333333333334 0 0  0.8666666666666667 0 0  0.9 0 0  0.9333333333333333 0 0  0.9666666666666667 0 0  0 0.9666666666666667 0  0 0.9333333333333333 0  0 0.9 0  0 0.8666666666666667 0  0 0.8333333333333334 0  0 0.8 0  0 0.7666666666666666 0  0 0.7333333333333334 0  0 0.7 0  0 0.6666666666666667 0  0 0.6333333333333333 0  0 0.6 0  0 0.5666666666666667 0  0 0.5333333333333333 0  0 0.5 0  0 0.4666666666666667 0  0 0.4333333333333333 0  0 0.4 0  0 0.3666666666666667 0  0 0.3333333333333334 0  0 0.3 0  0 0.2666666666666667 0  0 0.2333333333333333 0  0 0.2 0  0 0.1666666666666666 0  0 0.1333333333333333 0  0 0.09999999999999998 0  0 0.06666666666666665 0  0 0.03333333333333333 0  1 0.03333333333333333 0  1 0.06666666666666667 0  1 0.1 0  1 0.1333333333333333 0  1 0.1666666666666667 0  1 0.2 0  1 0.2333333333333333 0  1 0.2666666666666667 0  1 0.3 0  1 0.3333333333333333 0  1 0.3666666666666666 0  1 0.4 0  1 0.4333333333333333 0  1 0.4666666666666667 0  1 0.5 0  1 0.5333333333333333 0  1 0.5666666666666667 0  1 0.6 0  1 0.6333333333333333 0  1 0.6666666666666666 0  1 0.7 0  1 0.7333333333333333 0  1 0.7666666666666667 0  1 0.8 0  1 0.8333333333333334 0  1 0.8666666666666667 0  1 0.9 0  1 0.9333333333333333 0  1 0.9666666666666667 0  0.9666666666666667 1 0  0.9333333333333333 1 0  0.9 1 0  0.8666666666666667 1 0  0.8333333333333334 1 0  0.8 1 0  0.7666666666666666 1 0  0.7333333333333334 1 0  0.7 1 0  0.6666666666666667 1 0  0.6333333333333333 1 0  0.6 1 0  0.5666666666666667 1 0  0.5333333333333333 1 0  0.5 1 0  0.4666666666666667 1 0  0.4333333333333333 1 0  0.4 1 0  0.3666666666666667 1 0  0.3333333333333334 1 0  0.3 1 0  0.2666666666666667 1 0  0.2333333333333333 1 0  0.2 1 0  0.1666666666666666 1 0  0.1333333333333333 1 0  0.09999999999999998 1 0  0.06666666666666665 1 0  0.03333333333333333 1 0  0.3129350224500487 0.309459913287936 0  0.316987110008388 0.6927691882257906 0  0.6941973648636177 0.3165796647839943 0  0.6932621726239022 0.6827892703892993 0  0.6455986850407045 0.7237779462592528 0  0.6459433893098212 0.2764900659507452 0  0.2733066485091044 0.6410972353306726 0  0.2736733968050457 0.3586044844180336 0  0.3634378151490435 0.2705461373241516 0  0.3610323413474288 0.7275989050197375 0  0.8168475322498733 0.9750973461782444 0  0.817199145686764 0.02756838059939959 0  0.02868411821525169 0.8170519485486052 0  0.02908434011171135 0.1874460805926054 0  0.7353864611292629 0.3696704240752686 0  0.7345720229021924 0.6318394388430564 0  0.2149571045551588 0.9733918091055852 0  0.2202696540380006 0.02660283067610719 0  0.9711324865405186 0.7833333333333334 0  0.968175602886182 0.2194935029459814 0  0.5893961606523949 0.7522014981536065 0  0.5868498822729034 0.2483557619231821 0  0.2460878697510659 0.415507398318645 0  0.2445837521225249 0.5823639454467853 0  0.421536856314724 0.2447710037806095 0  0.4215368563147253 0.7552289962193911 0  0.7572589034475201 0.5738448631318939 0  0.7566328046569737 0.4266573030506553 0  0.5265024938383309 0.7656989334726114 0  0.5289425125865549 0.2334988239710079 0  0.2348114312793556 0.4787697199800289 0  0.766806320609942 0.5106156823011457 0  0.7166666666666667 0.9711324865405189 0  0.7168120501348643 0.03139066108719135 0  0.02927018854913416 0.7166392347932816 0  0.03267535758700624 0.2792362686328713 0  0.3130003780656319 0.02711486420467363 0  0.3182510086070782 0.9724447093153314 0  0.9724525780898912 0.685290513060492 0  0.9711324865405186 0.3166666666666667 0  0.6150933648157966 0.972250344552449 0  0.6185263938557434 0.02743781354269947 0  0.02718001329551445 0.5519601606638697 0  0.0288675134594813 0.3833333333333334 0  0.45 0.0288675134594813 0  0.45 0.9711324865405186 0  0.9716595870452381 0.4507535627690156 0  0.9786289654600504 0.5818288610590455 0  0.119899459613496 0.9719376734066975 0  0.1166666666666666 0.0288675134594813 0  0.9724495615673636 0.1129709843549812 0  0.9711324865405186 0.8833333333333333 0  0.2356820606219706 0.5434623930510305 0  0.7651194851472526 0.4682200688580082 0  0.4651457831455361 0.2333748961038963 0  0.4631024765928036 0.7639957021096822 0  0.9724203474495634 0.5164379845973656 0  0.51607017309259 0.02857319245803341 0  0.51393473598436 0.9704134871283023 0  0.03180111688037135 0.4825139986665801 0  0.0288675134594813 0.6166666666666667 0  0.971399189297391 0.3845665658099546 0  0.3838601957153005 0.02892309017532896 0  0.3829822282111291 0.9731454979755155 0  0.0288675134594813 0.8833333333333333 0  0.02856726464783804 0.1166357463920586 0  0.8833599841179656 0.02725245076535726 0  0.8831774077636629 0.9732977293500689 0  0.9712227829344231 0.05037805679447371 0  0.04981373682619566 0.9724959682208685 0  0.02809108920866893 0.05130818269872395 0  0.9749075681080415 0.949598344884824 0  0.7081160394879766 0.3327152790341613 0  0.714599300965478 0.3125087175876583 0  0.6989329774023179 0.2958327051896186 0  0.7202216046886207 0.2910644413508696 0  0.7357872330801354 0.3077098227509911 0  0.7420667183222692 0.2857973894358228 0  0.726003235133392 0.2691893103097644 0  0.7487084011612093 0.2635660185194504 0  0.7576462702863167 0.3022755986864162 0  0.7318324166896663 0.2464092021428697 0  0.7556692834288214 0.2405768623946249 0  0.7380197862996113 0.222757513996155 0  0.7625367470010325 0.2168546065499461 0  0.7800062843808764 0.23503545969081 0  0.7867475652000049 0.2102616145233107 0  0.7443520238271604 0.1989848217497849 0  0.7198765772885947 0.2049646631873951 0  0.805415565047007 0.2297303419326835 0  0.812397466725129 0.2034977719833236 0  0.7264006278892429 0.1805239752315304 0  0.7013048723636969 0.1868992074914045 0  0.8315784045412076 0.2233201199682379 0  0.8391965732818415 0.196931298252058 0  0.8194168208886099 0.1767759974309828 0  0.8236722582960971 0.2492280344220466 0  0.7083194031561342 0.1617573325704816 0  0.6826603597575899 0.1684607226967754 0  0.7315223313031605 0.1539050577697759 0  0.8472193676395841 0.1699700319398197 0  0.8502551616021591 0.2431521285221643 0  0.8422418816414469 0.2697387877012386 0  0.6898218022807054 0.142900369052996 0  0.6642732696656377 0.1499874147953687 0  0.6573070
[...]
<PointData  Tensors="$\sigma$"> 
<DataArray  type="Float64"  Name="$\sigma$"  NumberOfComponents="9" format="ascii">2.6912805290190171e+07 4.6569465518121915e+06 0.0000000000000000e+00 4.6569465518121915e+06 4.4331943747443384e+08 0.0000000000000000e+00 0.0000000000000000e+00 0.0000000000000000e+00 0.0000000000000000e+00  1.7959752854871913e+05 1.2878361464007397e+06 0.0000000000000000e+00 1.2878361464007397e+06 2.4741316246388158e+08 0.0000000000000000e+00 0.0000000000000000e+00 0.0000000000000000e+00 0.0000000000000000e+00  1.8161600752124866e+05 -7.5179585228231293e+05 0.0000000000000000e+00 -7.5179585228231293e+05 2.4723821937753490e+08 0.0000000000000000e+00 0.0000000000000000e+00 0.0000000000000000e+00 0.0000000000000000e+00  4.0502098923682916e+05 -4.3793865843554260e+05 0.0000000000000000e+00 -4.3793865843554260e+05 2.4806047574729365e+08 0.0000000000000000e+00 0.0000000000000000e+00 0.0000000000000000e+00 0.0000000000000000e+00  6.3246880551938622e+04 1.2586330344133466e+06 0.0000000000000000e+00 1.2586330344133466e+06 2.4693016182917956e+08 0.0000000000000000e+00 0.0000000000000000e+00 0.0000000000000000e+00 0.0000000000000000e+00  2.8970104761176459e+07 -3.0625472345690351e+07 0.0000000000000000e+00 -3.0625472345690351e+07 4.4198815525489116e+08 0.0000000000000000e+00 0.0000000000000000e+00 0.0000000000000000e+00 0.0000000000000000e+00  2.2597889751693930e+07 -6.6195271677650794e+07 0.0000000000000000e+00 -6.6195271677650794e+07 4.2092009345395309e+08 0.0000000000000000e+00 0.0000000000000000e+00 0.0000000000000000e+00 0.0000000000000000e+00  2.9044626125927977e+07 -9.1057704340941802e+07 0.0000000000000000e+00 -9.1057704340941802e+07 3.9311305728145593e+08 0.0000000000000000e+00 0.0000000000000000e+00 0.0000000000000000e+00 0.0000000000000000e+00  4.0990919061173871e+07 -1.0289518429040088e+08 0.0000000000000000e+00 -1.0289518429040088e+08 3.3721180901277733e+08 0.0000000000000000e+00 0.0000000000000000e+00 0.0000000000000000e+00 0.0000000000000000e+00  4.4686478819561467e+07 -1.0268519602543078e+08 0.0000000000000000e+00 -1.0268519602543078e+08 2.8524330585965645e+08 0.0000000000000000e+00 0.0000000000000000e+00 0.0000000000000000e+00 0.0000000000000000e+00  5.7129113721627630e+07 -1.0642314766779295e+08 0.0000000000000000e+00 -1.0642314766779295e+08 2.3273690178653598e+08 0.0000000000000000e+00 0.0000000000000000e+00 0.0000000000000000e+00 0.0000000000000000e+00  5.6367691021795951e+07 -9.0726235189204618e+07 0.0000000000000000e+00 -9.0726235189204618e+07 1.6801384989730608e+08 0.0000000000000000e+00 0.0000000000000000e+00 0.0000000000000000e+00 0.0000000000000000e+00  5.2893416408284925e+07 -7.3770025326905385e+07 0.0000000000000000e+00 -7.3770025326905385e+07 1.2094935338536783e+08 0.0000000000000000e+00 0.0000000000000000e+00 0.0000000000000000e+00 0.0000000000000000e+00  4.3483731379528515e+07 -5.5337034244107008e+07 0.0000000000000000e+00 -5.5337034244107008e+07 7.6535506111297980e+07 0.0000000000000000e+00 0.0000000000000000e+00 0.0000000000000000e+00 0.0000000000000000e+00  2.9497902738989960e+07 -3.6899050792032130e+07 0.0000000000000000e+00 -3.6899050792032130e+07 4.6760399861764371e+07 0.0000000000000000e+00 0.0000000000000000e+00 0.0000000000000000e+00 0.0000000000000000e+00  1.1070433487202480e+07 -1.4634608908058731e+07 0.0000000000000000e+00 -1.4634608908058731e+07 1.9576759317151286e+07 0.0000000000000000e+00 0.0000000000000000e+00 0.0000000000000000e+00 0.0000000000000000e+00  -6.6032008388924487e+06 1.7315518717162937e+05 0.0000000000000000e+00 1.7315518717162937e+05 4.7517396946720732e+06 0.0000000000000000e+00 0.0000000000000000e+00 0.0000000000000000e+00 0.0000000000000000e+00  -2.5471256935634099e+07 1.1020503633940471e+07 0.0000000000000000e+00 1.1020503633940471e+07 -4.9372130816899817e+06 0.0000000000000000e+00 0.0000000000000000e+00 0.0000000000000000e+00 0.0000000000000000e+00  -4.2235559594512969e+07 1.7826473109285008e+07 0.0000000000000000e+00 1.7826473109285008e+07 -8.1660306152259037e+06 0.0000000000000000e+00 0.0000000000000000e+00 0.0000000000000000e+00 0.0000000000000000e+00  -5.7005564044040792e+07 2.0576254690426260e+07 0.0000000000000000e+00 2.0576254690426260e+07 -8.8840018646573424e+06 0.0000000000000000e+00 0.0000000000000000e+00 0.0000000000000000e+00 0.0000000000000000e+00  -6.9887495137707129e+07 2.0352183003732923e+07 0.0000000000000000e+00 2.0352183003732923e+07 -7.5895542616309533e+06 0.0000000000000000e+00 0.0000000000000000e+00 0.0000000000000000e+00 0.0000000000000000e+00  -7.6181191143017456e+07 1.6049646090027979e+07 0.0000000000000000e+00 1.6049646090027979e+07 -4.8445946856389772e+06 0.0000000000000000e+00 0.0000000000000000e+00 0.0000000000000000e+00 0.0000000000000000e+00  -8.1934738987025917e+07 1.1666044424994206e+07 0.0000000000000000e+00 1.1666044424994206e+07 -4.6453453022354934e+06 0.0000000000000000e+00 0.0000000000000000e+00 0.0000000000000000e+00 0.0000000000000000e+00  -8.7186120019018888e+07 6.8122063214288903e+06 0.0000000000000000e+00 6.8122063214288903e+06 -1.0981175698391132e+06 0.0000000000000000e+00 0.0000000000000000e+00 0.0000000000000000e+00 0.0000000000000000e+00  -8.4085451199090496e+07 -1.4299615662801934e+06 0.0000000000000000e+00 -1.4299615662801934e+06 -2.7395332629813892e+06 0.0000000000000000e+00 0.0000000000000000e+00 0.0000000000000000e+00 0.0000000000000000e+00  -8.4701131337603614e+07 -9.4157831882964093e+06 0.0000000000000000e+00 -9.4157831882964093e+06 -1.6152103998624315e+06 0.0000000000000000e+00 0.0000000000000000e+00 0.0000000000000000e+00 0.0000000000000000e+00  -8.0648144758673355e+07 -1.3999872213751528e+07 0.0000000000000000e+00 -1.3999872213751528e+07 -4.0372846329496931e+06 0.0000000000000000e+00 0.0000000000000000e+00 0.0000000000000000e+00 0.0000000000000000e+00  -7.5336046097770154e+07 -1.9377704294066194e+07 0.0000000000000000e+00 -1.9377704294066194e+07 -5.5519386481708251e+06 0.0000000000000000e+00 0.0000000000000000e+00 0.0000000000000000e+00 0.0000000000000000e+00  -6.2467298206586055e+07 -1.9590120176571969e+07 0.0000000000000000e+00 -1.9590120176571969e+07 -7.8107337255066903e+06 0.0000000000000000e+00 0.0000000000000000e+00 0.0000000000000000e+00 0.0000000000000000e+00  -4.9971071932341136e+07 -2.0300251973762613e+07 0.0000000000000000e+00 -2.0300251973762613e+07 -9.5237383119167909e+06 0.0000000000000000e+00 0.0000000000000000e+00 0.0000000000000000e+00 0.0000000000000000e+00  -3.3140844563767295e+07 -1.5460249337387806e+07 0.0000000000000000e+00 -1.5460249337387806e+07 -7.6648082531465879e+06 0.0000000000000000e+00 0.0000000000000000e+00 0.0000000000000000e+00 0.0000000000000000e+00  -1.4827192690330805e+07 -5.7136469749316378e+06 0.0000000000000000e+00 -5.7136469749316378e+06 -2.0897471995640681e+06 0.0000000000000000e+00 0.0000000000000000e+00 0.0000000000000000e+00 0.0000000000000000e+00  4.3838581752836034e+06 7.5743065039387876e+06 0.0000000000000000e+00 7.5743065039387876e+06 1.1703676008105615e+07 0.0000000000000000e+00 0.0000000000000000e+00 0.0000000000000000e+00 0.0000000000000000e+00  2.1954218237800341e+07 2.3028758538048714e+07 0.0000000000000000e+00 2.3028758538048714e+07 2.7366080623460099e+07 0.0000000000000000e+00 0.0000000000000000e+00 0.0000000000000000e+00 0.0000000000000000e+00  3.8736487246952705e+07 4.4130086229546323e+07 0.0000000000000000e+00 4.4130086229546323e+07 5.9588928385933354e+07 0.0000000000000000e+00 0.0000000000000000e+00 0.0000000000000000e+00 0.0000000000000000e+00  4.6942925395094715e+07 6.2238800325991586e+07 0.0000000000000000e+00 6.2238800325991586e+07 9.4176266116187334e+07 0.0000000000000000e+00 0.0000000000000000e+00 0.0000000000000000e+00 0.0000000000000000e+00  5.6948773062071271e+07 8.6932349774674922e+07 0.0000000000000000e+00 8.6932349774674922e+07 1.4594211891025889e+08 0.0000000000000000e+00 0.0000000000000000e+00 0.0000000000000000e+00 0.0000000000000000e+00  5.4943915490154639e+07 9.6923792559400350e+07 0.0000000000000000e+00 9.6923792559400350e+07 1.9497720724005622e+08 0.0000000000000000e+00 0.0000000000000000e+00 0.0000000000000000e+00 0.0000000000000000e+00  5.2427267457579486e+07 1.0545029567222899e+08 0.0000000000000000e+00 1.0545029567222899e+08 2.5606634299021626e+08 0.0000000000000000e+00 0.0000000000000000e+00 0.0000000000000000e+00 0.0000000000000000e+00  4.2370976456112161e+07 1.0309561867934500e+08 0.0000000000000000e+00 1.0309561867934500e+08 3.0757809402488720e+08 0.0000000000000000e+00 0.0000000000000000e+00 0.0000000000000000e+00 0.0000000000000000e+00  3.4005181585545659e+07 1.0220990855578355e+08 0.0000000000000000e+00 1.0220990855578355e+08 3.7618078768452203e+08 0.0000000000000000e+00 0.0000000000000000e+00 0.0000000000000000e+00 0.0000000000000000e+00  2.2062398941272937e+07 7.3361873843242824e+07 0.0000000000000000e+00 7.3361873843242824e+07 4.1278497001876926e+08 0.0000000000000000e+00 0.0000000000000000e+00 0.0000000000000000e+00 0.0000000000000000e+00  2.1434322317109969e+07 5.3752446790659137e+07 0.0000000000000000e+00 5.3752446790659137e+07 4.2801473617608827e+08 0.0000000000000000e+00 0.0000000000000000e+00 0.0000000000000000e+00 0.0000000000000000e+00  2.7883229423526820e+07 1.8019078548120230e+07 0.0000000000000000e+00 1.8019078548120230e+07 4.3672430229330331e+08 0.0000000000000000e+00 0.0000000000000000e+00 0.0000000000000000e+00 0.0000000000000000e+00  2.6086997014551349e+07 -1.8447492881547537e+07 0.0000000000000000e+00 -1.8447492881547537e+07 4.3355010112828875e+08 0.0000000000000000e+00 0.0000000000000000e+00 0.0000000000000000e+00 0.0000000000000000e+00  2.4122681502059110e+07 -4.9604301194446974e+07 0.0000000000000000e+00 -4.9604301194446974e+07 4.2939955977410555e+08 0.0000000000000000e+00 0.0000000000000000e+00 0.0000000000000000e+00 0.0000000000000000e+00  2.4172149455629487e+07 -7.8975683292522728e+07 0.0000000000000000e+00 -7.8975683292522728e+07 4.0990906888891613e+08 0.0000000000000000e+00 0.0000000000000000e+00 0.0000000000000000e+00 0.0000000000000000e+00  3.2378361155000351e+07 -9.7623250202269629e+07 0.0000000000000000e+00 -9.7623250202269629e+07 3.6520633306245917e+08 0.0000000000000000e+00 0.0000000000000000e+00 0.0000000000000000e+00 0.0000000000000000e+00  4.2477424992075413e+07 -1.0452154874741644e+08 0.0000000000000000e+00 -1.0452154874741644e+08 3.1231467301302928e+08 0.0000000000000000e+00 0.0000000000000000e+00 0.0000000000000000e+00 0.0000000000000000e+00  5.2171388393326886e+07 -1.0421963099657997e+08 0.0000000000000000e+00 -1.0421963099657997e+08 2.5584955890114620e+08 0.0000000000000000e+00 0.0000000000000000e+00 0.0000000000000000e+00 0.0000000000000000e+00  5.6205436919710286e+07 -9.8599902377263933e+07 0.0000000000000000e+00 -9.8599902377263933e+07 1.9711781812808985e+08 0.0000000000000000e+00 0.0000000000000000e+00 0.0000000000000000e+00 0.0000000000000000e+00  5.5576453221759871e+07 -8.4906742798227176e+07 0.0000000000000000e+00 -8.4906742798227176e+07 1.4118668825214085e+08 0.0000000000000000e+00 0.0000000000000000e+00 0.0000000000000000e+00 0.0000000000000000e+00  4.8787931433316760e+07 -6.5934413588534124e+07 0.0000000000000000e+00 -6.5934413588534124e+07 9.5589967894454360e+07 0.0000000000000000e+00 0.0000000000000000e+00 0.0000000000000000e+00 0.0000000000000000e+00  3.7147048096020214e+07 -4.4804240906278357e+07 0.0000000000000000e+00 -4.4804240906278357e+07 5.8021786710373387e+07 0.0000000000000000e+00 0.0000000000000000e+00 0.0000000000000000e+00 0.0000000000000000e+00  2.1508058999267336e+07 -2.4903906357894927e+07 0.0000000000000000e+00 -2.4903906357894927e+07 3.0068777815306321e+07 0.0000000000000000e+00 0.0000000000000000e+00 0.0000000000000000e+00 0.0000000000000000e+00  3.8026309322821940e+06 -7.6119669723492516e+06 0.0000000000000000e+00 -7.6119669723492516e+06 1.0050048253816472e+07 0.0000000000000000e+00 0.0000000000000000e+00 0.0000000000000000e+00 0.0000000000000000e+00  -1.5765624108011512e+07 5.8726949755507931e+06 0.0000000000000000e+00 5.8726949755507931e+06 -1.2705871465064029e+06 0.0000000000000000e+00 0.0000000000000000e+00 0.0000000000000000e+00 0.0000000000000000e+00  -3.4310781978616677e+07 1.5170360362087052e+07 0.0000000000000000e+00 1.5170360362087052e+07 -6.9027033287988892e+06 0.0000000000000000e+00 0.0000000000000000e+00 0.0000000000000000e+00 0.0000000000000000e+00  -5.0347926000898130e+07 1.9842009283561908e+07 0.0000000000000000e+00 1.9842009283561908e+07 -8.5448872475241572e+06 0.0000000000000000e+00 0.0000000000000000e+00 0.0000000000000000e+00 0.0000000000000000e+00  -6.3819666454178818e+07 2.0726873754433405e+07 0.0000000000000000e+00 2.0726873754433405e+07 -8.0308432546017747e+06 0.0000000000000000e+00 0.0000000000000000e+00 0.0000000000000000e+00 0.0000000000000000e+00  -7.4379641162925392e+07 1.7995844667109028e+07 0.0000000000000000e+00 1.7995844667109028e+07 -5.9424055175602660e+06 0.0000000000000000e+00 0.0000000000000000e+00 0.0000000000000000e+00 0.0000000000000000e+00  -7.7513708546562612e+07 1.2631740827325223e+07 0.0000000000000000e+00 1.2631740827325223e+07 -3.7906985880652680e+06 0.0000000000000000e+00 0.0000000000000000e+00 0.0000000000000000e+00 0.0000000000000000e+00  -8.8125960987503067e+07 1.0748638818925356e+07 0.0000000000000000e+00 1.0748638818925356e+07 -1.1589946952500157e+06 0.0000000000000000e+00 0.0000000000000000e+00 0.0000000000000000e+00 0.0000000000000000e+00  -9.0094836216753885e+07 -2.3220283808157902e+05 0.0000000000000000e+00 -2.3220283808157902e+05 -7.9173241124477482e+05 0.0000000000000000e+00 0.0000000000000000e+00 0.0000000000000000e+00 0.0000000000000000e+00  -8.3247094614574224e+07 -5.4860974176299814e+06 0.0000000000000000e+00 -5.4860974176299814e+06 -1.8213581028601916e+06 0.0000000000000000e+00 0.0000000000000000e+00 0.0000000000000000e+00 0.0000000000000000e+00  -8.4814217173214674e+07 -9.6734760812282376e+06 0.0000000000000000e+00 -9.6734760812282376e+06 -2.1707414433061946e+06 0.0000000000000000e+00 0.0000000000000000e+00 0.0000000000000000e+00 0.0000000000000000e+00  -7.9167973550139382e+07 -1.8661974890604857e+07 0.0000000000000000e+00 -1.8661974890604857e+07 -5.0389536043741163e+06 0.0000000000000000e+00 0.0000000000000000e+00 0.0000000000000000e+00 0.0000000000000000e+00  -6.8335336830412969e+07 -1.7773300101648860e+07 0.0000000000000000e+00 -1.7773300101648860e+07 -6.1412268842644654e+06 0.0000000000000000e+00 0.0000000000000000e+00 0.0000000000000000e+00 0.0000000000000000e+00  -5.8313520596951574e+07 -1.8925080856135253e+07 0.0000000000000000e+00 -1.8925080856135253e+07 -5.2117781616304247e+06 0.0000000000000000e+00 0.0000000000000000e+00 0.0000000000000000e+00 0.0000000000000000e+00  -4.1574513665224493e+07 -1.4520627136322806e+07 0.0000000000000000e+00 -1.4520627136322806e+07 -6.5696337896180972e+06 0.0000000000000000e+00 0.0000000000000000e+00 0.0000000000000000e+00 0.0000000000000000e+00  -2.7892207329799414e+07 -1.1257846584897254e+07 0.0000000000000000e+00 -1.1257846584897254e+07 -4.6203821504799752e+06 0.0000000000000000e+00 0.0000000000000000e+00 0.0000000000000000e+00 0.0000000000000000e+00  -6.9740228722683350e+06 3.0399112485506589e+05 0.0000000000000000e+00 3.0399112485506589e+05 4.6391927596410643e+06 0.0000000000000000e+00 0.0000000000000000e+00 0.0000000000000000e+00 0.0000000000000000e+00  1.2739883960134387e+07 1.5976518177825287e+07 0.0000000000000000e+00 1.5976518177825287e+07 1.9797037823848531e+07 0.0000000000000000e+00 0.0000000000000000e+00 0.0000000000000000e+00 0.0000000000000000e+00  2.9714684717565011e+07 3.4563160074850790e+07 0.0000000000000000e+00 3.4563160074850790e+07 4.2991034704315394e+07 0.0000000000000000e+00 0.0000000000000000e+00 0.0000000000000000e+00 0.0000000000000000e+00  4.3924808507114202e+07 5.5750162334791481e+07 0.0000000000000000e+00 5.5750162334791481e+07 7.6343972006880581e+07 0.0000000000000000e+00 0.0000000000000000e+00 0.0000000000000000e+00 0.0000000000000000e+00  5.2337666275840156e+07 7.4647607528804094e+07 0.0000000000000000e+00 7.4647607528804094e+07 1.1900542975614150e+08 0.0000000000000000e+00 0.0000000000000000e+00 0.0000000000000000e+00 0.0000000000000000e+00  5.4769664665329672e+07 9.0936953494801074e+07 0.0000000000000000e+00 9.0936953494801074e+07 1.6376031953876072e+08 0.0000000000000000e+00 0.0000000000000000e+00 0.0000000000000000e+00 0.0000000000000000e+00  5.6101644074480727e+07 1.0898175971566997e+08 0.0000000000000000e+00 1.0898175971566997e+08 2.3331003213510057e+08 0.0000000000000000e+00 0.0000000000000000e+00 0.0000000000000000e+00 0.0000000000000000e+00  4.5442927346904211e+07 1.0441775231196158e+08 0.0000000000000000e+00 1.0441775231196158e+08 2.8601936347009510e+08 0.0000000000000000e+00 0.0000000000000000e+00 0.0000000000000000e+00 0.0000000000000000e+00  4.0147630017780006e+07 1.0319476477697195e+08 0.0000000000000000e+00 1.0319476477697195e+08 3.3823495980569911e+08 0.0000000000000000e+00 0.0000000000000000e+00 0.0000000000000000e+00 0.0000000000000000e+00  2.7426383636398960e+07 8.8689395644412503e+07 0.0000000000000000e+00 8.8689395644412503e+07 3.9180471621215212e+08 0.0000000000000000e+00 0.0000000000000000e+00 0.0000000000000000e+00 0.0000000000000000e+00  2.5711212351389140e+07 6.3386289350435726e+07 0.0000000000000000e+00 6.3386289350435726e+07 4.2659463173540729e+08 0.0000000000000000e+00 0.0000000000000000e+00 0.0000000000000000e+00 0.0000000000000000e+00  2.5276203421244219e+07 3.0083892206230827e+07 0.0000000000000000e+00 3.0083892206230827e+07 4.3975915343853426e+08 0.0000000000000000e+00 0.0000000000000000e+00 0.0000000000000000e+00 0.0000000000000000e+00  2.3075516521473401e+05 1.1742488789665813e+06 0.0000000000000000e+00 1.1742488789665813e+06 2.2862277842921835e+08 0.0000000000000000e+00 0.0000000000000000e+00 0.0000000000000000e+00 0.0000000000000000e+00  -1.1938743016730202e+06 1.4580500172357908e+06 0.0000000000000000e+00 1.4580500172357908e+06 2.1560202584353000e+08 0.0000000000000000e+00 0.0000000000000000e+00 0.0000000000000000e+00 0.0000000000000000e+00  -1.2552190832754651e+06 9.2912289546281111e+05 0.0000000000000000e+00 9.2912289546281111e+05 1.9499660773438135e+08 0.0000000000000000e+00 0.0000000000000000e+00 0.0000000000000000e+00 0.0000000000000000e+00  -2.7658503350922070e+06 9.3080331235854537e+05 0.0000000000000000e+00 9.3080331235854537e+05 1.8339217717939156e+08 0.0000000000000000e+00 0.0000000000000000e+00 0.0000000000000000e+00 0.0000000000000000e+00  -1.5941273176542332e+06 8.1572535437328799e+05 0.0000000000000000e+00 8.1572535437328799e+05 1.6402577867964673e+08 0.0000000000000000e+00 0.0000000000000000e+00 0.0000000000000000e+00 0.0000000000000000e+00  -2.1757837028410644e+05 1.2412576780051508e+06 0.0000000000000000e+00 1.2412576780051508e+06 1.4377884966075420e+08 0.0000000000000000e+00 0.0000000000000000e+00 0.0000000000000000e+00 0.0000000000000000e+00  1.6715362424671606e+06 7.6560055667116994e+05 0.0000000000000000e+00 7.6560055667116994e+05 1.2579522796386191e+08 0.0000000000000000e+00 0.0000000000000000e+00 0.0000000000000000e+00 0.0000000000000000e+00  4.5329263959759166e+06 3.2584191068120935e+05 0.0000000000000000e+00 3.2584191068120935e+05 1.0712223154532228e+08 0.0000000000000000e+00 0.0000000000000000e+00 0.0000000000000000e+00 0.0000000000000000e+00  9.2607451301772129e+06 5.2254611976752314e+05 0.0000000000000000e+00 5.2254611976752314e+05 8.7774842799345329e+07 0.0000000000000000e+00 0.0000000000000000e+00 0.0000000000000000e+00 0.0000000000000000e+00  1.3427734497382138e+07 3.4941189843297785e+05 0.0000000000000000e+00 3.4941189843297785e+05 6.7603016492660224e+07 0.0000000000000000e+00 0.0000000000000000e+00 0.0000000000000000e+00 0.0000000000000000e+00  1.8917425823043212e+07 3.7219779623757018e+05 0.0000000000000000e+00 3.7219779623757018e+05 5.1108196472999528e+07 0.0000000000000000e+00 0.0000000000000000e+00 0.0000000000000000e+00 0.0000000000000000e+00  2.2928004058946975e+07 2.8955332979544770e+05 0.0000000000000000e+00 2.8955332979544770e+05 3.4118835006278791e+07 0.0000000000000000e+00 0.0000000000000000e+00 0.0000000000000000e+00