<?xml version="1.0"?>
<VTKFile type="UnstructuredGrid"  version="0.1"  >
<UnstructuredGrid>
<Piece  NumberOfPoints="1117" NumberOfCells="2086">
<Points>
<DataArray  type="Float64"  NumberOfComponents="3"  format="ascii">0.4414213645594895 0.4609475791470533 0  0.4423976669666869 0.461948923397436 0  0.4414213645594843 0.5390524208529519 0  0.4423976669666869 0.5380510766025641 0  0.4424142169837043 0.5380761184457472 0  0.5575857830162958 0.5380761184457473 0  0.5576023330333121 0.5380510766025632 0  0.5585786354405149 0.5390524208529512 0  0.6528595479208968 0.5 0  0.5585786354318349 0.4609475791557289 0  0.5576023330333121 0.4619489233974368 0  0.5575857830162965 0.4619238815542518 0  0.4424142169837042 0.4619238815542528 0  0 0 0  1 0 0  0 1 0  1 1 0  0.4023689349084031 0.5552284749830788 0  0.3633165006611123 0.5390524319491835 0  0.3471404520791032 0.4999999999999964 0  0.3633165006611174 0.4609475680508113 0  0.4023689349084104 0.4447715250169212 0  0.4790074066203539 0.5174922806250478 0  0.5209925933796462 0.5174922806250478 0  0.6482445789536755 0.5221010736784286 0  0.6296977621611334 0.5449656745886448 0  0.5938572494489774 0.5550993893362867 0  0.5938572494397981 0.4449006106643421 0  0.6296977621568332 0.4550343254082885 0  0.6482445789528691 0.4778989263197247 0  0.520992593379647 0.482507719374952 0  0.4790074066203542 0.4825077193749523 0  0.03333333333333333 0 0  0.06666666666666667 0 0  0.1 0 0  0.1333333333333333 0 0  0.1666666666666667 0 0  0.2 0 0  0.2333333333333333 0 0  0.2666666666666667 0 0  0.3 0 0  0.3333333333333333 0 0  0.3666666666666666 0 0  0.4 0 0  0.4333333333333333 0 0  0.4666666666666667 0 0  0.5 0 0  0.5333333333333333 0 0  0.5666666666666667 0 0  0.6 0 0  0.6333333333333333 0 0  0.6666666666666666 0 0  0.7 0 0  0.7333333333333333 0 0  0.7666666666666667 0 0  0.8 0 0  0.8333333333333334 0 0  0.8666666666666667 0 0  0.9 0 0  0.9333333333333333 0 0  0.9666666666666667 0 0  0 0.9666666666666667 0  0 0.9333333333333333 0  0 0.9 0  0 0.8666666666666667 0  0 0.8333333333333334 0  0 0.8 0  0 0.7666666666666666 0  0 0.7333333333333334 0  0 0.7 0  0 0.6666666666666667 0  0 0.6333333333333333 0  0 0.6 0  0 0.5666666666666667 0  0 0.5333333333333333 0  0 0.5 0  0 0.4666666666666667 0  0 0.4333333333333333 0  0 0.4 0  0 0.3666666666666667 0  0 0.3333333333333334 0  0 0.3 0  0 0.2666666666666667 0  0 0.2333333333333333 0  0 0.2 0  0 0.1666666666666666 0  0 0.1333333333333333 0  0 0.09999999999999998 0  0 0.06666666666666665 0  0 0.03333333333333333 0  1 0.03333333333333333 0  1 0.06666666666666667 0  1 0.1 0  1 0.1333333333333333 0  1 0.1666666666666667 0  1 0.2 0  1 0.2333333333333333 0  1 0.2666666666666667 0  1 0.3 0  1 0.3333333333333333 0  1 0.3666666666666666 0  1 0.4 0  1 0.4333333333333333 0  1 0.4666666666666667 0  1 0.5 0  1 0.5333333333333333 0  1 0.5666666666666667 0  1 0.6 0  1 0.6333333333333333 0  1 0.6666666666666666 0  1 0.7 0  1 0.7333333333333333 0  1 0.7666666666666667 0  1 0.8 0  1 0.8333333333333334 0  1 0.8666666666666667 0  1 0.9 0  1 0.9333333333333333 0  1 0.9666666666666667 0  0.9666666666666667 1 0  0.9333333333333333 1 0  0.9 1 0  0.8666666666666667 1 0  0.8333333333333334 1 0  0.8 1 0  0.7666666666666666 1 0  0.7333333333333334 1 0  0.7 1 0  0.6666666666666667 1 0  0.6333333333333333 1 0  0.6 1 0  0.5666666666666667 1 0  0.5333333333333333 1 0  0.5 1 0  0.4666666666666667 1 0  0.4333333333333333 1 0  0.4 1 0  0.3666666666666667 1 0  0.3333333333333334 1 0  0.3 1 0  0.2666666666666667 1 0  0.2333333333333333 1 0  0.2 1 0  0.1666666666666666 1 0  0.1333333333333333 1 0  0.09999999999999998 1 0  0.06666666666666665 1 0  0.03333333333333333 1 0  0.7499296783790955 0.9711954725581176 0  0.7498612304423043 0.02874278636339511 0  0.9699663936755546 0.7187716497703871 0  0.9711595172227296 0.283570356022845 0  0.6699340316400471 0.5150395366665835 0  0.2530846134268988 0.9713442945296022 0  0.2535584989471099 0.02849963141959844 0  0.02951223110466639 0.7489451097198393 0  0.0290493494436086 0.2513194253447437 0  0.5131737930350795 0.9719556001127178 0  0.5136282300001835 0.02789975365398578 0  0.3833333333333333 0.0288675134594813 0  0.3835998165437433 0.9741063255369958 0  0.9715203671516897 0.6192086829401476 0  0.971071903357122 0.417898009587407 0  0.4324018050912054 0.5725057450360204 0  0.4324018050912151 0.4274942549639836 0  0.4021479377034154 0.5949687871890142 0  0.3953772179458447 0.4017516195725555 0  0.972205465348677 0.5155903446893069 0  0.6500952321565481 0.9716975145536593 0  0.6502648059561831 0.02833956506306706 0  0.02560503336761299 0.6477975324348171 0  0.02814863485006752 0.3508275585470166 0  0.4422734308153842 0.6156546319927955 0  0.4413511169020803 0.384112040351037 0  0.9757366855860055 0.8151398058391919 0  0.968630737715241 0.1798318404174898 0  0.4047288144544852 0.6360114862655286 0  0.4032852857982041 0.362302765642899 0  0.4384494339351366 0.6536204150007893 0  0.4384494339354572 0.3463795849985608 0  0.02465452762178066 0.5570417271521838 0  0.0288675134594813 0.45 0  0.4054818065324768 0.6756888126611655 0  0.3651891711787608 0.6536790381689421 0  0.4052412184231755 0.3240302293228151 0  0.3706974756630272 0.3393814414586152 0  0.1501635775394839 0.02937474176193977 0  0.03097535162985593 0.8497553407345619 0  0.4407221408794862 0.6929302604622991 0  0.4406820428616635 0.3070229132007768 0  0.371752005115254 0.6968464271510311 0  0.33694338973942 0.6807818183694352 0  0.3726299560738913 0.3019501561457638 0  0.3374203153452654 0.3185985896621343 0  0.3400451405383357 0.7191292495718359 0  0.3055547572760254 0.7028409508876763 0  0.3402709515284826 0.2805669120110384 0  0.3055517902937264 0.2972176790773329 0  0.8499398521290348 0.9713256639974694 0  0.8502382298683392 0.02864842103449144 0  0.3214772484943942 0.4670223614267766 0  0.3050962189658934 0.5039336448196736 0  0.281050513066338 0.4723002103899864 0  0.2653877781560736 0.5077133075614019 0  0.3076721667096222 0.7393550022195763 0  0.2744101074566255 0.724305955882584 0  0.3077690184046826 0.2605153117468116 0  0.2744772216219568 0.2758660101454568 0  0.1543547414487978 0.9725438627357195 0  0.03097934493406773 0.1502460505786385 0  0.3420147148964167 0.7578447324569775 0  0.3391351433503892 0.2442643282397392 0  0.2769407414087519 0.7609242991868228 0  0.2769797456788633 0.2390300990325933 0  0.2440483032507751 0.7454985080946936 0  0.2404870382649528 0.7097612463704549 0  0.2440991943474704 0.2545935414530156 0  0.2418886794278911 0.2903222861919836 0  0.2416645883307226 0.477675555243 0  0.226603273280054 0.5140486580254605 0  0.246112182611209 0.7807710413971094 0  0.246189965306826 0.2191432873923801 0  0.2140701675329212 0.7662588601147104 0  0.2140701675323782 0.233741139883973 0  0.4727142529777045 0.6738804842114899 0  0.6189547770738471 0.5771174040309807 0  0.4756736017495124 0.7102016264269346 0  0.507259487730615 0.690294848799869 0  0.5090191757590922 0.7262796916719311 0  0.5394851916875703 0.7064232166791123 0  0.5417908330785099 0.740881409457115 0  0.5707916822554612 0.7224138376428006 0  0.5730610641440538 0.7564729041140148 0  0.6016693984018268 0.738072868212585 0  0.5111868904655469 0.7586372044917323 0  0.6040137716685801 0.7715533093545662 0  0.6323317564420273 0.7534723032200003 0  0.6343315682279427 0.7874799891651096 0  0.6626286303885094 0.7687455083076005 0  0.6607733433092258 0.7352229942505899 0  0.6905064147658717 0.750263520158713 0  0.6886667190355475 0.71730856727313 0  0.7178472892570036 0.7321260123840809 0  0.7160790678285645 0.6998166856639836 0  0.7446709752656366 0.7142276377900687 0  0.7431809162950209 0.68242858735685 0  0.7467521927376026 0.7463897542191622 0  0.7711334484195759 0.6967496330671115 0  0.769620079168991 0.6652715605830211 0  0.7974536732464934 0.6796344350648432 0  0.7957007525160665 0.6483954766325308 0  0.6642185356733752 0.8018717835540006 0  0.7683036443121979 0.6342798549508979 0  0.7937948696285022 0.6179102095468205 0  0.6038379385024495 0.8034816121864187 0  0.4727183293301014 0.3262417650511142 0  0.6178827848031715 0.4224846716159957 0  0.4756736017504268 0.2897983735716723 0  0.5072300182053477 0.3097751212571572 0  0.5090142641730647 0.2737319700025087 0  0.5394419640843658 0.2937525839343853 0  0.5417757889323158 0.2591356219138241 0  0.5707271818376141 0.2778508165917794 0  0.5730519798280723 0.2435356188224034 0  0.6018251854968295 0.2620504116361704 0  0.5125477933595396 0.2404517829660507 0  0.604033573140093 0.2284593094595802 0  0.6325290724209922 0.2466280968770622 0  0.6343227544607376 0.212466238091333 0  0.6627358060004086 0.2311681994553391 0  0.6610272389969466 0.2649744490471512 0  0.6907527327366978 0.2497484390965797 0  0.688895253224757 0.2832044497987219 0  0.7182347980644166 0.2680567295352417 0  0.7163912084820878 0.3006600354242692 0  0.7452130068571439 0.2861198426390958 0  0.7437487067265433 0.3181767497900639 0  0.7474630016281243 0.2536192192718093 0  0.7719137880420697 0.3037479093136586 0  0.7704186959916168 0.3354356992415453 0  0.798377954293931 0.3210041866336019 0  0.7966133166674308 0.3522950769448151 0  0.7691653505272289 0.3665556214723627 0  0.7947519321215679 0.3829336145475686 0  0.664251271605026 0.1978868745231891 0  0.7683743805298187 0.3967733315826619 0  0.7930703858267792 0.4129028651529393 0  0.6041281044842585 0.1964093598366594 0  0.2168575626880417 0.8018993342362054 0  0.2163862238351235 0.1987298198613157 0  0.8247628576609859 0.3382031669807563 0  0.8265570902651359 0.3066422312000689 0  0.8237322083210692 0.662553753135847 0  0.8255404047743478 0.6939665199225137 0  0.766222998638193 0.4267701537082812 0  0.7911692021640533 0.4433071364007832 0  0.8181760251226797 0.4291241906032678 0  0.8164148111577655 0.4594344988786945 0  0.7892583537819431 0.4728743938441128 0  0.8143480217352066 0.4893217350861555 0  0.2456376730464395 0.8177511843200915 0  0.2449632236132316 0.1834650320980488 0  0.7666508551635386 0.6040602140177256 0  0.2031076330218832 0.4
[...]
<PointData  Tensors="$\sigma$"> 
<DataArray  type="Float64"  Name="$\sigma$"  NumberOfComponents="9" format="ascii">-1.8029915040748087e+08 -5.7282146658979833e+07 0.0000000000000000e+00 -5.7282146658979833e+07 -1.4595253344247701e+07 0.0000000000000000e+00 0.0000000000000000e+00 0.0000000000000000e+00 0.0000000000000000e+00  2.8228926231281485e+07 -1.1696069788457263e+08 0.0000000000000000e+00 -1.1696069788457263e+08 -1.6796950825930136e+08 0.0000000000000000e+00 0.0000000000000000e+00 0.0000000000000000e+00 0.0000000000000000e+00  -1.8281707558196542e+08 5.6240213405096456e+07 0.0000000000000000e+00 5.6240213405096456e+07 -2.4760320707530607e+07 0.0000000000000000e+00 0.0000000000000000e+00 0.0000000000000000e+00 0.0000000000000000e+00  3.2211936111940589e+07 1.2227913369985004e+08 0.0000000000000000e+00 1.2227913369985004e+08 -1.6925299560187355e+08 0.0000000000000000e+00 0.0000000000000000e+00 0.0000000000000000e+00 0.0000000000000000e+00  -1.1119218998371668e+08 3.0321218652171090e+07 0.0000000000000000e+00 3.0321218652171090e+07 3.3246283095884877e+06 0.0000000000000000e+00 0.0000000000000000e+00 0.0000000000000000e+00 0.0000000000000000e+00  -8.8911861547866672e+07 -3.1388447403460290e+07 0.0000000000000000e+00 -3.1388447403460290e+07 -6.4028670947054233e+06 0.0000000000000000e+00 0.0000000000000000e+00 0.0000000000000000e+00 0.0000000000000000e+00  3.2205492881618924e+07 -7.5321997677737534e+07 0.0000000000000000e+00 -7.5321997677737534e+07 -1.3448306348990548e+08 0.0000000000000000e+00 0.0000000000000000e+00 0.0000000000000000e+00 0.0000000000000000e+00  -1.6832794433276710e+08 -8.2092003653376251e+07 0.0000000000000000e+00 -8.2092003653376251e+07 -2.6238056992905743e+07 0.0000000000000000e+00 0.0000000000000000e+00 0.0000000000000000e+00 0.0000000000000000e+00  1.5535022483590299e+08 -1.1505110751770347e+07 0.0000000000000000e+00 -1.1505110751770347e+07 5.6259807135631764e+08 0.0000000000000000e+00 0.0000000000000000e+00 0.0000000000000000e+00 0.0000000000000000e+00  -1.5242143620070130e+08 7.5757876924888566e+07 0.0000000000000000e+00 7.5757876924888566e+07 -3.2369094709587827e+07 0.0000000000000000e+00 0.0000000000000000e+00 0.0000000000000000e+00 0.0000000000000000e+00  2.7640036732112817e+07 8.0733995070585161e+07 0.0000000000000000e+00 8.0733995070585161e+07 -1.2725961651421526e+08 0.0000000000000000e+00 0.0000000000000000e+00 0.0000000000000000e+00 0.0000000000000000e+00  -1.0564437449136142e+08 3.6318839354036726e+07 0.0000000000000000e+00 3.6318839354036726e+07 -1.4843191224072760e+07 0.0000000000000000e+00 0.0000000000000000e+00 0.0000000000000000e+00 0.0000000000000000e+00  -1.0040837803257951e+08 -2.8876972873128157e+07 0.0000000000000000e+00 -2.8876972873128157e+07 -1.0864025807245008e+06 0.0000000000000000e+00 0.0000000000000000e+00 0.0000000000000000e+00 0.0000000000000000e+00  9.6437178553776204e+04 3.5766452733167610e+05 0.0000000000000000e+00 3.5766452733167610e+05 2.1440544074006659e+08 0.0000000000000000e+00 0.0000000000000000e+00 0.0000000000000000e+00 0.0000000000000000e+00  1.0519013325098822e+05 -1.7948133139914970e+05 0.0000000000000000e+00 -1.7948133139914970e+05 2.1416204462996766e+08 0.0000000000000000e+00 0.0000000000000000e+00 0.0000000000000000e+00 0.0000000000000000e+00  4.6931435963030381e+04 -2.3707437451318064e+05 0.0000000000000000e+00 -2.3707437451318064e+05 2.1432521972212911e+08 0.0000000000000000e+00 0.0000000000000000e+00 0.0000000000000000e+00 0.0000000000000000e+00  1.0459284970449252e+05 1.8166890057838534e+05 0.0000000000000000e+00 1.8166890057838534e+05 2.1418222626644257e+08 0.0000000000000000e+00 0.0000000000000000e+00 0.0000000000000000e+00 0.0000000000000000e+00  -9.3711363931240320e+07 6.4738023999655209e+07 0.0000000000000000e+00 6.4738023999655209e+07 2.6635942305891765e+06 0.0000000000000000e+00 0.0000000000000000e+00 0.0000000000000000e+00 0.0000000000000000e+00  1.9930967392346181e+07 1.2224856192801903e+08 0.0000000000000000e+00 1.2224856192801903e+08 3.2095100167664015e+08 0.0000000000000000e+00 0.0000000000000000e+00 0.0000000000000000e+00 0.0000000000000000e+00  1.4325188986443862e+08 5.2267358366924134e+05 0.0000000000000000e+00 5.2267358366924134e+05 5.7968424730696750e+08 0.0000000000000000e+00 0.0000000000000000e+00 0.0000000000000000e+00 0.0000000000000000e+00  3.1678631360644925e+07 -1.1749070464829390e+08 0.0000000000000000e+00 -1.1749070464829390e+08 3.4071330401641476e+08 0.0000000000000000e+00 0.0000000000000000e+00 0.0000000000000000e+00 0.0000000000000000e+00  -9.4423787763931870e+07 -6.6529902216610983e+07 0.0000000000000000e+00 -6.6529902216610983e+07 2.4598551539813532e+06 0.0000000000000000e+00 0.0000000000000000e+00 0.0000000000000000e+00 0.0000000000000000e+00  -6.7222718092387229e+07 2.0427801275270421e+07 0.0000000000000000e+00 2.0427801275270421e+07 -4.1068721333811702e+06 0.0000000000000000e+00 0.0000000000000000e+00 0.0000000000000000e+00 0.0000000000000000e+00  -5.3201032069043167e+07 -1.9390984798826035e+07 0.0000000000000000e+00 -1.9390984798826035e+07 3.9240690034425992e+05 0.0000000000000000e+00 0.0000000000000000e+00 0.0000000000000000e+00 0.0000000000000000e+00  1.2193442447435749e+08 -1.4724245332818833e+08 0.0000000000000000e+00 -1.4724245332818833e+08 4.6887133969092023e+08 0.0000000000000000e+00 0.0000000000000000e+00 0.0000000000000000e+00 0.0000000000000000e+00  -2.9175737245289395e+06 -9.7762261765035897e+07 0.0000000000000000e+00 -9.7762261765035897e+07 1.3007769764136010e+08 0.0000000000000000e+00 0.0000000000000000e+00 0.0000000000000000e+00 0.0000000000000000e+00  -1.3679828181451431e+08 -3.5737548377842143e+07 0.0000000000000000e+00 -3.5737548377842143e+07 -1.0408134206179656e+07 0.0000000000000000e+00 0.0000000000000000e+00 0.0000000000000000e+00 0.0000000000000000e+00  -1.2703275785706301e+08 3.9216899634838469e+07 0.0000000000000000e+00 3.9216899634838469e+07 -1.8538928764082201e+07 0.0000000000000000e+00 0.0000000000000000e+00 0.0000000000000000e+00 0.0000000000000000e+00  3.2387236828738987e+06 9.9452219495528281e+07 0.0000000000000000e+00 9.9452219495528281e+07 1.3779183138849193e+08 0.0000000000000000e+00 0.0000000000000000e+00 0.0000000000000000e+00 0.0000000000000000e+00  1.2617782888365537e+08 1.4075112878525007e+08 0.0000000000000000e+00 1.4075112878525007e+08 4.7011074944021916e+08 0.0000000000000000e+00 0.0000000000000000e+00 0.0000000000000000e+00 0.0000000000000000e+00  -5.5973016397216447e+07 2.0230890800128318e+07 0.0000000000000000e+00 2.0230890800128318e+07 -6.6583672639514180e+06 0.0000000000000000e+00 0.0000000000000000e+00 0.0000000000000000e+00 0.0000000000000000e+00  -7.5128386992646933e+07 -1.3388343846387297e+07 0.0000000000000000e+00 -1.3388343846387297e+07 2.7433647317198664e+06 0.0000000000000000e+00 0.0000000000000000e+00 0.0000000000000000e+00 0.0000000000000000e+00  9.2347181409725556e+04 4.0471669076784450e+05 0.0000000000000000e+00 4.0471669076784450e+05 2.0896801375634456e+08 0.0000000000000000e+00 0.0000000000000000e+00 0.0000000000000000e+00 0.0000000000000000e+00  3.7856602946749837e+04 3.0062943155319587e+05 0.0000000000000000e+00 3.0062943155319587e+05 2.0447540221021467e+08 0.0000000000000000e+00 0.0000000000000000e+00 0.0000000000000000e+00 0.0000000000000000e+00  2.5899603833753653e+05 3.0813646469514503e+05 0.0000000000000000e+00 3.0813646469514503e+05 1.9874585068524995e+08 0.0000000000000000e+00 0.0000000000000000e+00 0.0000000000000000e+00 0.0000000000000000e+00  6.3485352693589032e+05 3.7988233090543095e+05 0.0000000000000000e+00 3.7988233090543095e+05 1.9324837950125596e+08 0.0000000000000000e+00 0.0000000000000000e+00 0.0000000000000000e+00 0.0000000000000000e+00  1.3966011068120115e+06 3.4628797088327637e+05 0.0000000000000000e+00 3.4628797088327637e+05 1.8667449217091179e+08 0.0000000000000000e+00 0.0000000000000000e+00 0.0000000000000000e+00 0.0000000000000000e+00  2.6597800321572912e+06 2.0546950048973344e+05 0.0000000000000000e+00 2.0546950048973344e+05 1.8089791800294209e+08 0.0000000000000000e+00 0.0000000000000000e+00 0.0000000000000000e+00 0.0000000000000000e+00  4.3791010250612525e+06 1.6480618327650797e+05 0.0000000000000000e+00 1.6480618327650797e+05 1.7353358975984627e+08 0.0000000000000000e+00 0.0000000000000000e+00 0.0000000000000000e+00 0.0000000000000000e+00  6.4626125181877352e+06 -5.0794373302330161e+04 0.0000000000000000e+00 -5.0794373302330161e+04 1.6641644117035246e+08 0.0000000000000000e+00 0.0000000000000000e+00 0.0000000000000000e+00 0.0000000000000000e+00  9.3662093249295522e+06 -1.0209539932775316e+05 0.0000000000000000e+00 -1.0209539932775316e+05 1.5881627689870653e+08 0.0000000000000000e+00 0.0000000000000000e+00 0.0000000000000000e+00 0.0000000000000000e+00  1.2275453400401000e+07 -1.3944882899990323e+05 0.0000000000000000e+00 -1.3944882899990323e+05 1.5145545279542014e+08 0.0000000000000000e+00 0.0000000000000000e+00 0.0000000000000000e+00 0.0000000000000000e+00  1.5392780756901318e+07 -1.5621536545133102e+05 0.0000000000000000e+00 -1.5621536545133102e+05 1.4427473957949913e+08 0.0000000000000000e+00 0.0000000000000000e+00 0.0000000000000000e+00 0.0000000000000000e+00  1.8324647373392310e+07 -1.3251859602621346e+05 0.0000000000000000e+00 -1.3251859602621346e+05 1.3804196127713838e+08 0.0000000000000000e+00 0.0000000000000000e+00 0.0000000000000000e+00 0.0000000000000000e+00  2.0506569109127697e+07 -1.3775026729083224e+05 0.0000000000000000e+00 -1.3775026729083224e+05 1.3308277368508430e+08 0.0000000000000000e+00 0.0000000000000000e+00 0.0000000000000000e+00 0.0000000000000000e+00  2.2162378647926755e+07 -4.8702074584491318e+04 0.0000000000000000e+00 -4.8702074584491318e+04 1.2990349260665032e+08 0.0000000000000000e+00 0.0000000000000000e+00 0.0000000000000000e+00 0.0000000000000000e+00  2.2714524084492769e+07 -6.9187773056931464e+03 0.0000000000000000e+00 -6.9187773056931464e+03 1.2861064525355448e+08 0.0000000000000000e+00 0.0000000000000000e+00 0.0000000000000000e+00 0.0000000000000000e+00  2.2491445744159929e+07 -2.4096250682767091e+04 0.0000000000000000e+00 -2.4096250682767091e+04 1.2959987512349483e+08 0.0000000000000000e+00 0.0000000000000000e+00 0.0000000000000000e+00 0.0000000000000000e+00  2.0766354143695153e+07 1.5915294900644125e+05 0.0000000000000000e+00 1.5915294900644125e+05 1.3222671723403654e+08 0.0000000000000000e+00 0.0000000000000000e+00 0.0000000000000000e+00 0.0000000000000000e+00  1.8746290451598611e+07 1.0634314871052858e+05 0.0000000000000000e+00 1.0634314871052858e+05 1.3735921045647576e+08 0.0000000000000000e+00 0.0000000000000000e+00 0.0000000000000000e+00 0.0000000000000000e+00  1.5971217246167637e+07 1.6863016059918472e+05 0.0000000000000000e+00 1.6863016059918472e+05 1.4328165720813477e+08 0.0000000000000000e+00 0.0000000000000000e+00 0.0000000000000000e+00 0.0000000000000000e+00  1.2900510090538530e+07 1.0978020941523337e+05 0.0000000000000000e+00 1.0978020941523337e+05 1.5030603269637695e+08 0.0000000000000000e+00 0.0000000000000000e+00 0.0000000000000000e+00 0.0000000000000000e+00  9.9542629445636887e+06 6.7136375400134115e+04 0.0000000000000000e+00 6.7136375400134115e+04 1.5803523088408357e+08 0.0000000000000000e+00 0.0000000000000000e+00 0.0000000000000000e+00 0.0000000000000000e+00  7.1010111303119641e+06 -2.2729210481406135e+04 0.0000000000000000e+00 -2.2729210481406135e+04 1.6557760088871449e+08 0.0000000000000000e+00 0.0000000000000000e+00 0.0000000000000000e+00 0.0000000000000000e+00  4.8392746066770181e+06 -6.2786229738445814e+04 0.0000000000000000e+00 -6.2786229738445814e+04 1.7286855088587180e+08 0.0000000000000000e+00 0.0000000000000000e+00 0.0000000000000000e+00 0.0000000000000000e+00  2.8668591583327763e+06 -1.0606334336825174e+05 0.0000000000000000e+00 -1.0606334336825174e+05 1.8005060836557677e+08 0.0000000000000000e+00 0.0000000000000000e+00 0.0000000000000000e+00 0.0000000000000000e+00  1.7560753470774568e+06 -2.1429728461041639e+05 0.0000000000000000e+00 -2.1429728461041639e+05 1.8675310017308536e+08 0.0000000000000000e+00 0.0000000000000000e+00 0.0000000000000000e+00 0.0000000000000000e+00  8.0665846765419340e+05 -2.4324338903797205e+05 0.0000000000000000e+00 -2.4324338903797205e+05 1.9274031419426191e+08 0.0000000000000000e+00 0.0000000000000000e+00 0.0000000000000000e+00 0.0000000000000000e+00  6.9946512723059044e+05 -2.9167234514691791e+05 0.0000000000000000e+00 -2.9167234514691791e+05 1.9847112902883616e+08 0.0000000000000000e+00 0.0000000000000000e+00 0.0000000000000000e+00 0.0000000000000000e+00  -1.7229974031446231e+05 -4.7412242501789260e+04 0.0000000000000000e+00 -4.7412242501789260e+04 2.0394471001271930e+08 0.0000000000000000e+00 0.0000000000000000e+00 0.0000000000000000e+00 0.0000000000000000e+00  6.6465492513977675e+04 -4.0418506908579048e+05 0.0000000000000000e+00 -4.0418506908579048e+05 2.0929301862365371e+08 0.0000000000000000e+00 0.0000000000000000e+00 0.0000000000000000e+00 0.0000000000000000e+00  -8.8393164652482228e+04 2.1823671109683893e+05 0.0000000000000000e+00 2.1823671109683893e+05 2.1528914950642499e+08 0.0000000000000000e+00 0.0000000000000000e+00 0.0000000000000000e+00 0.0000000000000000e+00  -6.9403892005188667e+04 8.5331988311042835e+04 0.0000000000000000e+00 8.5331988311042835e+04 2.1508055252649623e+08 0.0000000000000000e+00 0.0000000000000000e+00 0.0000000000000000e+00 0.0000000000000000e+00  -8.7401883181359779e+04 -4.1418353326860401e+04 0.0000000000000000e+00 -4.1418353326860401e+04 2.1507724832278404e+08 0.0000000000000000e+00 0.0000000000000000e+00 0.0000000000000000e+00 0.0000000000000000e+00  -5.5637544577414839e+04 -6.4203840239606521e+04 0.0000000000000000e+00 -6.4203840239606521e+04 2.1496352056415343e+08 0.0000000000000000e+00 0.0000000000000000e+00 0.0000000000000000e+00 0.0000000000000000e+00  -5.2782006924113135e+04 -1.4284553080972703e+05 0.0000000000000000e+00 -1.4284553080972703e+05 2.1404307831349680e+08 0.0000000000000000e+00 0.0000000000000000e+00 0.0000000000000000e+00 0.0000000000000000e+00  -2.6230979060003279e+04 -4.2555014114192670e+05 0.0000000000000000e+00 -4.2555014114192670e+05 2.1241147775416788e+08 0.0000000000000000e+00 0.0000000000000000e+00 0.0000000000000000e+00 0.0000000000000000e+00  -5.8030384815055302e+04 -6.5270828288759408e+05 0.0000000000000000e+00 -6.5270828288759408e+05 2.1005795630918059e+08 0.0000000000000000e+00 0.0000000000000000e+00 0.0000000000000000e+00 0.0000000000000000e+00  -4.5257769232733088e+04 -8.7301392713940493e+05 0.0000000000000000e+00 -8.7301392713940493e+05 2.0617998294424132e+08 0.0000000000000000e+00 0.0000000000000000e+00 0.0000000000000000e+00 0.0000000000000000e+00  -2.9320290744435802e+04 -1.1323146324381561e+06 0.0000000000000000e+00 -1.1323146324381561e+06 2.0090195844068196e+08 0.0000000000000000e+00 0.0000000000000000e+00 0.0000000000000000e+00 0.0000000000000000e+00  8.4222680345799541e+04 -1.2523080291714910e+06 0.0000000000000000e+00 -1.2523080291714910e+06 1.9445376241055715e+08 0.0000000000000000e+00 0.0000000000000000e+00 0.0000000000000000e+00 0.0000000000000000e+00  2.3535038500419105e+05 -1.2266813080948933e+06 0.0000000000000000e+00 -1.2266813080948933e+06 1.8722177413091367e+08 0.0000000000000000e+00 0.0000000000000000e+00 0.0000000000000000e+00 0.0000000000000000e+00  2.8073812515740388e+05 -9.2116486572454742e+05 0.0000000000000000e+00 -9.2116486572454742e+05 1.7931764705536178e+08 0.0000000000000000e+00 0.0000000000000000e+00 0.0000000000000000e+00 0.0000000000000000e+00  5.1125430050287105e+05 -1.0216511322499915e+06 0.0000000000000000e+00 -1.0216511322499915e+06 1.7302261596924558e+08 0.0000000000000000e+00 0.0000000000000000e+00 0.0000000000000000e+00 0.0000000000000000e+00  6.7221030797073653e+05 -1.0165704177262721e+06 0.0000000000000000e+00 -1.0165704177262721e+06 1.6928551538135958e+08 0.0000000000000000e+00 0.0000000000000000e+00 0.0000000000000000e+00 0.0000000000000000e+00  -1.6634312611000109e+05 4.0711360836872697e+05 0.0000000000000000e+00 4.0711360836872697e+05 1.6922555141212991e+08 0.0000000000000000e+00 0.0000000000000000e+00 0.0000000000000000e+00 0.0000000000000000e+00  1.8617692143664075e+05 1.0276284659881041e+06 0.0000000000000000e+00 1.0276284659881041e+06 1.6941578275777712e+08 0.0000000000000000e+00 0.0000000000000000e+00 0.0000000000000000e+00 0.0000000000000000e+00  8.4513466366214532e+04 1.2397483317925453e+06 0.0000000000000000e+00 1.2397483317925453e+06 1.7320845026890197e+08 0.0000000000000000e+00 0.0000000000000000e+00 0.0000000000000000e+00 0.0000000000000000e+00  1.5258472184304093e+05 1.5329728786297208e+06 0.0000000000000000e+00 1.5329728786297208e+06 1.8028212207564604e+08 0.0000000000000000e+00 0.0000000000000000e+00 0.0000000000000000e+00 0.0000000000000000e+00  2.5991907870834897e+04 1.4746401064823163e+06 0.0000000000000000e+00 1.4746401064823163e+06 1.8707200354802075e+08 0.0000000000000000e+00 0.0000000000000000e+00 0.0000000000000000e+00 0.0000000000000000e+00  2.7263686130160495e+04 1.5371946192431920e+06 0.0000000000000000e+00 1.5371946192431920e+06 1.9425387040869007e+08 0.0000000000000000e+00 0.0000000000000000e+00 0.0000000000000000e+00 0.0000000000000000e+00  -1.7649554679825698e+05 1.2992504770764215e+06 0.0000000000000000e+00 1.2992504770764215e+06 2.0117176380016249e+08 0.0000000000000000e+00 0.0000000000000000e+00 0.0000000000000000e+00 0.0000000000000000e+00  -1.5432997923193852e+05 1.0044233037106197e+06 0.0000000000000000e+00 1.0044233037106197e+06 2.0600205147879222e+08 0.0000000000000000e+00 0.0000000000000000e+00 0.0000000000000000e+00 0.0000000000000000e+00  -4.2020847462081561e+04 6.2359568589885836e+05 0.0000000000000000e+00 6.2359568589885836e+05 2.1000124269216040e+08 0.0000000000000000e+00 0.0000000000000000e+00 0.0000000000000000e+00 0.0000000000000000e+00  -3.0780390057981058e+04 4.5567895185108535e+05 0.0000000000000000e+00 4.5567895185108535e+05 2.1239091506627437e+08 0.0000000000000000e+00 0.0000000000000000e+00 0.0000000000000000e+00 0.0000000000000000e+00  -6.2147827655469308e+04 1.6586990226736630e+05 0.0000000000000000e+00 1.6586990226736630e+05 2.1402612257557249e+08 0.0000000000000000e+00 0.0000000000000000e+00 0.0000000000000000e+00 0.0000000000000000e+00  -6.8599198759746709e+04 4.0040549874448501e+04 0.0000000000000000e+00 4.0040549874448501e+04 2.1496193003821269e+08 0.0000000000000000e+00 0.0000000000000000e+00 0.0000000000000000e+00 0.0000000000000000e+00  -1.3260042452945540e+05 1.0295197967176800e+03 0.0000000000000000e+00 1.0295197967176800e+03 2.1512410416144088e+08 0.0000000000000000e+00 0.0000000000000000e+00 0.0000000000000000e+00 0.0000000000000000e+00  -6.8989436754066219e+03 -1.2663157751343476e+05 0.0000000000000000e+00 -1.2663157751343476e+05 2.1515911232448125e+08 0.0000000000000000e+00 0.0000000000000000e+00 0.0000000000000000e+00 0.0000000000000000e+00  -1.1805421328182219e+05 -3.2701627067135368e+05 0.0000000000000000e+00 -3.2701627067135368e+05 2.1523078848809034e+08 0.0000000000000000e+00 0.0000000000000000e+00 0.0000000000000000e+00 0.0000000000000000e+00  -1.5913501842651799e+05 2.3888209770083189e+05 0.0000000000000000e+00 2.3888209770083189e+05 2.1517108865938774e+08 0.0000000000000000e+00 0.0000000000000000e+00 0.0000000000000000e+00 0.0000000000000000e+00  2.5457156064237355e+04 -2.9819475766196469e+04 0.0000000000000000e+00 -2.9819475766196469e+04 2.1499911063228351e+08 0.0000000000000000e+00 0.0000000000000000e+00 0.0000000000000000e+00 0.0000000000000000e+00  -1.0018287337704541e+05 -1.8267199415988216e+04 0.0000000000000000e+00 -1.8267199415988216e+04 2.1502656509100431e+08 0.0000000000000000e+00 0.0000000000000000e+00 0.0000000000000000e+00 0.0000000000000000e+00  -1.4427703603174139e+05 -8.7086309384382679e+04 0.0000000000000000e+00 -8.7086309384382679e+04 2.1516882103193343e+08 0.0000000000000000e+00 0.0000000000000000e+00 0.0000000000000000e+00 0.0000000000000000e+00  -3.6511091761350015e+05 -5.2080626680702553e+04 0.0000000000000000e+00 -5.2080626680702553e+04 2.1470000293791473e+08 0.0000000000000000e+00 0.0000000000000000e+00 0.00000000000