<?xml version="1.0"?>
<VTKFile type="UnstructuredGrid"  version="0.1"  >
<UnstructuredGrid>
<Piece  NumberOfPoints="1327" NumberOfCells="1947">
<Points>
<DataArray  type="Float64"  NumberOfComponents="3"  format="ascii">1 0.7712743780665924 0  0.9754566791954815 0.8311839039897397 0  0.9605937164011354 0.8527608441475458 0  0.942576349162458 0.8711741463893857 0  0.9266163851367538 0.8802122808284626 0  0.9127138243240227 0.8798752474647762 0  0.9044163743552854 0.8721855816701571 0  0.9017240352305421 0.8571432834446054 0  0.9059746538662082 0.812983545055376 0  0.9031657672190316 0.8043645854183999 0  0.8940592962221509 0.7980237898914714 0  0.8409134358683381 0.7805695463390248 0  0.8262766750677697 0.7700870856474873 0  0.8170296716892566 0.7566956952158291 0  0.8170296716892566 0.7433043047841709 0  0.8262766750677697 0.7299129143525127 0  0.8409134358683381 0.7194304536609752 0  0.8940592962221507 0.7019762101085286 0  0.9031657672190316 0.6956354145816001 0  0.9059746538662083 0.687016454944624 0  0.9017240352305421 0.6428567165553947 0  0.9044163743552854 0.6278144183298429 0  0.9127138243240226 0.6201247525352238 0  0.9266163851367537 0.6197877191715374 0  0.942576349162458 0.6288258536106142 0  0.9605937164011353 0.6472391558524542 0  0.9754566791954815 0.6688160960102603 0  0.998254879180126 0.7230259572302853 0  0 0.2230259572302853 0  0.001745120819873995 0.2230259572302853 0  0.0245433208045185 0.1688160960102602 0  0.03940628359886462 0.1472391558524541 0  0.05742365083754188 0.1288258536106142 0  0.07338361486324609 0.1197877191715375 0  0.08728617567597728 0.1201247525352238 0  0.09558362564471455 0.1278144183298428 0  0.09827596476945791 0.1428567165553945 0  0.09402534613379175 0.187016454944624 0  0.09683423278096844 0.1956354145816001 0  0.1059407037778492 0.2019762101085286 0  0.1590865641316618 0.2194304536609752 0  0.1737233249322302 0.2299129143525127 0  0.1829703283107434 0.2433043047841709 0  0.1829703283107434 0.2566956952158291 0  0.1737233249322303 0.2700870856474873 0  0.1590865641316619 0.2805695463390248 0  0.1059407037778492 0.2980237898914714 0  0.09683423278096842 0.3043645854183999 0  0.09402534613379168 0.3129835450553759 0  0.09827596476945792 0.3571432834446054 0  0.09558362564471459 0.3721855816701571 0  0.08728617567597738 0.3798752474647762 0  0.07338361486324627 0.3802122808284626 0  0.05742365083754202 0.3711741463893858 0  0.03940628359886464 0.3527608441475457 0  0.02454332080451846 0.3311839039897397 0  0.00698048327949603 0.2940730368790818 0  1.302679950155151e-18 0.2712743780665924 0  0 0.3170296716892566 0  0.006695695215829069 0.3170296716892566 0  0.02008708564748728 0.3262766750677697 0  0.03056954633902476 0.3409134358683381 0  0.04802378989147139 0.3940592962221507 0  0.05436458541839989 0.4031657672190316 0  0.06298354505537591 0.4059746538662083 0  0.1071432834446054 0.4017240352305421 0  0.1221855816701571 0.4044163743552854 0  0.1298752474647762 0.4127138243240226 0  0.1302122808284626 0.4266163851367537 0  0.1211741463893858 0.442576349162458 0  0.1027608441475457 0.4605937164011354 0  0.08118390398973974 0.4754566791954815 0  0.04407303687908179 0.493019516720504 0  0.02127437806659238 0.5 0  0.08118390398973978 0.5245433208045185 0  0.1027608441475458 0.5394062835988646 0  0.1211741463893857 0.557423650837542 0  0.1302122808284626 0.5733836148632462 0  0.1298752474647762 0.5872861756759773 0  0.1221855816701571 0.5955836256447146 0  0.1071432834446054 0.5982759647694579 0  0.06298354505537598 0.5940253461337918 0  0.0543645854183999 0.5968342327809684 0  0.04802378989147138 0.6059407037778491 0  0.03056954633902479 0.6590865641316619 0  0.02008708564748732 0.6737233249322303 0  0.006695695215829114 0.6829703283107434 0  0 0.6829703283107434 0  0 0.7230259572302853 0  0.001745120819873995 0.7230259572302853 0  0.0245433208045185 0.6688160960102602 0  0.03940628359886462 0.6472391558524542 0  0.05742365083754188 0.6288258536106143 0  0.07338361486324609 0.6197877191715375 0  0.08728617567597728 0.6201247525352238 0  0.09558362564471455 0.6278144183298429 0  0.09827596476945791 0.6428567165553946 0  0.09402534613379175 0.687016454944624 0  0.09683423278096844 0.6956354145816001 0  0.1059407037778492 0.7019762101085286 0  0.1590865641316618 0.7194304536609752 0  0.1737233249322302 0.7299129143525127 0  0.1829703283107434 0.7433043047841709 0  0.1829703283107434 0.756695695215829 0  0.1737233249322303 0.7700870856474873 0  0.1590865641316619 0.7805695463390248 0  0.1059407037778492 0.7980237898914714 0  0.09683423278096842 0.8043645854183998 0  0.09402534613379168 0.812983545055376 0  0.09827596476945792 0.8571432834446054 0  0.09558362564471459 0.8721855816701571 0  0.08728617567597738 0.8798752474647762 0  0.07338361486324627 0.8802122808284626 0  0.05742365083754202 0.8711741463893857 0  0.03940628359886464 0.8527608441475457 0  0.02454332080451846 0.8311839039897397 0  0.00698048327949603 0.7940730368790818 0  1.302679950155151e-18 0.7712743780665924 0  0 1 0  1 1 0  1 0.7230259572302853 0  1 0.6829703283107434 0  0.9933043047841709 0.6829703283107434 0  0.9799129143525127 0.6737233249322303 0  0.9694304536609752 0.6590865641316619 0  0.9519762101085286 0.6059407037778493 0  0.9456354145816001 0.5968342327809684 0  0.937016454944624 0.5940253461337917 0  0.8928567165553947 0.5982759647694579 0  0.8778144183298429 0.5955836256447146 0  0.8701247525352238 0.5872861756759774 0  0.8697877191715374 0.5733836148632462 0  0.8788258536106142 0.557423650837542 0  0.8972391558524542 0.5394062835988647 0  0.9188160960102603 0.5245433208045185 0  0.9730259572302853 0.501745120819874 0  0.9730259572302853 0.498254879180126 0  0.9188160960102602 0.4754566791954815 0  0.8972391558524542 0.4605937164011354 0  0.8788258536106143 0.4425763491624581 0  0.8697877191715375 0.4266163851367539 0  0.8701247525352238 0.4127138243240227 0  0.8778144183298429 0.4044163743552854 0  0.8928567165553946 0.4017240352305421 0  0.937016454944624 0.4059746538662082 0  0.9456354145816001 0.4031657672190316 0  0.9519762101085286 0.3940592962221508 0  0.9694304536609752 0.3409134358683382 0  0.9799129143525127 0.3262766750677698 0  0.9933043047841709 0.3170296716892566 0  1 0.3170296716892566 0  1 0.2712743780665924 0  0.9754566791954815 0.3311839039897398 0  0.9605937164011354 0.3527608441475458 0  0.942576349162458 0.3711741463893857 0  0.9266163851367538 0.3802122808284626 0  0.9127138243240227 0.3798752474647762 0  0.9044163743552854 0.3721855816701571 0  0.9017240352305421 0.3571432834446054 0  0.9059746538662082 0.312983545055376 0  0.9031657672190316 0.3043645854183999 0  0.8940592962221509 0.2980237898914714 0  0.8409134358683381 0.2805695463390248 0  0.8262766750677697 0.2700870856474873 0  0.8170296716892566 0.2566956952158291 0  0.8170296716892566 0.2433043047841709 0  0.8262766750677697 0.2299129143525127 0  0.8409134358683381 0.2194304536609752 0  0.8940592962221507 0.2019762101085286 0  0.9031657672190316 0.1956354145816001 0  0.9059746538662083 0.187016454944624 0  0.9017240352305421 0.1428567165553946 0  0.9044163743552854 0.1278144183298429 0  0.9127138243240226 0.1201247525352238 0  0.9266163851367537 0.1197877191715374 0  0.942576349162458 0.1288258536106142 0  0.9605937164011353 0.1472391558524542 0  0.9754566791954815 0.1688160960102602 0  0.998254879180126 0.2230259572302853 0  1 0.2230259572302853 0  1 0 0  0 0 0  0.2712743780665924 0.25 0  0.3311839039897398 0.2745433208045184 0  0.2940730368790818 0.243019516720504 0  0.3527608441475458 0.2894062835988646 0  0.3311839039897397 0.2254566791954815 0  0.3711741463893857 0.307423650837542 0  0.3527608441475457 0.2105937164011354 0  0.3802122808284626 0.3233836148632462 0  0.3711741463893858 0.192576349162458 0  0.3798752474647762 0.3372861756759774 0  0.3802122808284626 0.1766163851367537 0  0.3721855816701571 0.3455836256447146 0  0.3798752474647762 0.1627138243240226 0  0.3571432834446054 0.3482759647694579 0  0.3721855816701571 0.1544163743552854 0  0.312983545055376 0.3440253461337918 0  0.3571432834446054 0.1517240352305421 0  0.3043645854183999 0.3468342327809684 0  0.3129835450553759 0.1559746538662083 0  0.2980237898914714 0.3559407037778491 0  0.3043645854183999 0.1531657672190316 0  0.2805695463390248 0.4090865641316619 0  0.2980237898914714 0.1440592962221508 0  0.2700870856474873 0.4237233249322303 0  0.2805695463390248 0.09091343586833806 0  0.2566956952158291 0.4329703283107434 0  0.2700870856474873 0.07627667506776969 0  0.2433043047841709 0.4329703283107434 0  0.2566956952158291 0.06702967168925655 0  0.2299129143525127 0.4237233249322303 0  0.2433043047841709 0.06702967168925658 0  0.2194304536609752 0.4090865641316619 0  0.2299129143525127 0.07627667506776978 0  0.2019762101085286 0.3559407037778492 0  0.2194304536609752 0.09091343586833817 0  0.1956354145816001 0.3468342327809684 0  0.2019762101085286 0.1440592962221508 0  0.187016454944624 0.3440253461337917 0  0.1956354145816001 0.1531657672190316 0  0.1428567165553946 0.3482759647694579 0  0.187016454944624 0.1559746538662082 0  0.1278144183298429 0.3455836256447146 0  0.1428567165553945 0.1517240352305421 0  0.1201247525352238 0.3372861756759774 0  0.1278144183298428 0.1544163743552854 0  0.1197877191715374 0.3233836148632462 0  0.1201247525352238 0.1627138243240227 0  0.1288258536106142 0.307423650837542 0  0.1197877191715375 0.1766163851367539 0  0.1472391558524542 0.2894062835988646 0  0.1288258536106142 0.1925763491624581 0  0.1688160960102602 0.2745433208045185 0  0.1472391558524541 0.2105937164011354 0  0.2230259572302853 0.251745120819874 0  0.1688160960102602 0.2254566791954815 0  0.2230259572302853 0.248254879180126 0  0.5 0.2712743780665924 0  0.4754566791954816 0.3311839039897398 0  0.5069804832794961 0.2940730368790818 0  0.4605937164011354 0.3527608441475458 0  0.5245433208045185 0.3311839039897397 0  0.4425763491624581 0.3711741463893857 0  0.5394062835988647 0.3527608441475457 0  0.4266163851367538 0.3802122808284626 0  0.5574
[...]
<PointData  Tensors="$\sigma$"> 
<DataArray  type="Float64"  Name="$\sigma$"  NumberOfComponents="9" format="ascii">6.4415093463816229e+03 8.9289356236394306e+03 0.0000000000000000e+00 8.9289356236394306e+03 2.7711435003502222e+04 0.0000000000000000e+00 0.0000000000000000e+00 0.0000000000000000e+00 0.0000000000000000e+00  4.1273352926477775e+04 5.5710952871726249e+03 0.0000000000000000e+00 5.5710952871726249e+03 3.5284740953099044e+03 0.0000000000000000e+00 0.0000000000000000e+00 0.0000000000000000e+00 0.0000000000000000e+00  -6.7847015277461745e+04 5.8229958788266849e+03 0.0000000000000000e+00 5.8229958788266849e+03 -6.7548785131076847e+03 0.0000000000000000e+00 0.0000000000000000e+00 0.0000000000000000e+00 0.0000000000000000e+00  -2.9662950067067699e+05 7.6645033629650032e+04 0.0000000000000000e+00 7.6645033629650032e+04 -3.8308255352655135e+04 0.0000000000000000e+00 0.0000000000000000e+00 0.0000000000000000e+00 0.0000000000000000e+00  5.0601600840115413e+05 2.5070331758682476e+05 0.0000000000000000e+00 2.5070331758682476e+05 -3.4097239321900794e+05 0.0000000000000000e+00 0.0000000000000000e+00 0.0000000000000000e+00 0.0000000000000000e+00  1.3949109645349192e+06 1.3379414979370635e+06 0.0000000000000000e+00 1.3379414979370635e+06 1.9980460672444247e+06 0.0000000000000000e+00 0.0000000000000000e+00 0.0000000000000000e+00 0.0000000000000000e+00  -4.4375177418681391e+05 6.3177994985785475e+06 0.0000000000000000e+00 6.3177994985785475e+06 -2.7252956469696525e+07 0.0000000000000000e+00 0.0000000000000000e+00 0.0000000000000000e+00 0.0000000000000000e+00  1.1691201171424223e+07 1.0201901395357303e+07 0.0000000000000000e+00 1.0201901395357303e+07 -3.9567619833105326e+07 0.0000000000000000e+00 0.0000000000000000e+00 0.0000000000000000e+00 0.0000000000000000e+00  3.2880747257741645e+07 1.0293233906931728e+07 0.0000000000000000e+00 1.0293233906931728e+07 -5.8322275852774061e+07 0.0000000000000000e+00 0.0000000000000000e+00 0.0000000000000000e+00 0.0000000000000000e+00  -8.0230294952312663e+07 -1.1856533899924199e+08 0.0000000000000000e+00 -1.1856533899924199e+08 -9.2534539464167908e+07 0.0000000000000000e+00 0.0000000000000000e+00 0.0000000000000000e+00 0.0000000000000000e+00  -3.4888541834855580e+05 -4.7830584059250460e+05 0.0000000000000000e+00 -4.7830584059250460e+05 5.6688449066741122e+06 0.0000000000000000e+00 0.0000000000000000e+00 0.0000000000000000e+00 0.0000000000000000e+00  -4.9195516978728883e+07 7.5448895331340268e+07 0.0000000000000000e+00 7.5448895331340268e+07 -8.2773972538361341e+07 0.0000000000000000e+00 0.0000000000000000e+00 0.0000000000000000e+00 0.0000000000000000e+00  1.7510294674845211e+07 -7.1703926166298073e+06 0.0000000000000000e+00 -7.1703926166298073e+06 1.2558167671977383e+08 0.0000000000000000e+00 0.0000000000000000e+00 0.0000000000000000e+00 0.0000000000000000e+00  -2.3282254086871766e+07 -1.6059329048723392e+07 0.0000000000000000e+00 -1.6059329048723392e+07 1.9133545705856513e+07 0.0000000000000000e+00 0.0000000000000000e+00 0.0000000000000000e+00 0.0000000000000000e+00  -3.0129345704616349e+07 -2.6905747652641136e+07 0.0000000000000000e+00 -2.6905747652641136e+07 2.8302656831792277e+08 0.0000000000000000e+00 0.0000000000000000e+00 0.0000000000000000e+00 0.0000000000000000e+00  -6.8498855367457852e+07 4.7202521813401170e+07 0.0000000000000000e+00 4.7202521813401170e+07 3.7945694431991860e+07 0.0000000000000000e+00 0.0000000000000000e+00 0.0000000000000000e+00 0.0000000000000000e+00  -3.7639826720269285e+07 -9.6200859023944601e+07 0.0000000000000000e+00 -9.6200859023944601e+07 -1.0350477378498740e+08 0.0000000000000000e+00 0.0000000000000000e+00 0.0000000000000000e+00 0.0000000000000000e+00  1.1578337866365418e+07 -6.3284193875182522e+06 0.0000000000000000e+00 -6.3284193875182522e+06 1.3687563515309405e+07 0.0000000000000000e+00 0.0000000000000000e+00 0.0000000000000000e+00 0.0000000000000000e+00  -5.5326574071217552e+07 7.5219048200994939e+07 0.0000000000000000e+00 7.5219048200994939e+07 -5.6621289279834852e+07 0.0000000000000000e+00 0.0000000000000000e+00 0.0000000000000000e+00 0.0000000000000000e+00  1.7233130388344809e+07 -9.3775968995195162e+06 0.0000000000000000e+00 -9.3775968995195162e+06 -2.8267440305685271e+07 0.0000000000000000e+00 0.0000000000000000e+00 0.0000000000000000e+00 0.0000000000000000e+00  1.0350627070678743e+07 -4.9760372558315285e+06 0.0000000000000000e+00 -4.9760372558315285e+06 -1.6000657020710174e+07 0.0000000000000000e+00 0.0000000000000000e+00 0.0000000000000000e+00 0.0000000000000000e+00  -3.1309034196622623e+06 -5.0251112642248850e+06 0.0000000000000000e+00 -5.0251112642248860e+06 -1.5635166935150849e+06 0.0000000000000000e+00 0.0000000000000000e+00 0.0000000000000000e+00 0.0000000000000000e+00  2.3036081035001691e+04 1.5799963026851611e+06 0.0000000000000000e+00 1.5799963026851616e+06 7.6875820866203518e+05 0.0000000000000000e+00 0.0000000000000000e+00 0.0000000000000000e+00 0.0000000000000000e+00  -2.4833531302221128e+05 1.2840824104573358e+05 0.0000000000000000e+00 1.2840824104573361e+05 -5.2442607581866882e+05 0.0000000000000000e+00 0.0000000000000000e+00 0.0000000000000000e+00 0.0000000000000000e+00  -2.0387048610888864e+05 -3.4777741068112453e+04 0.0000000000000000e+00 -3.4777741068112467e+04 8.1465253823997962e+04 0.0000000000000000e+00 0.0000000000000000e+00 0.0000000000000000e+00 0.0000000000000000e+00  1.9334137524882180e+05 1.1906862962603336e+04 0.0000000000000000e+00 1.1906862962603343e+04 -9.9759646997977979e+03 0.0000000000000000e+00 0.0000000000000000e+00 0.0000000000000000e+00 0.0000000000000000e+00  -4.4744841834561912e+03 1.1345712116468555e+03 0.0000000000000000e+00 1.1345712116468555e+03 1.9691915804969765e+03 0.0000000000000000e+00 0.0000000000000000e+00 0.0000000000000000e+00 0.0000000000000000e+00  7.3719862594472477e+02 5.6266384789479935e+02 0.0000000000000000e+00 5.6266384789479935e+02 5.4673444089466834e+01 0.0000000000000000e+00 0.0000000000000000e+00 0.0000000000000000e+00 0.0000000000000000e+00  -1.6335336447499660e+04 -4.1560690634012781e+03 0.0000000000000000e+00 -4.1560690634012790e+03 -1.4551988990128651e+04 0.0000000000000000e+00 0.0000000000000000e+00 0.0000000000000000e+00 0.0000000000000000e+00  6.7887298028629666e+04 2.7345183946290235e+04 0.0000000000000000e+00 2.7345183946290235e+04 1.1300939105293523e+04 0.0000000000000000e+00 0.0000000000000000e+00 0.0000000000000000e+00 0.0000000000000000e+00  -5.4244890371457615e+04 -1.9463516422965058e+04 0.0000000000000000e+00 -1.9463516422965062e+04 1.4082879140306875e+04 0.0000000000000000e+00 0.0000000000000000e+00 0.0000000000000000e+00 0.0000000000000000e+00  -2.0401494591916841e+05 -1.6029867063752361e+04 0.0000000000000000e+00 -1.6029867063752366e+04 4.7345141357239489e+04 0.0000000000000000e+00 0.0000000000000000e+00 0.0000000000000000e+00 0.0000000000000000e+00  -2.9130745575810911e+05 1.1883931289417732e+05 0.0000000000000000e+00 1.1883931289417730e+05 -9.7994166634610272e+04 0.0000000000000000e+00 0.0000000000000000e+00 0.0000000000000000e+00 0.0000000000000000e+00  5.7092156171497342e+05 3.5113319977322000e+05 0.0000000000000000e+00 3.5113319977322011e+05 -4.2258755478676548e+05 0.0000000000000000e+00 0.0000000000000000e+00 0.0000000000000000e+00 0.0000000000000000e+00  2.4706034385373946e+06 2.2635242761802035e+06 0.0000000000000000e+00 2.2635242761802035e+06 2.7009966522420067e+06 0.0000000000000000e+00 0.0000000000000000e+00 0.0000000000000000e+00 0.0000000000000000e+00  4.8905294827258663e+05 7.5138565821290510e+06 0.0000000000000000e+00 7.5138565821290491e+06 -2.2795367297756765e+07 0.0000000000000000e+00 0.0000000000000000e+00 0.0000000000000000e+00 0.0000000000000000e+00  1.1331681630848004e+07 1.0030333555565694e+07 0.0000000000000000e+00 1.0030333555565696e+07 -3.5512437560805008e+07 0.0000000000000000e+00 0.0000000000000000e+00 0.0000000000000000e+00 0.0000000000000000e+00  3.2203768232256640e+07 1.0344286282963203e+07 0.0000000000000000e+00 1.0344286282963196e+07 -5.5373303729769655e+07 0.0000000000000000e+00 0.0000000000000000e+00 0.0000000000000000e+00 0.0000000000000000e+00  -7.9343288442721888e+07 -1.1429861121486853e+08 0.0000000000000000e+00 -1.1429861121486852e+08 -8.7875133884942561e+07 0.0000000000000000e+00 0.0000000000000000e+00 0.0000000000000000e+00 0.0000000000000000e+00  2.1525245134787178e+06 8.7317256402539636e+05 0.0000000000000000e+00 8.7317256402539928e+05 7.9094591662092144e+06 0.0000000000000000e+00 0.0000000000000000e+00 0.0000000000000000e+00 0.0000000000000000e+00  -5.5209896872081757e+07 8.4893579916615680e+07 0.0000000000000000e+00 8.4893579916615680e+07 -1.0093514792081840e+08 0.0000000000000000e+00 0.0000000000000000e+00 0.0000000000000000e+00 0.0000000000000000e+00  -1.9576167322789919e+07 -8.7312474847618993e+06 0.0000000000000000e+00 -8.7312474847618993e+06 7.0485285743221134e+07 0.0000000000000000e+00 0.0000000000000000e+00 0.0000000000000000e+00 0.0000000000000000e+00  1.0685197789185084e+07 -1.2515900186489025e+07 0.0000000000000000e+00 -1.2515900186489025e+07 1.1330981633161709e+08 0.0000000000000000e+00 0.0000000000000000e+00 0.0000000000000000e+00 0.0000000000000000e+00  1.2903019671120459e+07 8.9602700000919048e+06 0.0000000000000000e+00 8.9602700000919048e+06 1.2181188228071201e+08 0.0000000000000000e+00 0.0000000000000000e+00 0.0000000000000000e+00 0.0000000000000000e+00  -1.9867164460465696e+07 3.3163284608538412e+06 0.0000000000000000e+00 3.3163284608538412e+06 6.9634347484705999e+07 0.0000000000000000e+00 0.0000000000000000e+00 0.0000000000000000e+00 0.0000000000000000e+00  -5.0776929067444257e+07 -1.0523749178013468e+08 0.0000000000000000e+00 -1.0523749178013468e+08 -1.1119467928114493e+08 0.0000000000000000e+00 0.0000000000000000e+00 0.0000000000000000e+00 0.0000000000000000e+00  1.4020024815321486e+07 -7.9514997479740493e+06 0.0000000000000000e+00 -7.9514997479740493e+06 1.4892609799497426e+07 0.0000000000000000e+00 0.0000000000000000e+00 0.0000000000000000e+00 0.0000000000000000e+00  -5.6101448846880876e+07 7.5443257982828543e+07 0.0000000000000000e+00 7.5443257982828543e+07 -5.4062198432061940e+07 0.0000000000000000e+00 0.0000000000000000e+00 0.0000000000000000e+00 0.0000000000000000e+00  1.6313882090316057e+07 -1.0034544290938122e+07 0.0000000000000000e+00 -1.0034544290938122e+07 -2.7768192570053216e+07 0.0000000000000000e+00 0.0000000000000000e+00 0.0000000000000000e+00 0.0000000000000000e+00  1.1031718650176559e+07 -3.6043941795729618e+06 0.0000000000000000e+00 -3.6043941795729618e+06 -1.4445132223313827e+07 0.0000000000000000e+00 0.0000000000000000e+00 0.0000000000000000e+00 0.0000000000000000e+00  -1.8707230438806447e+06 -2.3978177970634680e+06 0.0000000000000000e+00 -2.3978177970634680e+06 2.7011406586241997e+06 0.0000000000000000e+00 0.0000000000000000e+00 0.0000000000000000e+00 0.0000000000000000e+00  -1.8256981031859580e+06 1.0050504150772103e+06 0.0000000000000000e+00 1.0050504150772110e+06 2.5120413315269537e+05 0.0000000000000000e+00 0.0000000000000000e+00 0.0000000000000000e+00 0.0000000000000000e+00  1.3128578904117547e+04 4.3331104091827071e+05 0.0000000000000000e+00 4.3331104091827065e+05 -5.5162868556826818e+05 0.0000000000000000e+00 0.0000000000000000e+00 0.0000000000000000e+00 0.0000000000000000e+00  -3.2428783261882496e+05 -1.1619632524706356e+05 0.0000000000000000e+00 -1.1619632524706356e+05 8.7579236733400059e+04 0.0000000000000000e+00 0.0000000000000000e+00 0.0000000000000000e+00 0.0000000000000000e+00  2.7066797367283999e+05 4.5110214578284053e+04 0.0000000000000000e+00 4.5110214578284053e+04 -8.8809853593825846e+03 0.0000000000000000e+00 0.0000000000000000e+00 0.0000000000000000e+00 0.0000000000000000e+00  -8.2999451783739769e+03 1.2574898346560303e+03 0.0000000000000000e+00 1.2574898346560303e+03 2.7578013354393347e+03 0.0000000000000000e+00 0.0000000000000000e+00 0.0000000000000000e+00 0.0000000000000000e+00  5.4627186770390756e+02 5.1012474817608881e+02 0.0000000000000000e+00 5.1012474817608881e+02 1.7068162975674002e+02 0.0000000000000000e+00 0.0000000000000000e+00 0.0000000000000000e+00 0.0000000000000000e+00  -3.6734201872243074e+02 -5.0472105349606835e+02 0.0000000000000000e+00 -5.0472105349606835e+02 4.5170577474698166e+02 0.0000000000000000e+00 0.0000000000000000e+00 0.0000000000000000e+00 0.0000000000000000e+00  2.6274180722645673e+02 -1.0703132026283504e+02 0.0000000000000000e+00 -1.0703132026283504e+02 6.1636232163031582e+02 0.0000000000000000e+00 0.0000000000000000e+00 0.0000000000000000e+00 0.0000000000000000e+00  -2.0037665451472621e+03 2.5482376419615683e+01 0.0000000000000000e+00 2.5482376419615683e+01 1.3588618074296382e+03 0.0000000000000000e+00 0.0000000000000000e+00 0.0000000000000000e+00 0.0000000000000000e+00  4.7650518733657109e+03 1.6996972869256456e+03 0.0000000000000000e+00 1.6996972869256456e+03 -1.7004322094165170e+02 0.0000000000000000e+00 0.0000000000000000e+00 0.0000000000000000e+00 0.0000000000000000e+00  -8.2244220104342749e+04 -1.5740314073690490e+04 0.0000000000000000e+00 -1.5740314073690488e+04 5.3179162394484001e+03 0.0000000000000000e+00 0.0000000000000000e+00 0.0000000000000000e+00 0.0000000000000000e+00  -1.4941750246434577e+05 -1.9714002280153210e+04 0.0000000000000000e+00 -1.9714002280153214e+04 2.3816467798643695e+04 0.0000000000000000e+00 0.0000000000000000e+00 0.0000000000000000e+00 0.0000000000000000e+00  9.0571915005597650e+04 1.3633859406111046e+05 0.0000000000000000e+00 1.3633859406111046e+05 -2.4892581340069967e+05 0.0000000000000000e+00 0.0000000000000000e+00 0.0000000000000000e+00 0.0000000000000000e+00  -1.2333978098775921e+06 -7.3183832115877315e+05 0.0000000000000000e+00 -7.3183832115877315e+05 -1.7287683676808378e+04 0.0000000000000000e+00 0.0000000000000000e+00 0.0000000000000000e+00 0.0000000000000000e+00  4.4397011495858142e+06 2.0091303723073374e+06 0.0000000000000000e+00 2.0091303723073374e+06 1.0141427847862168e+05 0.0000000000000000e+00 0.0000000000000000e+00 0.0000000000000000e+00 0.0000000000000000e+00  3.3466575423934694e+07 3.2943548460531555e+07 0.0000000000000000e+00 3.2943548460531555e+07 3.9257224952605173e+07 0.0000000000000000e+00 0.0000000000000000e+00 0.0000000000000000e+00 0.0000000000000000e+00  4.8427699669916429e+07 2.0091557798943158e+07 0.0000000000000000e+00 2.0091557798943158e+07 1.1261846841462237e+08 0.0000000000000000e+00 0.0000000000000000e+00 0.0000000000000000e+00 0.0000000000000000e+00  2.3069671026382446e+07 -3.8276559282095008e+07 0.0000000000000000e+00 -3.8276559282095008e+07 1.4379752100007609e+08 0.0000000000000000e+00 0.0000000000000000e+00 0.0000000000000000e+00 0.0000000000000000e+00  1.3962541999411721e+07 -2.2931064641742639e+07 0.0000000000000000e+00 -2.2931064641742639e+07 4.9178097307375006e+07 0.0000000000000000e+00 0.0000000000000000e+00 0.0000000000000000e+00 0.0000000000000000e+00  2.7576813864898920e+07 -1.1472353828605723e+07 0.0000000000000000e+00 -1.1472353828605723e+07 6.0262817712184958e+07 0.0000000000000000e+00 0.0000000000000000e+00 0.0000000000000000e+00 0.0000000000000000e+00  1.0267456256639276e+08 1.0158187838345644e+08 0.0000000000000000e+00 1.0158187838345644e+08 1.9430619596204349e+08 0.0000000000000000e+00 0.0000000000000000e+00 0.0000000000000000e+00 0.0000000000000000e+00  -4.3745232988408536e+07 2.5004579970460825e+07 0.0000000000000000e+00 2.5004579970460825e+07 2.2545052567763757e+07 0.0000000000000000e+00 0.0000000000000000e+00 0.0000000000000000e+00 0.0000000000000000e+00  -5.2271187292213151e+06 -1.1593867815860584e+07 0.0000000000000000e+00 -1.1593867815860584e+07 -6.8031958975944757e+07 0.0000000000000000e+00 0.0000000000000000e+00 0.0000000000000000e+00 0.0000000000000000e+00  8.8081546101366729e+07 -7.0012223943773434e+07 0.0000000000000000e+00 -7.0012223943773434e+07 1.2436608569698389e+08 0.0000000000000000e+00 0.0000000000000000e+00 0.0000000000000000e+00 0.0000000000000000e+00  3.1726646187583771e+07 1.2663214772325240e+07 0.0000000000000000e+00 1.2663214772325240e+07 5.9684608391763829e+07 0.0000000000000000e+00 0.0000000000000000e+00 0.0000000000000000e+00 0.0000000000000000e+00  1.4263915698429316e+07 2.2169564768123399e+07 0.0000000000000000e+00 2.2169564768123399e+07 4.9401007151642784e+07 0.0000000000000000e+00 0.0000000000000000e+00 0.0000000000000000e+00 0.0000000000000000e+00  2.3475733067681536e+07 3.9658627636435099e+07 0.0000000000000000e+00 3.9658627636435099e+07 1.4159759337061596e+08 0.0000000000000000e+00 0.0000000000000000e+00 0.0000000000000000e+00 0.0000000000000000e+00  3.9265339676926039e+07 -2.0119580605846588e+07 0.0000000000000000e+00 -2.0119580605846588e+07 1.1181344913235140e+08 0.0000000000000000e+00 0.0000000000000000e+00 0.0000000000000000e+00 0.0000000000000000e+00  1.7490066237898607e+07 -3.2862878067392703e+07 0.0000000000000000e+00 -3.2862878067392703e+07 3.4992565596555047e+07 0.0000000000000000e+00 0.0000000000000000e+00 0.0000000000000000e+00 0.0000000000000000e+00  6.2937758970485264e+06 -2.3574230411269604e+06 0.0000000000000000e+00 -2.3574230411269604e+06 8.5122469771075132e+05 0.0000000000000000e+00 0.0000000000000000e+00 0.0000000000000000e+00 0.0000000000000000e+00  -1.3893967358651829e+06 8.6728066944584739e+05 0.0000000000000000e+00 8.6728066944584739e+05 7.8443547627654252e+03 0.0000000000000000e+00 0.0000000000000000e+00 0.0000000000000000e+00 0.0000000000000000e+00  -5.7747685523625856e+04 -1.7364863791203688e+05 0.0000000000000000e+00 -1.7364863791203685e+05 -3.3563317949951463e+05 0.0000000000000000e+00 0.0000000000000000e+00 0.0000000000000000e+00 0.0000000000000000e+00  -1.9495249369957103e+05 2.0442444555591039e+04 0.0000000000000000e+00 2.0442444555591039e+04 -1.0551218348914428e+04 0.0000000000000000e+00 0.0000000000000000e+00 0.0000000000000000e+00 0.0000000000000000e+00  -6.1962084100778113e+04 1.6542984253005317e+04 0.0000000000000000e+00 1.6542984253005317e+04 1.1118903331261326e+04 0.0000000000000000e+00 0.0000000000000000e+00 0.0000000000000000e+00 0.0000000000000000e+00  2.9332750175712131e+03 -1.0270093662474503e+03 0.0000000000000000e+00 -1.0270093662474503e+03 1.2671921259137400e+02 0.0000000000000000e+00 0.0000000000000000e+00 0.0000000000000000e+00 0.0000000000000000e+00  -1.4512853601325646e+03 1.8604683487888568e+02 0.0000000000000000e+00 1.8604683487888568e+02 9.2623558642592161e+02 0.0000000000000000e+00 0.0000000000000000e+00 0.0000000000000000e+00 0.0000000000000000e+00  3.5860057562637263e+02 -5.2746537457979166e+01 0.0000000000000000e+00 -5.2746537457979166e+01 7.2429324215315341e+02 0.0000000000000000e+00 0.0000000000000000e+00 0.0000000000000000e+00 0.0000000000000000e+00  -6.3360729942450007e+02 3.6765533011638718e+02 0.0000000000000000e+00 3.6765533011638718e+02 7.3176425799715412e+02 0.0000000000000000e+00 0.0000000000000000e+00 0.0000000000000000e+00 0.0000000000000000e+00  8.1847308075086028e+02 -4.8942893368320881e+02 0.0000000000000000e+00 -4.8942893368320881e+02 3.3255130550353988e+02 0.0000000000000000e+00 0.0000000000000000e+00 0.0000000000000000e+00 0.0000000000000000e+00  -7.7183315979015761e+03 -1.2464072809774220e+03 0.0000000000000000e+00 -1.2464072809774220e+03 1.4752144791594213e+02 0.0000000000000000e+00 0.0000000000000000e+00 0.0000000000000000e+00 0.0000000000000000e+00  2.7982461332975066e+05 -4.6475525485792568e+04 0.0000000000000000e+00 -4.6475525485792568e+04 7.6124071384318786e+03 0.0000000000000000e+00 0.0000000000000000e+00 0.0000000000000000e+00 0.0000000000000000e+00  -3.1567284244878381e+05 1.0747868132586371e+05 0.0000000000000000e+00 1.0747868132586371e+05 6.6338495404132103e+04 0.0000000000000000e+00 0.0000000000000000e+00 0.0000000000000000e+00 0.0000000000000000e+00  -3.2704760935861384e+05 -4.5930527951266401e+05 0.0000000000000000e+00 -4.5930527951266401e+05 -6.7634543936940131e+05 0.0000000000000000e+00 0.0000000000000000e+00 0.0000000000000000e+00 0.0000000000000000e+00  -6.5467311810419662e+05 -1.4091200299616614e+06 0.0000000000000000e+00 -1.4091200299616614e+06 1.2041893904081527e+06 0.0000000000000000e+00 0.0000000000000000e+00 0