<?xml version="1.0"?>
<VTKFile type="UnstructuredGrid"  version="0.1"  >
<UnstructuredGrid>
<Piece  NumberOfPoints="1125" NumberOfCells="2128">
<Points>
<DataArray  type="Float64"  NumberOfComponents="3"  format="ascii">0 0 0  1 0 0  1 1 0  0 1 0  0.03333333333333333 0 0  0.06666666666666667 0 0  0.1 0 0  0.1333333333333333 0 0  0.1666666666666667 0 0  0.2 0 0  0.2333333333333333 0 0  0.2666666666666667 0 0  0.3 0 0  0.3333333333333333 0 0  0.3666666666666666 0 0  0.4 0 0  0.4333333333333333 0 0  0.4666666666666667 0 0  0.5 0 0  0.5333333333333333 0 0  0.5666666666666667 0 0  0.6 0 0  0.6333333333333333 0 0  0.6666666666666666 0 0  0.7 0 0  0.7333333333333333 0 0  0.7666666666666667 0 0  0.8 0 0  0.8333333333333334 0 0  0.8666666666666667 0 0  0.9 0 0  0.9333333333333333 0 0  0.9666666666666667 0 0  1 0.03333333333333333 0  1 0.06666666666666667 0  1 0.1 0  1 0.1333333333333333 0  1 0.1666666666666667 0  1 0.2 0  1 0.2333333333333333 0  1 0.2666666666666667 0  1 0.3 0  1 0.3333333333333333 0  1 0.3666666666666666 0  1 0.4 0  1 0.4333333333333333 0  1 0.4666666666666667 0  1 0.5 0  1 0.5333333333333333 0  1 0.5666666666666667 0  1 0.6 0  1 0.6333333333333333 0  1 0.6666666666666666 0  1 0.7 0  1 0.7333333333333333 0  1 0.7666666666666667 0  1 0.8 0  1 0.8333333333333334 0  1 0.8666666666666667 0  1 0.9 0  1 0.9333333333333333 0  1 0.9666666666666667 0  0.9666666666666667 1 0  0.9333333333333333 1 0  0.9 1 0  0.8666666666666667 1 0  0.8333333333333334 1 0  0.8 1 0  0.7666666666666666 1 0  0.7333333333333334 1 0  0.7 1 0  0.6666666666666667 1 0  0.6333333333333333 1 0  0.6 1 0  0.5666666666666667 1 0  0.5333333333333333 1 0  0.5 1 0  0.4666666666666667 1 0  0.4333333333333333 1 0  0.4 1 0  0.3666666666666667 1 0  0.3333333333333334 1 0  0.3 1 0  0.2666666666666667 1 0  0.2333333333333333 1 0  0.2 1 0  0.1666666666666666 1 0  0.1333333333333333 1 0  0.09999999999999998 1 0  0.06666666666666665 1 0  0.03333333333333333 1 0  0 0.9666666666666667 0  0 0.9333333333333333 0  0 0.9 0  0 0.8666666666666667 0  0 0.8333333333333334 0  0 0.8 0  0 0.7666666666666666 0  0 0.7333333333333334 0  0 0.7 0  0 0.6666666666666667 0  0 0.6333333333333333 0  0 0.6 0  0 0.5666666666666667 0  0 0.5333333333333333 0  0 0.5 0  0 0.4666666666666667 0  0 0.4333333333333333 0  0 0.4 0  0 0.3666666666666667 0  0 0.3333333333333334 0  0 0.3 0  0 0.2666666666666667 0  0 0.2333333333333333 0  0 0.2 0  0 0.1666666666666666 0  0 0.1333333333333333 0  0 0.09999999999999998 0  0 0.06666666666666665 0  0 0.03333333333333333 0  0.5166666666666666 0.0288675134594813 0  0.9693240783385073 0.5180158073619108 0  0.02993161834918728 0.5185072366292441 0  0.4833333333333334 0.9711324865405186 0  0.35 0.0275152869043217 0  0.6500000000000001 0.9711324865405186 0  0.9711324865405186 0.35 0  0.0288675134594813 0.35 0  0.03183367087915745 0.6519568024065078 0  0.6499999999999999 0.0288675134594813 0  0.9668011245075014 0.6508926937419198 0  0.3500000000000003 0.971132486540518 0  0.7833333333333328 0.9711324865405191 0  0.2166666666666673 0.9711324865405176 0  0.9710790479669988 0.2149786245705936 0  0.213152160057237 0.02963178252131765 0  0.02514832299695308 0.7831222407553708 0  0.9717938288711816 0.7831705943342492 0  0.02984248496339065 0.2140183518346379 0  0.7833333333333333 0.02886751345948135 0  0.970381899309396 0.8836400666338862 0  0.9701213378436266 0.1160948551282759 0  0.1166666666666685 0.9711324865405171 0  0.02937880377270063 0.1164937382191992 0  0.1166666666666666 0.0288675134594813 0  0.8833333333333331 0.9711324865405193 0  0.8833333333333334 0.02886751345948174 0  0.02962174643024013 0.8836996433829467 0  0.03063670165420768 0.7147183066435061 0  0.7166666666666667 0.9711324865405189 0  0.5833333333333334 0.9711324865405185 0  0.0288675134594813 0.5833333333333333 0  0.4201811732760986 0.02963178252131793 0  0.5869616838667602 0.02959172939928756 0  0.7130383161332414 0.02959172939928756 0  0.9711324865405186 0.5833333333333333 0  0.9711324865405188 0.7166666666666667 0  0.9682329705003592 0.4196093960053698 0  0.02999567910526552 0.2859346596869724 0  0.2833333333333333 0.0288675134594813 0  0.02632122050683028 0.4160720217151175 0  0.9701338205547776 0.2845299461620737 0  0.4166666666666666 0.9711324865405181 0  0.2833333333333335 0.9711324865405182 0  0.9698100917519734 0.9469391460314203 0  0.9487108288468399 0.02812321014717356 0  0.05320300192081451 0.02834879393646689 0  0.05128917115316145 0.9718767898528263 0  0.7499999999999998 0.971132486540519 0  0.7333333333333334 0.9422649730810376 0  0.7000000000000002 0.9422649730810375 0  0.7166666666666667 0.9133974596215564 0  0.6833333333333336 0.9133974596215562 0  0.7000000000000004 0.884529946162075 0  0.6666666666666671 0.8845299461620748 0  0.6833333333333339 0.8556624327025937 0  0.6500000000000005 0.8556624327025935 0  0.6666666666666672 0.8267949192431124 0  0.633333333333334 0.8267949192431121 0  0.6500000000000006 0.797927405783631 0  0.6166666666666675 0.7979274057836306 0  0.6333333333333342 0.7690598923241496 0  0.6000000000000011 0.7690598923241493 0  0.6166666666666679 0.7401923788646683 0  0.5833333333333347 0.7401923788646678 0  0.6000000000000016 0.7113248654051868 0  0.5666666666666683 0.7113248654051865 0  0.5833333333333353 0.6824573519457053 0  0.550000000000002 0.682457351945705 0  0.5666666666666689 0.653589838486224 0  0.5333333333333355 0.6535898384862235 0  0.5500000000000025 0.6247223250267425 0  0.5166666666666692 0.6247223250267422 0  0.5333333333333361 0.5958548115672611 0  0.5000000000000028 0.5958548115672607 0  0.5166666666666697 0.5669872981077797 0  0.4833333333333364 0.5669872981077794 0  0.5000000000000033 0.5381197846482982 0  0.4666666666666701 0.538119784648298 0  0.4833333333333369 0.5092522711888168 0  0.5166666666666703 0.5092522711888171 0  0.4666666666666696 0.5958548115672606 0  0.5000000000000038 0.4803847577293356 0  0.4666666666666706 0.4803847577293354 0  0.5333333333333371 0.4803847577293359 0  0.4833333333333374 0.4515172442698542 0  0.4500000000000041 0.451517244269854 0  0.5833333333333357 0.6247223250267429 0  0.4666666666666709 0.4226497308103728 0  0.4333333333333376 0.4226497308103727 0  0.4500000000000044 0.3937822173508915 0  0.4166666666666711 0.3937822173508913 0  0.4000000000000043 0.4226497308103725 0  0.3833333333333378 0.3937822173508912 0  0.366666666666671 0.4226497308103724 0  0.3500000000000044 0.3937822173508911 0  0.6500000000000011 0.7401923788646686 0  0.4833333333333377 0.3937822173508916 0  0.4666666666666712 0.3649147038914102 0  0.5000000000000046 0.3649147038914104 0  0.5333333333333353 0.7113248654051862 0  0.3666666666666711 0.3649147038914099 0  0.3333333333333377 0.4226497308103724 0  0.3333333333333377 0.3649147038914098 0  0.4833333333333381 0.336047190431929 0  0.5166666666666714 0.3360471904319293 0  0.3500000000000044 0.3360471904319285 0  0.3166666666666711 0.3360471904319285 0  0.7000000000000004 0.8267949192431129 0  0.500000000000005 0.3071796769724479 0  0.5333333333333383 0.3071796769724482 0  0.3333333333333378 0.3071796769724473 0  0.3000000000000045 0.3071796769724472 0  0.2833333333333377 0.3360471904319284 0  0.5500000000000047 0.3360471904319296 0  0.5666666666666716 0.3071796769724484 0  0.583333333333338 0.3360471904319298 0  0.600000000000005 0.3071796769724487 0  0.6166666666666714 0.3360471904319302 0  0.6333333333333383 0.3071796769724491 0  0.6500000000000047 0.3360471904319305 0  0.6666666666666716 0.3071796769724495 0  0.683333333333338 0.336047190431931 0  0.700000000000005 0.30717967697245 0  0.7166666666666709 0.3360471904319312 0  0.7000000000000043 0.3649147038914125 0  0.2666666666666713 0.3071796769724471 0  0.7333333333333381 0.3071796769724483 0  0.6833333333333387 0.2783121635129684 0  0.5500000000000053 0.2783121635129666 0  0.3166666666666712 0.278312163512966 0  0.7333333333333374 0.3649147038914117 0  0.7166666666666706 0.3937822173508939 0  0.7500000000000041 0.3937822173508932 0  0.7333333333333368 0.4226497308103753 0  0.2500000000000043 0.3360471904319282 0  0.7666666666666708 0.4226497308103747 0  0.7500000000000031 0.4515172442698569 0  0.5833333333333343 0.7979274057836305 0  0.2333333333333379 0.3071796769724469 0  0.3500000000000043 0.4515172442698537 0  0.3166666666666709 0.4515172442698536 0  0.3333333333333375 0.4803847577293349 0  0.3000000000000042 0.4803847577293348 0  0.3166666666666706 0.5092522711888161 0  0.2833333333333373 0.509252271188816 0  0.3000000000000038 0.5381197846482974 0  0.2666666666666705 0.5381197846482972 0  0.2833333333333371 0.5669872981077786 0  0.2500000000000039 0.5092522711888159 0  0.2500000000000037 0.5669872981077784 0  0.2666666666666703 0.5958548115672598 0  0.2333333333333369 0.5958548115672596 0  0.2500000000000034 0.624722325026741 0  0.2833333333333367 0.6247223250267412 0  0.2666666666666699 0.6535898384862223 0  0.3000000000000032 0.6535898384862225 0  0.2833333333333363 0.6824573519457038 0  0.2500000000000031 0.6824573519457036 0  0.2666666666666696 0.7113248654051849 0  0.3000000000000028 0.711324865405185 0  0.283333333333336 0.7401923788646663 0  0.3166666666666693 0.7401923788646665 0  0.2500000000000027 0.740192378864666 0  0.3000000000000025 0.7690598923241476 0  0.3333333333333358 0.7690598923241478 0  0.2166666666666711 0.3360471904319281 0  0.783333333333338 0.4515172442698546 0  0.7666666666666697 0.4803847577293379 0  0.7333333333333363 0.480384757729338 0  0.7500000000000027 0.5092522711888194 0  0.7833333333333359 0.5092522711888198 0  0.766666666666669 0.5381197846483009 0  0.7833333333333389 0.3937822173508907 0  0.3500000000000027 0.7401923788646667 0  0.3666666666666691 0.7690598923241481 0  0.3500000000000045 0.2783121635129661 0  0.3333333333333378 0.2494446500534847 0  0.3666666666666711 0.2494446500534847 0  0.3500000000000044 0.2205771365940034 0  0.3166666666666714 0.2205771365940036 0  0.3833333333333377 0.2205771365940034 0  0.2000000000000045 0.3071796769724466 0  0.8000000000000023 
[...]
<PointData  Tensors="$\sigma$"> 
<DataArray  type="Float64"  Name="$\sigma$"  NumberOfComponents="9" format="ascii">8.7466080495823480e-07 4.2599259029018919e-07 0.0000000000000000e+00 4.2599259029018919e-07 2.0000000000000116e+08 0.0000000000000000e+00 0.0000000000000000e+00 0.0000000000000000e+00 0.0000000000000000e+00  2.7163993778761681e-07 -1.0547397100028514e-07 0.0000000000000000e+00 -1.0547397100028514e-07 1.9999999999999911e+08 0.0000000000000000e+00 0.0000000000000000e+00 0.0000000000000000e+00 0.0000000000000000e+00  3.5997039617090558e-08 5.0315614928963378e-07 0.0000000000000000e+00 5.0315614928963378e-07 1.9999999999999952e+08 0.0000000000000000e+00 0.0000000000000000e+00 0.0000000000000000e+00 0.0000000000000000e+00  8.0956128753169403e-07 4.6402630954961343e-07 0.0000000000000000e+00 4.6402630954961343e-07 1.9999999999999762e+08 0.0000000000000000e+00 0.0000000000000000e+00 0.0000000000000000e+00 0.0000000000000000e+00  6.3477840640892015e-07 -1.9344746481325400e-07 0.0000000000000000e+00 -1.9344746481325400e-07 2.0000000000000089e+08 0.0000000000000000e+00 0.0000000000000000e+00 0.0000000000000000e+00 0.0000000000000000e+00  -4.0532083710178032e-07 -4.2732620190950156e-07 0.0000000000000000e+00 -4.2732620190950156e-07 2.0000000000000128e+08 0.0000000000000000e+00 0.0000000000000000e+00 0.0000000000000000e+00 0.0000000000000000e+00  -4.2379586777398097e-07 2.8629226207140716e-08 0.0000000000000000e+00 2.8629226207140716e-08 2.0000000000000066e+08 0.0000000000000000e+00 0.0000000000000000e+00 0.0000000000000000e+00 0.0000000000000000e+00  5.7103094944067118e-08 -2.6884491585742414e-07 0.0000000000000000e+00 -2.6884491585742414e-07 2.0000000000000075e+08 0.0000000000000000e+00 0.0000000000000000e+00 0.0000000000000000e+00 0.0000000000000000e+00  -3.9668591440139059e-07 -8.7081157410105134e-08 0.0000000000000000e+00 -8.7081157410105134e-08 2.0000000000000137e+08 0.0000000000000000e+00 0.0000000000000000e+00 0.0000000000000000e+00 0.0000000000000000e+00  5.0601826720162835e-07 3.4746428304255402e-07 0.0000000000000000e+00 3.4746428304255402e-07 2.0000000000000039e+08 0.0000000000000000e+00 0.0000000000000000e+00 0.0000000000000000e+00 0.0000000000000000e+00  9.4170250898792027e-07 1.1274615225146688e-06 0.0000000000000000e+00 1.1274615225146688e-06 1.9999999999999985e+08 0.0000000000000000e+00 0.0000000000000000e+00 0.0000000000000000e+00 0.0000000000000000e+00  1.1818773077434586e-06 -2.4510565972327331e-07 0.0000000000000000e+00 -2.4510565972327331e-07 2.0000000000000042e+08 0.0000000000000000e+00 0.0000000000000000e+00 0.0000000000000000e+00 0.0000000000000000e+00  -3.1054319997474702e-07 -5.7665613389432251e-07 0.0000000000000000e+00 -5.7665613389432251e-07 2.0000000000000086e+08 0.0000000000000000e+00 0.0000000000000000e+00 0.0000000000000000e+00 0.0000000000000000e+00  3.6399047584706132e-07 -2.0721137389134229e-07 0.0000000000000000e+00 -2.0721137389134229e-07 2.0000000000000063e+08 0.0000000000000000e+00 0.0000000000000000e+00 0.0000000000000000e+00 0.0000000000000000e+00  1.3189492700787198e-06 -6.6240079710849236e-07 0.0000000000000000e+00 -6.6240079710849236e-07 2.0000000000000075e+08 0.0000000000000000e+00 0.0000000000000000e+00 0.0000000000000000e+00 0.0000000000000000e+00  8.5930857735140957e-07 -6.6860371159790397e-08 0.0000000000000000e+00 -6.6860371159790397e-08 2.0000000000000027e+08 0.0000000000000000e+00 0.0000000000000000e+00 0.0000000000000000e+00 0.0000000000000000e+00  -2.2871454013229168e-08 -1.7234999168446223e-07 0.0000000000000000e+00 -1.7234999168446223e-07 2.0000000000000057e+08 0.0000000000000000e+00 0.0000000000000000e+00 0.0000000000000000e+00 0.0000000000000000e+00  2.4560346922461113e-07 -5.0656964080728988e-07 0.0000000000000000e+00 -5.0656964080728988e-07 2.0000000000000113e+08 0.0000000000000000e+00 0.0000000000000000e+00 0.0000000000000000e+00 0.0000000000000000e+00  1.4938081925619095e-07 9.0003252939668947e-07 0.0000000000000000e+00 9.0003252939668947e-07 1.9999999999999985e+08 0.0000000000000000e+00 0.0000000000000000e+00 0.0000000000000000e+00 0.0000000000000000e+00  -8.2048894191837772e-07 3.4178941600291119e-07 0.0000000000000000e+00 3.4178941600291119e-07 2.0000000000000000e+08 0.0000000000000000e+00 0.0000000000000000e+00 0.0000000000000000e+00 0.0000000000000000e+00  3.7322491764970529e-07 -1.3196861519429312e-07 0.0000000000000000e+00 -1.3196861519429312e-07 2.0000000000000101e+08 0.0000000000000000e+00 0.0000000000000000e+00 0.0000000000000000e+00 0.0000000000000000e+00  -1.6440733803819228e-06 -8.6187395800914974e-08 0.0000000000000000e+00 -8.6187395800914974e-08 1.9999999999999979e+08 0.0000000000000000e+00 0.0000000000000000e+00 0.0000000000000000e+00 0.0000000000000000e+00  7.9891366754002396e-07 3.1357809686128910e-07 0.0000000000000000e+00 3.1357809686128910e-07 1.9999999999999982e+08 0.0000000000000000e+00 0.0000000000000000e+00 0.0000000000000000e+00 0.0000000000000000e+00  -1.5589202344590685e-06 1.3730089372901588e-07 0.0000000000000000e+00 1.3730089372901588e-07 1.9999999999999973e+08 0.0000000000000000e+00 0.0000000000000000e+00 0.0000000000000000e+00 0.0000000000000000e+00  1.7271721369524265e-08 1.2743978865186470e-07 0.0000000000000000e+00 1.2743978865186470e-07 2.0000000000000036e+08 0.0000000000000000e+00 0.0000000000000000e+00 0.0000000000000000e+00 0.0000000000000000e+00  -6.1753120455149195e-07 2.0573834844458915e-07 0.0000000000000000e+00 2.0573834844458915e-07 2.0000000000000021e+08 0.0000000000000000e+00 0.0000000000000000e+00 0.0000000000000000e+00 0.0000000000000000e+00  -2.0618216082102164e-07 -5.7541888622684753e-07 0.0000000000000000e+00 -5.7541888622684753e-07 2.0000000000000051e+08 0.0000000000000000e+00 0.0000000000000000e+00 0.0000000000000000e+00 0.0000000000000000e+00  2.0370397006280207e-07 1.1572545353578283e-07 0.0000000000000000e+00 1.1572545353578283e-07 2.0000000000000015e+08 0.0000000000000000e+00 0.0000000000000000e+00 0.0000000000000000e+00 0.0000000000000000e+00  -7.8928735965653926e-07 -1.7232514041454918e-07 0.0000000000000000e+00 -1.7232514041454918e-07 1.9999999999999949e+08 0.0000000000000000e+00 0.0000000000000000e+00 0.0000000000000000e+00 0.0000000000000000e+00  3.9929938178264533e-07 -2.4569343715865901e-07 0.0000000000000000e+00 -2.4569343715865901e-07 1.9999999999999949e+08 0.0000000000000000e+00 0.0000000000000000e+00 0.0000000000000000e+00 0.0000000000000000e+00  -3.1955770199411456e-07 6.7174417964668850e-07 0.0000000000000000e+00 6.7174417964668850e-07 1.9999999999999949e+08 0.0000000000000000e+00 0.0000000000000000e+00 0.0000000000000000e+00 0.0000000000000000e+00  2.7403913919524055e-07 3.7484671043462476e-07 0.0000000000000000e+00 3.7484671043462476e-07 1.9999999999999914e+08 0.0000000000000000e+00 0.0000000000000000e+00 0.0000000000000000e+00 0.0000000000000000e+00  6.6576219213026288e-07 2.0019674913507689e-07 0.0000000000000000e+00 2.0019674913507689e-07 1.9999999999999890e+08 0.0000000000000000e+00 0.0000000000000000e+00 0.0000000000000000e+00 0.0000000000000000e+00  1.8903329548688053e-07 -1.7596964015312685e-07 0.0000000000000000e+00 -1.7596964015312685e-07 1.9999999999999905e+08 0.0000000000000000e+00 0.0000000000000000e+00 0.0000000000000000e+00 0.0000000000000000e+00  1.9240559948777224e-07 2.6524204116260730e-07 0.0000000000000000e+00 2.6524204116260730e-07 1.9999999999999902e+08 0.0000000000000000e+00 0.0000000000000000e+00 0.0000000000000000e+00 0.0000000000000000e+00  -6.0445159157308570e-07 1.2663525439503180e-07 0.0000000000000000e+00 1.2663525439503180e-07 1.9999999999999949e+08 0.0000000000000000e+00 0.0000000000000000e+00 0.0000000000000000e+00 0.0000000000000000e+00  1.3521658685050683e-07 -7.2561787835953855e-08 0.0000000000000000e+00 -7.2561787835953855e-08 1.9999999999999961e+08 0.0000000000000000e+00 0.0000000000000000e+00 0.0000000000000000e+00 0.0000000000000000e+00  2.4214816508702660e-07 -1.8783063338046203e-07 0.0000000000000000e+00 -1.8783063338046203e-07 1.9999999999999994e+08 0.0000000000000000e+00 0.0000000000000000e+00 0.0000000000000000e+00 0.0000000000000000e+00  -1.1198380408060540e-07 3.6081743730536244e-08 0.0000000000000000e+00 3.6081743730536244e-08 1.9999999999999979e+08 0.0000000000000000e+00 0.0000000000000000e+00 0.0000000000000000e+00 0.0000000000000000e+00  -1.6045105485859463e-07 4.7349135192270711e-08 0.0000000000000000e+00 4.7349135192270711e-08 1.9999999999999949e+08 0.0000000000000000e+00 0.0000000000000000e+00 0.0000000000000000e+00 0.0000000000000000e+00  2.0685670208646149e-07 -6.0187730781554252e-08 0.0000000000000000e+00 -6.0187730781554252e-08 2.0000000000000012e+08 0.0000000000000000e+00 0.0000000000000000e+00 0.0000000000000000e+00 0.0000000000000000e+00  -1.0901682243615723e-07 -2.5652700596130370e-07 0.0000000000000000e+00 -2.5652700596130370e-07 1.9999999999999949e+08 0.0000000000000000e+00 0.0000000000000000e+00 0.0000000000000000e+00 0.0000000000000000e+00  -1.4546460572892038e-07 5.0966545804934053e-08 0.0000000000000000e+00 5.0966545804934053e-08 2.0000000000000021e+08 0.0000000000000000e+00 0.0000000000000000e+00 0.0000000000000000e+00 0.0000000000000000e+00  -4.2789532175018535e-07 -4.2869345379674115e-07 0.0000000000000000e+00 -4.2869345379674115e-07 1.9999999999999893e+08 0.0000000000000000e+00 0.0000000000000000e+00 0.0000000000000000e+00 0.0000000000000000e+00  -3.5705706248647366e-07 -9.7445569827110683e-07 0.0000000000000000e+00 -9.7445569827110683e-07 1.9999999999999905e+08 0.0000000000000000e+00 0.0000000000000000e+00 0.0000000000000000e+00 0.0000000000000000e+00  -1.9518531632465056e-06 -8.9922628818300864e-07 0.0000000000000000e+00 -8.9922628818300864e-07 1.9999999999999899e+08 0.0000000000000000e+00 0.0000000000000000e+00 0.0000000000000000e+00 0.0000000000000000e+00  2.3434103329525928e-06 -5.2857546554976526e-08 0.0000000000000000e+00 -5.2857546554976526e-08 2.0000000000000256e+08 0.0000000000000000e+00 0.0000000000000000e+00 0.0000000000000000e+00 0.0000000000000000e+00  -9.8452029150016266e-07 -2.2545317890041670e-08 0.0000000000000000e+00 -2.2545317890041670e-08 1.9999999999999991e+08 0.0000000000000000e+00 0.0000000000000000e+00 0.0000000000000000e+00 0.0000000000000000e+00  2.9529239763351469e-07 -6.2588303460097420e-07 0.0000000000000000e+00 -6.2588303460097420e-07 2.0000000000000116e+08 0.0000000000000000e+00 0.0000000000000000e+00 0.0000000000000000e+00 0.0000000000000000e+00  -4.7397943711322728e-08 2.5506689783572595e-08 0.0000000000000000e+00 2.5506689783572595e-08 2.0000000000000039e+08 0.0000000000000000e+00 0.0000000000000000e+00 0.0000000000000000e+00 0.0000000000000000e+00  -1.1538532143007124e-06 7.8700244750256066e-07 0.0000000000000000e+00 7.8700244750256066e-07 2.0000000000000137e+08 0.0000000000000000e+00 0.0000000000000000e+00 0.0000000000000000e+00 0.0000000000000000e+00  -8.6981161833239729e-09 -5.2388405748820853e-08 0.0000000000000000e+00 -5.2388405748820853e-08 2.0000000000000128e+08 0.0000000000000000e+00 0.0000000000000000e+00 0.0000000000000000e+00 0.0000000000000000e+00  8.5569132534025684e-07 1.7474280380880674e-07 0.0000000000000000e+00 1.7474280380880674e-07 1.9999999999999952e+08 0.0000000000000000e+00 0.0000000000000000e+00 0.0000000000000000e+00 0.0000000000000000e+00  2.2437868482222623e-07 -6.2831481230733058e-07 0.0000000000000000e+00 -6.2831481230733058e-07 2.0000000000000259e+08 0.0000000000000000e+00 0.0000000000000000e+00 0.0000000000000000e+00 0.0000000000000000e+00  -2.9778115352893810e-07 1.5885174293208418e-07 0.0000000000000000e+00 1.5885174293208418e-07 2.0000000000000003e+08 0.0000000000000000e+00 0.0000000000000000e+00 0.0000000000000000e+00 0.0000000000000000e+00  -4.1817884288540808e-07 5.2645291781131623e-08 0.0000000000000000e+00 5.2645291781131623e-08 1.9999999999999890e+08 0.0000000000000000e+00 0.0000000000000000e+00 0.0000000000000000e+00 0.0000000000000000e+00  -3.6515404545543989e-07 -9.7913329497190156e-08 0.0000000000000000e+00 -9.7913329497190156e-08 1.9999999999999925e+08 0.0000000000000000e+00 0.0000000000000000e+00 0.0000000000000000e+00 0.0000000000000000e+00  2.0907344758249303e-07 4.9471950171291177e-08 0.0000000000000000e+00 4.9471950171291177e-08 2.0000000000000021e+08 0.0000000000000000e+00 0.0000000000000000e+00 0.0000000000000000e+00 0.0000000000000000e+00  7.8111556531815622e-07 -1.2362112839919697e-07 0.0000000000000000e+00 -1.2362112839919697e-07 1.9999999999999923e+08 0.0000000000000000e+00 0.0000000000000000e+00 0.0000000000000000e+00 0.0000000000000000e+00  4.0403116840714756e-07 -3.8398882477732155e-08 0.0000000000000000e+00 -3.8398882477732155e-08 1.9999999999999943e+08 0.0000000000000000e+00 0.0000000000000000e+00 0.0000000000000000e+00 0.0000000000000000e+00  2.8492675275212271e-07 1.1794526289086480e-06 0.0000000000000000e+00 1.1794526289086480e-06 2.0000000000000083e+08 0.0000000000000000e+00 0.0000000000000000e+00 0.0000000000000000e+00 0.0000000000000000e+00  3.6198149892292387e-07 8.1371688447053028e-07 0.0000000000000000e+00 8.1371688447053028e-07 1.9999999999999994e+08 0.0000000000000000e+00 0.0000000000000000e+00 0.0000000000000000e+00 0.0000000000000000e+00  -7.2975674014440310e-07 -1.4596560012690470e-07 0.0000000000000000e+00 -1.4596560012690470e-07 2.0000000000000066e+08 0.0000000000000000e+00 0.0000000000000000e+00 0.0000000000000000e+00 0.0000000000000000e+00  -1.8327307210743345e-07 8.2826041589531653e-07 0.0000000000000000e+00 8.2826041589531653e-07 2.0000000000000179e+08 0.0000000000000000e+00 0.0000000000000000e+00 0.0000000000000000e+00 0.0000000000000000e+00  4.1256112193811141e-07 3.4619398559512515e-07 0.0000000000000000e+00 3.4619398559512515e-07 2.0000000000000340e+08 0.0000000000000000e+00 0.0000000000000000e+00 0.0000000000000000e+00 0.0000000000000000e+00  9.2696167384759862e-07 -1.0043710593958587e-07 0.0000000000000000e+00 -1.0043710593958587e-07 2.0000000000000092e+08 0.0000000000000000e+00 0.0000000000000000e+00 0.0000000000000000e+00 0.0000000000000000e+00  1.5844184723702982e-07 -5.8510685449288445e-07 0.0000000000000000e+00 -5.8510685449288445e-07 2.0000000000000066e+08 0.0000000000000000e+00 0.0000000000000000e+00 0.0000000000000000e+00 0.0000000000000000e+00  -6.4684617313868776e-07 1.8123367975600805e-07 0.0000000000000000e+00 1.8123367975600805e-07 2.0000000000000167e+08 0.0000000000000000e+00 0.0000000000000000e+00 0.0000000000000000e+00 0.0000000000000000e+00  -2.5473790868070617e-07 -6.3839644703491581e-08 0.0000000000000000e+00 -6.3839644703491581e-08 1.9999999999999982e+08 0.0000000000000000e+00 0.0000000000000000e+00 0.0000000000000000e+00 0.0000000000000000e+00  1.3790736088251059e-08 7.2575122358339859e-07 0.0000000000000000e+00 7.2575122358339859e-07 1.9999999999999875e+08 0.0000000000000000e+00 0.0000000000000000e+00 0.0000000000000000e+00 0.0000000000000000e+00  -7.9006786543294444e-07 -5.4655172813481938e-07 0.0000000000000000e+00 -5.4655172813481938e-07 2.0000000000000060e+08 0.0000000000000000e+00 0.0000000000000000e+00 0.0000000000000000e+00 0.0000000000000000e+00  -5.6443582866753078e-07 4.1884133323482747e-07 0.0000000000000000e+00 4.1884133323482747e-07 2.0000000000000143e+08 0.0000000000000000e+00 0.0000000000000000e+00 0.0000000000000000e+00 0.0000000000000000e+00  -4.4984518937968738e-07 -7.7870337761400203e-07 0.0000000000000000e+00 -7.7870337761400203e-07 2.0000000000000212e+08 0.0000000000000000e+00 0.0000000000000000e+00 0.0000000000000000e+00 0.0000000000000000e+00  -1.7308309908735482e-06 -6.9411197743083429e-07 0.0000000000000000e+00 -6.9411197743083429e-07 2.0000000000000089e+08 0.0000000000000000e+00 0.0000000000000000e+00 0.0000000000000000e+00 0.0000000000000000e+00  1.1309171697352352e-06 -3.4916722916026483e-07 0.0000000000000000e+00 -3.4916722916026483e-07 2.0000000000000271e+08 0.0000000000000000e+00 0.0000000000000000e+00 0.0000000000000000e+00 0.0000000000000000e+00  -2.2377276438670765e-06 3.2652802084300749e-07 0.0000000000000000e+00 3.2652802084300749e-07 1.9999999999999949e+08 0.0000000000000000e+00 0.0000000000000000e+00 0.0000000000000000e+00 0.0000000000000000e+00  -7.2727030863497675e-07 5.1589848095841672e-07 0.0000000000000000e+00 5.1589848095841672e-07 1.9999999999999928e+08 0.0000000000000000e+00 0.0000000000000000e+00 0.0000000000000000e+00 0.0000000000000000e+00  -2.0029164207612355e-06 -3.5330502625803306e-07 0.0000000000000000e+00 -3.5330502625803306e-07 1.9999999999999997e+08 0.0000000000000000e+00 0.0000000000000000e+00 0.0000000000000000e+00 0.0000000000000000e+00  -1.7788079496928316e-06 6.4343791049986711e-07 0.0000000000000000e+00 6.4343791049986711e-07 2.0000000000000083e+08 0.0000000000000000e+00 0.0000000000000000e+00 0.0000000000000000e+00 0.0000000000000000e+00  -6.4745524804162582e-08 -2.6503757099960287e-07 0.0000000000000000e+00 -2.6503757099960287e-07 2.0000000000000122e+08 0.0000000000000000e+00 0.0000000000000000e+00 0.0000000000000000e+00 0.0000000000000000e+00  6.1273540960472519e-07 1.4264044684492578e-07 0.0000000000000000e+00 1.4264044684492578e-07 1.9999999999999794e+08 0.0000000000000000e+00 0.0000000000000000e+00 0.0000000000000000e+00 0.0000000000000000e+00  -1.1644879092212419e-06 -1.1592914292958218e-07 0.0000000000000000e+00 -1.1592914292958218e-07 1.9999999999999785e+08 0.0000000000000000e+00 0.0000000000000000e+00 0.0000000000000000e+00 0.0000000000000000e+00  -8.2472912819850547e-07 -6.0790720382578281e-07 0.0000000000000000e+00 -6.0790720382578281e-07 1.9999999999999946e+08 0.0000000000000000e+00 0.0000000000000000e+00 0.0000000000000000e+00 0.0000000000000000e+00  -1.1895496129683251e-06 5.2459796459798922e-07 0.0000000000000000e+00 5.2459796459798922e-07 2.0000000000000113e+08 0.0000000000000000e+00 0.0000000000000000e+00 0.0000000000000000e+00 0.0000000000000000e+00  2.3616089902673837e-07 6.3511123993114901e-07 0.0000000000000000e+00 6.3511123993114901e-07 1.9999999999999934e+08 0.0000000000000000e+00 0.0000000000000000e+00 0.0000000000000000e+00 0.0000000000000000e+00  3.3193260045732780e-08 7.9953374204298918e-07 0.0000000000000000e+00 7.9953374204298918e-07 1.9999999999999878e+08 0.0000000000000000e+00 0.0000000000000000e+00 0.0000000000000000e+00 0.0000000000000000e+00  1.6626362084315328e-06 -1.5083437423422840e-07 0.0000000000000000e+00 -1.5083437423422840e-07 2.0000000000000060e+08 0.0000000000000000e+00 0.0000000000000000e+00 0.0000000000000000e+00 0.0000000000000000e+00  9.9237926267761002e-07 -1.1019836311991790e-06 0.0000000000000000e+00 -1.1019836311991790e-06 1.9999999999999717e+08 0.0000000000000000e+00 0.0000000000000000e+00 0.0000000000000000e+00 0.0000000000000000e+00  1.0835138880558591e-06 -6.3723726776417004e-07 0.0000000000000000e+00 -6.3723726776417004e-07 1.9999999999999902e+08 0.0000000000000000e+00 0.0000000000000000e+00 0.0000000000000000e+00 0.0000000000000000e+00  5.8558650133815313e-07 -1.7895240593991981e-07 0.0000000000000000e+00 -1.7895240593991981e-07 2.0000000000000080e+08 0.0000000000000000e+00 0.0000000000000000e+00 0.0000000000000000e+00 0.0000000000000000e+00  4.9889687357021314e-07 1.8570016963284307e-08 0.0000000000000000e+00 1.8570016963284307e-08 1.9999999999999884e+08 0.0000000000000000e+00 0.0000000000000000e+00 0.0000000000000000e+00 0.0000000000000000e+00  1.2215757781100418e-06 4.6882711945535446e-07 0.0000000000000000e+00 4.6882711945535446e-07 1.9999999999999833e+08 0.0000000000000000e+00 0.0000000000000000e+00 0.0000000000000000e+00 0.0000000000000000e+00  7.7307799123373244e-07 -3.3463869943853096e-07 0.0000000000000000e+00 -3.3463869943853096e-07 1.9999999999999917e+08 0.0000000000000000e+00 0.0000000000000000e+00 0.0000000000000000e+00 0.0000000000000000e+00  4.2250057366594280e-07 -5.0761880042747479e-08 0.0000000000000000e+00 -5.0761880042747479e-08 1.9999999999999687e+08 0.0000000000000000e+00 0.0000000000000000e+00 0.0000000000000000e+00 0.0000000000000000e+00  -5.1025389761219439e-07 1.6253604058151576e-07 0.0000000000000000e+00 1.6253604058151576e-07 1.9999999999999738e+08 0.0000000000000000e+00 0.0000000000000000e+00 0.0000000000000000e+00 0.