<?xml version="1.0"?>
<VTKFile type="UnstructuredGrid"  version="0.1"  >
<UnstructuredGrid>
<Piece  NumberOfPoints="4855" NumberOfCells="8780">
<Points>
<DataArray  type="Float64"  NumberOfComponents="3"  format="ascii">0.9483880164242298 0.6836931311526558 0  0.9494264999197789 0.6847056440044139 0  0.9494005292759887 0.6847228078606633 0  0.9735520289385229 0.7444444444444445 0  0.9494005292759886 0.8041660810282256 0  0.94942649991978 0.8041832448844759 0  0.9483880175070514 0.8051957566534116 0  3.131175874138137e-16 0.09811450876034808 0  0.06838800723463068 0.1543033514199101 0  0.05161198249294494 0.1948042433465922 0  0.0505735000802211 0.1958167551155251 0  0.05059947072401128 0.1958339189717744 0  0.0505994707240113 0.3152771921393367 0  0.05057350008021998 0.315294355995587 0  0.05161198357913653 0.3163068688507105 0  0.06838800723463068 0.356807759691201 0  3.252606517456513e-16 0.4129966023507631 0  -1.795438797635995e-16 0.4839416311832997 0  0.07083274769489223 0.4605116403870998 0  0.07084991155114129 0.4605376110308903 0  0.07186242331670639 0.4594991286215342 0  0.1696402113702762 0.5 0  0.07186242332008326 0.5405008713818427 0  0.0708499115511413 0.5394623889691096 0  0.07083274769489219 0.5394883596129002 0  -1.925543058334256e-16 0.5160583688167003 0  1.484923295436147e-15 0.5870033976492365 0  0.06838800723463068 0.643192240308799 0  0.05161198249294541 0.6836931322354806 0  0.05057350008022109 0.6847056440044139 0  0.0505994707240113 0.6847228078606633 0  0.0505994707240113 0.8041660810282256 0  0.05057350008021999 0.804183244884476 0  0.05161198249294764 0.8051957566534106 0  0.06838800723463068 0.84569664858009 0  1.485790657174135e-15 0.9018854912396524 0  0 1 0  1 1 0  0.9999999999999987 0.9018854912396523 0  1.000000000000001 0.5870033976492375 0  1 0.5160583688167003 0  0.9291672523051078 0.5394883596129003 0  0.9291500884488585 0.5394623889691117 0  0.9281375755937461 0.5405008724680134 0  0.9281375755937372 0.4594991275319777 0  0.9291500884488586 0.4605376110308884 0  0.9291672523051077 0.4605116403870997 0  1 0.4839416311832997 0  0.9999999999999987 0.4129966023507635 0  0.948388017507054 0.31630686776452 0  0.94942649991978 0.3152943559955871 0  0.9494005292759886 0.3152771921393367 0  0.9735520289385229 0.2555555555555555 0  0.9494005292759888 0.1958339189717744 0  0.9494264999197789 0.1958167551155251 0  0.9483880164208631 0.1948042422604003 0  1.000000000000001 0.09811450876034861 0  1 0 0  0 0 0  0.1958339189717744 0.2950439151684559 0  0.1958167551155252 0.2950179445246672 0  0.3152771921393367 0.2950439151684557 0  0.1948042433481841 0.2960564269357975 0  0.3152943559955858 0.2950179445246651 0  0.1948042422604031 0.2150546830875326 0  0.3163068677645244 0.2960564269373949 0  0.1958167551155251 0.2160931665864439 0  0.4140846558147206 0.2555555555555555 0  0.1958339189717744 0.2160671959426553 0  0.3163068688489276 0.215054683089313 0  0.3152771921393367 0.2160671959426553 0  0.3152943559955858 0.2160931665864459 0  0.5405008724680257 0.3163068688507107 0  0.5572768961235196 0.356807759691201 0  0.5394623889691089 0.3152943559955871 0  0.459499128618165 0.3163068677645201 0  0.5394883596129003 0.3152771921393367 0  0.4605376110308911 0.3152943559955871 0  0.5394883596129001 0.1958339189717744 0  0.4605116403870998 0.3152771921393367 0  0.53946238896911 0.1958167551155251 0  0.4846631400496339 0.2555555555555555 0  0.5405008724680251 0.1948042422604009 0  0.4605116403870998 0.1958339189717744 0  0.5572768961235196 0.1543033514199101 0  0.46053761103089 0.1958167551155251 0  0.4594991286269881 0.1948042433554141 0  0.6847228078606633 0.2950439151684559 0  0.684705644004414 0.2950179445246672 0  0.8041660810282256 0.2950439151684557 0  0.683693131164073 0.2960564280087975 0  0.8041832448844747 0.2950179445246651 0  0.6836931322354718 0.2150546841737125 0  0.8051957566534156 0.2960564269373971 0  0.6847056440044141 0.2160931665864439 0  0.9029735447036096 0.2555555555555555 0  0.6847228078606632 0.2160671959426553 0  0.8051957577274008 0.2150546830997286 0  0.8041660810282256 0.2160671959426553 0  0.8041832448844747 0.2160931665864459 0  0.2960564280235811 0.560751313295155 0  0.3128324516790751 0.6012522041356455 0  0.2950179445246645 0.5597388004400315 0  0.2150546830875235 0.5607513132951615 0  0.2950439151684557 0.5597216365837812 0  0.2160931665864466 0.5597388004400314 0  0.2950439151684558 0.4402783634162188 0  0.2160671959426553 0.5597216365837812 0  0.2950179445246656 0.4402611995599696 0  0.2402186956051895 0.5 0  0.29605642693739 0.439248687791036 0  0.2160671959426553 0.4402783634162189 0  0.3128324516790751 0.3987477958643545 0  0.2160931665864455 0.4402611995599696 0  0.2150546830875296 0.4392486867048446 0  0.1958339189717743 0.7839328040573448 0  0.1958167551155252 0.7839068334135562 0  0.3152771921393367 0.7839328040573447 0  0.1948042422604028 0.7849453169124678 0  0.3152943559955858 0.783906833413554 0  0.1948042433465913 0.7039435730626098 0  0.3163068677645284 0.7849453158262878 0  0.1958167551155251 0.7049820554753328 0  0.4140846558147206 0.7444444444444445 0  0.1958339189717744 0.7049560848315441 0  0.3163068688486237 0.7039435719785058 0  0.3152771921393367 0.7049560848315441 0  0.3152943559955858 0.7049820554753349 0  0.4402783634162188 0.5394883596129003 0  0.4402611995599696 0.5394623889691117 0  0.5597216365837812 0.5394883596129002 0  0.4392486867048468 0.5405008724680237 0  0.5597388004400302 0.5394623889691096 0  0.4392486877998708 0.4594991286270004 0  0.5607513122089726 0.540500871381843 0  0.4402611995599696 0.4605376110308884 0  0.6585291002591651 0.5 0  0.4402783634162188 0.4605116403870998 0  0.5607513121946796 0.45949912863245 0  0.5597216365837812 0.4605116403870998 0  0.5597388004400302 0.4605376110308904 0  0.78494531690701 0.5607513132896949 0  0.8017213405679641 0.6012522041356455 0  0.7839068334135535 0.5597388004400315 0  0.7039435730626069 0.5607513122089671 0  0.7839328040573448 0.5597216365837812 0  0.7049820554753355 0.5597388004400314 0  0.7839328040573448 0.4402783634162188 0  0.7049560848315441 0.5597216365837812 0  0.7839068334135545 0.4402611995599696 0  0.7291075844940784 0.5 0  0.784945315826279 0.4392486877910359 0  0.7049560848315444 0.4402783634162188 0  0.8017213405679641 0.3987477958643545 0  0.7049820554753344 0.4402611995599696 0  0.7039435719764182 0.4392486867048443 0  0.5405008724625655 0.8051957577341393 0  0.5572768961235196 0.84569664858009 0  0.539462388969109 0.804183244884476 0  0.4594991286181648 0.8051957566534091 0  0.5394883596129003 0.8041660810282256 0  0.4605376110308911 0.804183244884476 0  0.5394883596129003 0.6847228078606633 0  0.4605116403870998 0.8041660810282256 0  0.53946238896911 0.6847056440044139 0  0.4846631400496339 0.7444444444444445 0  0.5405008713818347 0.6836931322354802 0  0.4605116403870998 0.6847228078606633 0  0.5572768961235196 0.643192240308799 0  0.46053761103089 0.6847056440044139 0  0.4594991275353449 0.6836931311526599 0  0.6847228078606633 0.7839328040573448 0  0.684705644004414 0.7839068334135562 0  0.8041660810282256 0.7839328040573447 0  0.6836931311493016 0.7849453169124578 0  0.8041832448844747 0.783906833413554 0  0.68369313223548 0.7039435730626096 0  0.805195756653417 0.7849453158262875 0  0.6847056440044141 0.7049820554753328 0  0.9029735447036096 0.7444444444444445 0  0.6847228078606633 0.7049560848315441 0  0.805195757738809 0.7039435719772094 0  0.8041660810282256 0.7049560848315441 0  0.8041832448844747 0.7049820554753349 0  0.9578164230213342 0.6948838683471341 0  0.9645772892192558 0.7062137009141434 0  0.9695236884064815 0.7184451175460498 0  0.972538971146615 0.7312896684428197 0  0.9725389711466151 0.7575992204460691 0  0.9695236884064815 0.7704437713428391 0  0.9645772892192558 0.7826751879747456 0  0.9578164230213342 0.7940050205417549 0  0.01437766570919127 0.09711967848259151 0  0.02854851642641832 0.09974531144948819 0  0.04161535472570586 0.1058251712658871 0  0.05275088139110013 0.1149743244732108 0  0.06125007411586489 0.1266135117968212 0  0.06657482449792251 0.1400058227212122 0  0.06643634307317195 0.1691277076584997 0  0.06071435336153361 0.1829418078690686 0  0.04134737123322858 0.3039103077764334 0  0.03416190609801732 0.2911362521989113 0  0.02925217947541549 0.2773267630846004 0  0.02676106927623143 0.2628837102534819 0  0.02676106927623143 0.2482274008576293 0  0.02925217947541547 0.2337843480265108 0  0.03416190609801727 0.2199748589121999 0  0.04134737123322851 0.2072008033346779 0  0.06071435387356935 0.328169304128914 0  0.06643634320569657 0.3419834039471998 0  0.06657482449792249 0.371105288389899 0  0.06125007411586481 0.3844975993142901 0  0.05275088139109994 0.3961367866379005 0  0.04161535472570563 0.4052859398452242 0  0.02854851642641818 0.411365799661623 0  0.01437766570919127 0.4139914326285196 0  0 0.4697526254167924 0  0 0.455563619650285 0  0 0.4413746138837777 0  0 0.4271856081172704 0  0.06095233986089402 0.4687284952262988 0  0.04995687430503332 0.4753797281664747 0  0.03809234373417287 0.4803165365228644 0  0.02562418374773841 0.4834284730529493 0  0.01283133446055119 0.4846459169037758 0  0.08372485599813187 0.4503967593658507 0  0.09753895276796982 0.4446747697099958 0  0.1123633055586467 0.4427231038764812 0  0.1271876590095525 0.4446747646950606 0  0.1410017577150834 0.45039674967774 0  0.1528641934757506 0.4594991149204779 0  0.161966560724962 0.471361549141524 0  0.1676885480442292 0.4851756468792086 0  0.1676885480443665 0.514824353120279 0  0.1619665607254926 0.528638450857557 0  0.1528641934768762 0.5405008850783964 0  0.1410017577169217 0.5496032503211987 0  0.1271876590121153 0.5553252353042526 0  0.1123633055618306 0.5572768961235188 0  0.09753895277155772 0.5553252302909656 0  0.08372485600180817 0.5496032406362719 0  0.0128313344605512 0.5153540830962242 0  0.0256241837477384 0.5165715269470507 0  0.03809234373417282 0.5196834634771356 0  0.04995687430503334 0.5246202718335253 0  0.06095233986089401
[...]
<PointData  Vectors="$u$"> 
<DataArray  type="Float64"  Name="$u$"  NumberOfComponents="3" format="ascii">5.3352107152269210e-03 4.0080645421686163e-02 0.0000000000000000e+00  5.2059966490762988e-03 4.0127059153126518e-02 0.0000000000000000e+00  5.2040334431255166e-03 4.0125759202861981e-02 0.0000000000000000e+00  3.9728719454272863e-04 4.0711931154795593e-02 0.0000000000000000e+00  -7.4124847843613935e-04 3.9472269533767833e-02 0.0000000000000000e+00  -7.4128020797733574e-04 3.9472963963186121e-02 0.0000000000000000e+00  -7.3056035364855185e-04 3.9438962991215118e-02 0.0000000000000000e+00  -4.2563556993904218e-05 2.7598918055610129e-05 0.0000000000000000e+00  1.9596823710147576e-05 4.6699942233913817e-04 0.0000000000000000e+00  3.7170840508328555e-04 5.7112428804247247e-04 0.0000000000000000e+00  3.8406022074911303e-04 5.4121118792744920e-04 0.0000000000000000e+00  3.8405273741681063e-04 5.4182617039436672e-04 0.0000000000000000e+00  -5.5819805099897278e-03 -1.3386678924386542e-04 0.0000000000000000e+00  -5.5839672938825472e-03 -1.3522234112274984e-04 0.0000000000000000e+00  -5.7161517094943661e-03 -8.6067267633394424e-05 0.0000000000000000e+00  -1.1061167279305506e-02 1.7026331672724683e-03 0.0000000000000000e+00  -1.8402503564617936e-02 -7.2627310712538680e-03 0.0000000000000000e+00  -2.7745193625314971e-02 -7.2627659629895180e-03 0.0000000000000000e+00  -2.4660589647085195e-02 2.0648920079659235e-03 0.0000000000000000e+00  -2.4664002158120917e-02 2.0671496154391527e-03 0.0000000000000000e+00  -2.4527755252680510e-02 2.2005666194771234e-03 0.0000000000000000e+00  -2.3962348989534848e-02 1.9921631127322158e-02 0.0000000000000000e+00  -2.4660722982695959e-02 3.7814461698944729e-02 0.0000000000000000e+00  -2.4797116401793527e-02 3.7947172520305529e-02 0.0000000000000000e+00  -2.4793706892459008e-02 3.7949424044111203e-02 0.0000000000000000e+00  -2.7874423185612396e-02 4.7264668926933436e-02 0.0000000000000000e+00  -1.8543987186230345e-02 4.7264577718462014e-02 0.0000000000000000e+00  -1.1213802303029595e-02 3.8306121597945636e-02 0.0000000000000000e+00  -5.8741033456388330e-03 4.0058570130125239e-02 0.0000000000000000e+00  -5.7482103827310527e-03 4.0106588053037608e-02 0.0000000000000000e+00  -5.7463231205019498e-03 4.0105278234134886e-02 0.0000000000000000e+00  1.1009531793512629e-04 3.9448332292926602e-02 0.0000000000000000e+00  1.1008573571384349e-04 3.9448863658110928e-02 0.0000000000000000e+00  9.7775183168869481e-05 3.9421158432899096e-02 0.0000000000000000e+00  -2.5344876464657818e-04 3.9534971370412682e-02 0.0000000000000000e+00  -3.1861914514702138e-04 3.9972129670517276e-02 0.0000000000000000e+00  -2.6781733401532901e-04 4.0000000000000001e-02 0.0000000000000000e+00  -3.6992162434074674e-04 4.0000000000000001e-02 0.0000000000000000e+00  -3.1933330376207662e-04 3.9972079761119821e-02 0.0000000000000000e+00  1.8064874105579068e-02 4.7315018975744957e-02 0.0000000000000000e+00  2.7439275531475883e-02 4.7315084914727669e-02 0.0000000000000000e+00  2.4344505613921007e-02 3.7955512605716474e-02 0.0000000000000000e+00  2.4347940115763758e-02 3.7953243414128958e-02 0.0000000000000000e+00  2.4210629316861059e-02 3.7819403490935113e-02 0.0000000000000000e+00  2.4224073077163746e-02 2.1725829838164326e-03 0.0000000000000000e+00  2.4359563210604156e-02 2.0400411670642776e-03 0.0000000000000000e+00  2.4356171241427037e-02 2.0377976112201258e-03 0.0000000000000000e+00  2.7423900002510784e-02 -7.2383543007380558e-03 0.0000000000000000e+00  1.8132645361467272e-02 -7.2383118170788324e-03 0.0000000000000000e+00  5.5119728088082170e-03 -5.1529222224979393e-05 0.0000000000000000e+00  5.3837721290533672e-03 -1.0040670792588304e-04 0.0000000000000000e+00  5.3818277178154655e-03 -9.9057367150894184e-05 0.0000000000000000e+00  6.4760236466952022e-04 -6.9032039740107105e-04 0.0000000000000000e+00  -4.8030343572732603e-04 5.3726992528557781e-04 0.0000000000000000e+00  -4.8028253472848361e-04 5.3649124303639206e-04 0.0000000000000000e+00  -4.6556840441835674e-04 5.7293852436793302e-04 0.0000000000000000e+00  -5.1256733518592897e-05 2.8022632123300505e-05 0.0000000000000000e+00  -1.0276558056680802e-04 0.0000000000000000e+00 0.0000000000000000e+00  0.0000000000000000e+00 0.0000000000000000e+00 0.0000000000000000e+00  -6.7190795467302056e-03 1.8043881395309682e-02 0.0000000000000000e+00  -6.7196925696988768e-03 1.8041627180630463e-02 0.0000000000000000e+00  -7.7919538713369400e-03 1.8232528343342904e-02 0.0000000000000000e+00  -6.6908030661477803e-03 1.7892914458522639e-02 0.0000000000000000e+00  -7.7921927509938468e-03 1.8231334978758552e-02 0.0000000000000000e+00  -9.9157400736846999e-05 6.0378514988532738e-05 0.0000000000000000e+00  -7.7905272920618948e-03 1.8149340607391470e-02 0.0000000000000000e+00  -1.0246510444113821e-04 6.0528036278676942e-05 0.0000000000000000e+00  -7.4900520792486307e-03 7.0046990692905747e-03 0.0000000000000000e+00  -1.0240262825768345e-04 6.0558271080312750e-05 0.0000000000000000e+00  -2.4666397039112547e-04 5.2038275717111853e-05 0.0000000000000000e+00  -2.4417451104832578e-04 5.2738154357671145e-05 0.0000000000000000e+00  -2.4412013917871604e-04 5.2708197302340384e-05 0.0000000000000000e+00  7.7141727397421001e-03 7.8341497523803233e-03 0.0000000000000000e+00  4.5660872100442727e-03 8.9223521701504976e-03 0.0000000000000000e+00  7.7793928011217206e-03 7.8640430208802396e-03 0.0000000000000000e+00  -7.9730142863556411e-03 7.8166064295051713e-03 0.0000000000000000e+00  7.7802736205674289e-03 7.8634395283812865e-03 0.0000000000000000e+00  -8.0361169220006870e-03 7.8563750309633053e-03 0.0000000000000000e+00  4.4910878218354065e-03 7.8919045438664223e-03 0.0000000000000000e+00  -8.0369435386033437e-03 7.8554897806689204e-03 0.0000000000000000e+00  4.4866648998809870e-03 7.8948184877551363e-03 0.0000000000000000e+00  -8.6864887608536206e-03 8.8159818763780071e-03 0.0000000000000000e+00  4.2360696887309684e-03 7.8062964885440766e-03 0.0000000000000000e+00  -4.6206896697331482e-03 7.8680203892208551e-03 0.0000000000000000e+00  5.3096457050165577e-04 1.2936540880562771e-03 0.0000000000000000e+00  -4.6162274619560503e-03 7.8718555150596760e-03 0.0000000000000000e+00  -4.3645977683921125e-03 7.7448975701480795e-03 0.0000000000000000e+00  7.5420316412731277e-03 1.8252935267124154e-02 0.0000000000000000e+00  7.5420109177391720e-03 1.8251684571637890e-02 0.0000000000000000e+00  6.4708141417502722e-03 1.7898226971875944e-02 0.0000000000000000e+00  7.5508079432866472e-03 1.8164199462011834e-02 0.0000000000000000e+00  6.4712490256132946e-03 1.7896021667132458e-02 0.0000000000000000e+00  1.5346071875292858e-04 5.0073035184068569e-05 0.0000000000000000e+00  6.4475715277304852e-03 1.7751871508618948e-02 0.0000000000000000e+00  1.5137403348668306e-04 5.1918480848108171e-05 0.0000000000000000e+00  1.4114548303994403e-03 2.4828674804990036e-03 0.0000000000000000e+00  1.5142950349183575e-04 5.1956315677610017e-05 0.0000000000000000e+00  5.7410207422792767e-06 5.8122671685771324e-05 0.0000000000000000e+00  8.2202745743768011e-06 6.0086206712152780e-05 0.0000000000000000e+00  8.2814100481382011e-06 6.0046343281383883e-05 0.0000000000000000e+00  1.4541445519248499e-03 1.9929755583933163e-02 0.0000000000000000e+00  -1.9744103826013545e-03 2.1574314000774534e-02 0.0000000000000000e+00  1.5531273082269555e-03 1.9905503570180089e-02 0.0000000000000000e+00  -2.2256057939137326e-02 1.9180712461774125e-02 0.0000000000000000e+00  1.5545582380327699e-03 1.9906241760090763e-02 0.0000000000000000e+00  -2.2389216593953327e-02 1.9129716044910112e-02 0.0000000000000000e+00  1.6027116107167057e-03 2.0277071503979411e-02 0.0000000000000000e+00  -2.2391227562204501e-02 1.9131098505368354e-02 0.0000000000000000e+00  1.6013492866450573e-03 2.0278118330794622e-02 0.0000000000000000e+00  -2.6308330455326379e-02 2.0104758071438571e-02 0.0000000000000000e+00  1.5080723320652644e-03 2.0240636189806760e-02 0.0000000000000000e+00  -2.2232016351272449e-02 2.0857946804430528e-02 0.0000000000000000e+00  -1.9152825706082537e-03 1.8585582554860380e-02 0.0000000000000000e+00  -2.2230305098066065e-02 2.0858588141289235e-02 0.0000000000000000e+00  -2.2115178366778360e-02 2.0838412226974284e-02 0.0000000000000000e+00  -3.7908159094364544e-04 3.9941510033079837e-02 0.0000000000000000e+00  -3.7916693944670159e-04 3.9941555271798573e-02 0.0000000000000000e+00  -5.2329592127573616e-04 3.9950100377497313e-02 0.0000000000000000e+00  -3.7498787634614855e-04 3.9942785921794240e-02 0.0000000000000000e+00  -5.2323761988494141e-04 3.9950141042408620e-02 0.0000000000000000e+00  -6.8439672652014253e-03 2.2141731068301775e-02 0.0000000000000000e+00  -5.2540784321700477e-04 3.9952087646336183e-02 0.0000000000000000e+00  -6.8615345220636535e-03 2.1979131722631787e-02 0.0000000000000000e+00  -7.3526548498556608e-03 3.3301449057197383e-02 0.0000000000000000e+00  -6.8612087814388014e-03 2.1976642749597156e-02 0.0000000000000000e+00  -7.9277437437752524e-03 2.2012796928583211e-02 0.0000000000000000e+00  -7.9314294182615316e-03 2.1925379255282131e-02 0.0000000000000000e+00  -7.9317353749436843e-03 2.1926610959070603e-02 0.0000000000000000e+00  2.0824656949228900e-04 3.0879402060218757e-02 0.0000000000000000e+00  2.0844944872353157e-04 3.0878075870444666e-02 0.0000000000000000e+00  -6.3146552030728391e-04 3.0777853683457562e-02 0.0000000000000000e+00  2.0722380412765011e-04 3.0787241661426861e-02 0.0000000000000000e+00  -6.3178782483881398e-04 3.0776515880169854e-02 0.0000000000000000e+00  3.0470261182326632e-04 9.4320220981188568e-03 0.0000000000000000e+00  -6.2536768002186601e-04 3.0686527768473557e-02 0.0000000000000000e+00  3.0078352954173002e-04 9.3569996892350262e-03 0.0000000000000000e+00  -2.5829593769009108e-03 2.0026899247333495e-02 0.0000000000000000e+00  3.0072393589951492e-04 9.3559435075297234e-03 0.0000000000000000e+00  -5.2383037453605113e-04 9.4096125797301592e-03 0.0000000000000000e+00  -5.2805610800429794e-04 9.3260696258461451e-03 0.0000000000000000e+00  -5.2833020137529137e-04 9.3272492611813293e-03 0.0000000000000000e+00  2.1801180328710767e-02 1.9084729228293976e-02 0.0000000000000000e+00  1.6238411464537045e-02 2.1127424146982102e-02 0.0000000000000000e+00  2.1949806578650605e-02 1.9033080150579740e-02 0.0000000000000000e+00  -1.8206796177310030e-03 1.9947734043095276e-02 0.0000000000000000e+00  2.1952077067399149e-02 1.9034526198695920e-02 0.0000000000000000e+00  -1.9146625694946590e-03 1.9918654867742719e-02 0.0000000000000000e+00  2.1967570534923202e-02 2.0773569451513201e-02 0.0000000000000000e+00  -1.9159967291076353e-03 1.9919431865359570e-02 0.0000000000000000e+00  2.1965679785586497e-02 2.0775012865868001e-02 0.0000000000000000e+00  -4.3586180242315012e-03 2.0119620154358333e-02 0.0000000000000000e+00  2.1840578738474191e-02 2.0721628064110913e-02 0.0000000000000000e+00  -1.8199521181411172e-03 2.0256453569847722e-02 0.0000000000000000e+00  1.6327566329891401e-02 1.8703026249938574e-02 0.0000000000000000e+00  -1.8189126724332929e-03 2.0257039692856516e-02 0.0000000000000000e+00  -1.7443229276625808e-03 2.0238102958666408e-02 0.0000000000000000e+00  3.8284326612818432e-03 3.2454740024635075e-02 0.0000000000000000e+00  2.0006551976353202e-04 3.8743312212545206e-02 0.0000000000000000e+00  4.0719883858545665e-03 3.2305166542884310e-02 0.0000000000000000e+00  -4.2887154370884811e-03 3.2504608042143432e-02 0.0000000000000000e+00  4.0762882234974601e-03 3.2309530779535196e-02 0.0000000000000000e+00  -4.5192372741558939e-03 3.2398343233394356e-02 0.0000000000000000e+00  7.6660997753071024e-03 3.2249549131024090e-02 0.0000000000000000e+00  -4.5232586130808218e-03 3.2401551747024283e-02 0.0000000000000000e+00  7.6652099850699961e-03 3.2248899284684496e-02 0.0000000000000000e+00  -8.7894732561815212e-03 3.1381688355455586e-02 0.0000000000000000e+00  7.5975449298345396e-03 3.2278450108871405e-02 0.0000000000000000e+00  -8.1326300943387123e-03 3.2365884604592457e-02 0.0000000000000000e+00  4.4391650467871090e-03 3.1193396211362214e-02 0.0000000000000000e+00  -8.1314939313494802e-03 3.2365363214654407e-02 0.0000000000000000e+00  -8.0518020128138509e-03 3.2390524375283829e-02 0.0000000000000000e+00  -1.1385813583510612e-04 3.9948324710320733e-02 0.0000000000000000e+00  -1.1390234752254460e-04 3.9948356034934240e-02 0.0000000000000000e+00  -2.5898159457176447e-04 3.9941078837099235e-02 0.0000000000000000e+00  -1.1232524197969342e-04 3.9950042749880281e-02 0.0000000000000000e+00  -2.5894199237740828e-04 3.9941088456532686e-02 0.0000000000000000e+00  7.4847428410688872e-03 2.2002669054990438e-02 0.0000000000000000e+00  -2.6172850662850561e-04 3.9939733911404839e-02 0.0000000000000000e+00  7.4857424146040187e-03 2.1917535744902968e-02 0.0000000000000000e+00  1.1995830118392008e-03 3.7442603483826116e-02 0.0000000000000000e+00  7.4855036371110160e-03 2.1916316516953666e-02 0.0000000000000000e+00  6.4092200044193730e-03 2.2100871031699141e-02 0.0000000000000000e+00  6.4279987372937138e-03 2.1949949145071927e-02 0.0000000000000000e+00  6.4284042812618319e-03 2.1952188789421685e-02 0.0000000000000000e+00  4.0293367275279447e-03 4.0678880155199382e-02 0.0000000000000000e+00  2.9315470669063477e-03 4.0951730420720811e-02 0.0000000000000000e+00  1.9267022932826373e-03 4.1041347607506488e-02 0.0000000000000000e+00  1.0650251090575102e-03 4.0919759978343399e-02 0.0000000000000000e+00  -1.0780230874297534e-04 4.0445604660313085e-02 0.0000000000000000e+00  -4.5247999320821477e-04 4.0157044816278152e-02 0.0000000000000000e+00  -6.6135810957241919e-04 3.9890423269790601e-02 0.0000000000000000e+00  -7.4936807865387956e-04 3.9646086548232130e-02 0.0000000000000000e+00  -4.1083442042745506e-05 4.6299544312515089e-05 0.0000000000000000e+00  -4.8812560384308340e-05 7.1624962026701212e-05 0.0000000000000000e+00  -5.2732268498153265e-05 1.1424632043260257e-04 0.0000000000000000e+00  -5.8833273676058375e-05 1.6958078654407183e-04 0.0000000000000000e+00  -5.5884881896047849e-05 2.5059140233051893e-04 0.0000000000000000e+00  -2.8532797323901500e-05 3.5331432991172757e-04 0.0000000000000000e+00  1.1762260931317547e-04 5.9474631201447887e-04 0.0000000000000000e+00  2.5390398270985412e-04 6.4153861333710505e-04 0.0000000000000000e+00  -4.2860035500071206e-03 -6.9477620766215779e-04 0.0000000000000000e+00  -3.0725861053129901e-03 -1.0101401259580065e-03 0.0000000000000000e+00  -1.9828742366673970e-03 -1.0164675995388219e-03 0.0000000000000000e+00  -1.1193315077834170e-03 -8.4785447126399505e-04 0.0000000000000000e+00  -4.5662687143840930e-04 -5.6729675982698487e-04 0.0000000000000000e+00  2.7996109268153352e-06 -2.5140603090453357e-04 0.0000000000000000e+00  2.6949636474930821e-04 6.4578310783621173e-05 0.0000000000000000e+00  3.9000897604714356e-04 3.3726480755337930e-04 0.0000000000000000e+00  -7.2464079641966416e-03 7.7970408820965094e-04 0.0000000000000000e+00  -9.1047207653295187e-03 1.4346325719157629e-03 0.0000000000000000e+00  -1.2927187812455741e-02 1.4945092659535042e-03 0.0000000000000000e+00  -1.4664801510951285e-02 8.0186289029132479e-04 0.0000000000000000e+00  -1.6187027423727154e-02 -3.1398022378938492e-04 0.0000000000000000e+00  -1.7388117777592464e-02 -1.7811243214067040e-03 0.0000000000000000e+00  -1.8187500533677164e-02 -3.5028572416621853e-03 0.0000000000000000e+00  -1.8533505498268130e-02 -5.3692654364714100e-03 0.0000000000000000e+00  -2.5876722530777035e-02 -7.2628032917400149e-03 0.0000000000000000e+00  -2.4008147258221983e-02 -7.2627807824103933e-03 0.0000000000000000e+00  -2.2139677614790295e-02 -7.2627344481971104e-03 0.0000000000000000e+00  -2.0271046515807797e-02 -7.2627747433934948e-03 0.0000000000000000e+00  -2.5742269257276771e-02 7.6366065230376405e-04 0.0000000000000000e+00  -2.6617765222989916e-02 -6.8439927940075278e-04 0.0000000000000000e+00  -2.7267864931073825e-02 -2.2465704581805350e-03 0.0000000000000000e+00  -2.7677625286009682e-02 -3.8884669908241841e-03 0.0000000000000000e+00  -2.7837940406955437e-02 -5.5730840932472370e-03 0.0000000000000000e+00  -2.3329389817328992e-02 3.7635056237529741e-03 0.0000000000000000e+00  -2.2583328726941111e-02 5.5916955161923734e-03 0.0000000000000000e+00  -2.2318123720756242e-02 7.5698210165742307e-03 0.0000000000000000e+00  -2.2580223991113729e-02 9.5712186979610963e-03 0.0000000000000000e+00  -2.3317210236490325e-02 1.1509517057522262e-02 0.0000000000000000e+00  -2.4325782579894376e-02 1.3191015491575786e-02 0.0000000000000000e+00  -2.5014605595297942e-02 1.4755419863292946e-02 0.0000000000000000e+00  -2.4295026436444656e-02 1.7106848831545219e-02 0.0000000000000000e+00  -2.4489012546968947e-02 2.2881652095255584e-02 0.0000000000000000e+00  -2.4906510165970945e-02 2.5290578948349615e-02 0.0000000000000000e+00  -2.4497709441443468e-02 2.6845636486073795e-02 0.0000000000000000e+00  -2.3442955905268056e-02 2.8515495880370521e-02 0.0000000000000000e+00  -2.2722183764909185e-02 3.0453050399292626e-02 0.0000000000000000e+00  -2.2455547337112906e-02 3.2453526468319907e-02 0.0000000000000000e+00  -2.2717731373608288e-02 3.4426699324961341e-02 0.0000000000000000e+00  -2.3465950512064418e-02 3.6252425424450424e-02 0.0000000000000000e+00  -2.7967068931288960e-02 4.5577176390245361e-02 0.0000000000000000e+00  -2.7806880533750796e-02 4.3894810416631999e-02 0.0000000000000000e+00  -2.7397799301863850e-02 4.2255078285506176e-02 0.0000000000000000e+00  -2.6748382161240175e-02 4.0694908497657029e-02 0.0000000000000000e+00  -2.5874148036158930e-02 3.9248856117249147e-02 0.0000000000000000e+00  -2.0410218379750735e-02 4.7264608348055258e-02 0.0000000000000000e+00  -2.2276234888305532e-02 4.7264644204199228e-02 0.0000000000000000e+00  -2.4142327104190932e-02 4.7264658344414831e-02 0.0000000000000000e+00  -2.6008398189907932e-02 4.7264682911343420e-02 0.0000000000000000e+00  -1.8675083906249085e-02 4.5373638112865239e-02 0.0000000000000000e+00  -1.8329148131042118e-02 4.3509859262482235e-02 0.0000000000000000e+00  -1.7531015444972133e-02 4.1789889173362245e-02 0.0000000000000000e+00  -1.6331229038493017e-02 4.0325168273328132e-02 0.0000000000000000e+00  -1.4811010382157271e-02 3.9210729678118617e-02 0.0000000000000000e+00  -1.3073795472913484e-02 3.8518807729038922e-02 0.0000000000000000e+00  -9.2565000687643856e-03 3.8579792562802584e-02 0.0000000000000000e+00  -7.4086609063542573e-03 3.9227050130564711e-02 0.0000000000000000e+00  1.1931781909273245e-04 3.9641265559071291e-02 0.0000000000000000e+00  6.6947236357757389e-06 3.9904602431430063e-02 0.0000000000000000e+00  -2.4596368839025992e-04 4.0212352183937351e-02 0.0000000000000000e+00  -6.8534182058919426e-04 4.0518009774411293e-02 0.0000000000000000e+00  -1.3342486199053305e-03 4.0797800640740900e-02 0.0000000000000000e+00  -2.1693411021575003e-03 4.0962752119105980e-02 0.0000000000000000e+00  -3.2540519698588716e-03 4.0961199420113385e-02 0.0000000000000000e+00  -4.4508299165887501e-03 4.0683348800536749e-02 0.0000000000000000e+00  -2.1257161789374717e-05 3.9347398290021665e-02 0.0000000000000000e+00  -1.6112595123572935e-04 3.9404220653657000e-02 0.0000000000000000e+00  -3.0733494170240956e-04 3.9645340741764658e-02 0.0000000000000000e+00  -3.2936383859184424e-04 3.9751834564768537e-02 0.0000000000000000e+00  -3.3292635314114587e-04 3.9825111515583760e-02 0.0000000000000000e+00  -3.3316189722684773e-04 3.9888692714298152e-02 0.0000000000000000e+00  -3.2175460040900989e-04 3.9926740045973561e-02 0.0000000000000000e+00  -3.1848122913728262e-04 3.9953337996236883e-02 0.0000000000000000e+00  -2.6801493614655780e-04 3.9990770771085343e-02 0.0000000000000000e+00  -2.6935811051385559e-04 3.9982807938722380e-02 0.0000000000000000e+00  -2.7201423542736451e-04 3.9975829681657721e-02 0.0000000000000000e+00  -2.7693102858392327e-04 3.9971986816247203e-02 0.0000000000000000e+00  -2.8587995275828617e-04 3.9970549783260992e-02 0.0000000000000000e+00  -3.0035672613602571e-04 3.9971789978744239e-02 0.0000000000000000e+00  -3.6681332326070977e-04 4.0000000000000001e-02 0.0000000000000000e+00  -3.6216