<?xml version="1.0"?>
<VTKFile type="UnstructuredGrid"  version="0.1"  >
<UnstructuredGrid>
<Piece  NumberOfPoints="4855" NumberOfCells="8780">
<Points>
<DataArray  type="Float64"  NumberOfComponents="3"  format="ascii">0.9483880164242298 0.6836931311526558 0  0.9494264999197789 0.6847056440044139 0  0.9494005292759887 0.6847228078606633 0  0.9735520289385229 0.7444444444444445 0  0.9494005292759886 0.8041660810282256 0  0.94942649991978 0.8041832448844759 0  0.9483880175070514 0.8051957566534116 0  3.131175874138137e-16 0.09811450876034808 0  0.06838800723463068 0.1543033514199101 0  0.05161198249294494 0.1948042433465922 0  0.0505735000802211 0.1958167551155251 0  0.05059947072401128 0.1958339189717744 0  0.0505994707240113 0.3152771921393367 0  0.05057350008021998 0.315294355995587 0  0.05161198357913653 0.3163068688507105 0  0.06838800723463068 0.356807759691201 0  3.252606517456513e-16 0.4129966023507631 0  -1.795438797635995e-16 0.4839416311832997 0  0.07083274769489223 0.4605116403870998 0  0.07084991155114129 0.4605376110308903 0  0.07186242331670639 0.4594991286215342 0  0.1696402113702762 0.5 0  0.07186242332008326 0.5405008713818427 0  0.0708499115511413 0.5394623889691096 0  0.07083274769489219 0.5394883596129002 0  -1.925543058334256e-16 0.5160583688167003 0  1.484923295436147e-15 0.5870033976492365 0  0.06838800723463068 0.643192240308799 0  0.05161198249294541 0.6836931322354806 0  0.05057350008022109 0.6847056440044139 0  0.0505994707240113 0.6847228078606633 0  0.0505994707240113 0.8041660810282256 0  0.05057350008021999 0.804183244884476 0  0.05161198249294764 0.8051957566534106 0  0.06838800723463068 0.84569664858009 0  1.485790657174135e-15 0.9018854912396524 0  0 1 0  1 1 0  0.9999999999999987 0.9018854912396523 0  1.000000000000001 0.5870033976492375 0  1 0.5160583688167003 0  0.9291672523051078 0.5394883596129003 0  0.9291500884488585 0.5394623889691117 0  0.9281375755937461 0.5405008724680134 0  0.9281375755937372 0.4594991275319777 0  0.9291500884488586 0.4605376110308884 0  0.9291672523051077 0.4605116403870997 0  1 0.4839416311832997 0  0.9999999999999987 0.4129966023507635 0  0.948388017507054 0.31630686776452 0  0.94942649991978 0.3152943559955871 0  0.9494005292759886 0.3152771921393367 0  0.9735520289385229 0.2555555555555555 0  0.9494005292759888 0.1958339189717744 0  0.9494264999197789 0.1958167551155251 0  0.9483880164208631 0.1948042422604003 0  1.000000000000001 0.09811450876034861 0  1 0 0  0 0 0  0.1958339189717744 0.2950439151684559 0  0.1958167551155252 0.2950179445246672 0  0.3152771921393367 0.2950439151684557 0  0.1948042433481841 0.2960564269357975 0  0.3152943559955858 0.2950179445246651 0  0.1948042422604031 0.2150546830875326 0  0.3163068677645244 0.2960564269373949 0  0.1958167551155251 0.2160931665864439 0  0.4140846558147206 0.2555555555555555 0  0.1958339189717744 0.2160671959426553 0  0.3163068688489276 0.215054683089313 0  0.3152771921393367 0.2160671959426553 0  0.3152943559955858 0.2160931665864459 0  0.5405008724680257 0.3163068688507107 0  0.5572768961235196 0.356807759691201 0  0.5394623889691089 0.3152943559955871 0  0.459499128618165 0.3163068677645201 0  0.5394883596129003 0.3152771921393367 0  0.4605376110308911 0.3152943559955871 0  0.5394883596129001 0.1958339189717744 0  0.4605116403870998 0.3152771921393367 0  0.53946238896911 0.1958167551155251 0  0.4846631400496339 0.2555555555555555 0  0.5405008724680251 0.1948042422604009 0  0.4605116403870998 0.1958339189717744 0  0.5572768961235196 0.1543033514199101 0  0.46053761103089 0.1958167551155251 0  0.4594991286269881 0.1948042433554141 0  0.6847228078606633 0.2950439151684559 0  0.684705644004414 0.2950179445246672 0  0.8041660810282256 0.2950439151684557 0  0.683693131164073 0.2960564280087975 0  0.8041832448844747 0.2950179445246651 0  0.6836931322354718 0.2150546841737125 0  0.8051957566534156 0.2960564269373971 0  0.6847056440044141 0.2160931665864439 0  0.9029735447036096 0.2555555555555555 0  0.6847228078606632 0.2160671959426553 0  0.8051957577274008 0.2150546830997286 0  0.8041660810282256 0.2160671959426553 0  0.8041832448844747 0.2160931665864459 0  0.2960564280235811 0.560751313295155 0  0.3128324516790751 0.6012522041356455 0  0.2950179445246645 0.5597388004400315 0  0.2150546830875235 0.5607513132951615 0  0.2950439151684557 0.5597216365837812 0  0.2160931665864466 0.5597388004400314 0  0.2950439151684558 0.4402783634162188 0  0.2160671959426553 0.5597216365837812 0  0.2950179445246656 0.4402611995599696 0  0.2402186956051895 0.5 0  0.29605642693739 0.439248687791036 0  0.2160671959426553 0.4402783634162189 0  0.3128324516790751 0.3987477958643545 0  0.2160931665864455 0.4402611995599696 0  0.2150546830875296 0.4392486867048446 0  0.1958339189717743 0.7839328040573448 0  0.1958167551155252 0.7839068334135562 0  0.3152771921393367 0.7839328040573447 0  0.1948042422604028 0.7849453169124678 0  0.3152943559955858 0.783906833413554 0  0.1948042433465913 0.7039435730626098 0  0.3163068677645284 0.7849453158262878 0  0.1958167551155251 0.7049820554753328 0  0.4140846558147206 0.7444444444444445 0  0.1958339189717744 0.7049560848315441 0  0.3163068688486237 0.7039435719785058 0  0.3152771921393367 0.7049560848315441 0  0.3152943559955858 0.7049820554753349 0  0.4402783634162188 0.5394883596129003 0  0.4402611995599696 0.5394623889691117 0  0.5597216365837812 0.5394883596129002 0  0.4392486867048468 0.5405008724680237 0  0.5597388004400302 0.5394623889691096 0  0.4392486877998708 0.4594991286270004 0  0.5607513122089726 0.540500871381843 0  0.4402611995599696 0.4605376110308884 0  0.6585291002591651 0.5 0  0.4402783634162188 0.4605116403870998 0  0.5607513121946796 0.45949912863245 0  0.5597216365837812 0.4605116403870998 0  0.5597388004400302 0.4605376110308904 0  0.78494531690701 0.5607513132896949 0  0.8017213405679641 0.6012522041356455 0  0.7839068334135535 0.5597388004400315 0  0.7039435730626069 0.5607513122089671 0  0.7839328040573448 0.5597216365837812 0  0.7049820554753355 0.5597388004400314 0  0.7839328040573448 0.4402783634162188 0  0.7049560848315441 0.5597216365837812 0  0.7839068334135545 0.4402611995599696 0  0.7291075844940784 0.5 0  0.784945315826279 0.4392486877910359 0  0.7049560848315444 0.4402783634162188 0  0.8017213405679641 0.3987477958643545 0  0.7049820554753344 0.4402611995599696 0  0.7039435719764182 0.4392486867048443 0  0.5405008724625655 0.8051957577341393 0  0.5572768961235196 0.84569664858009 0  0.539462388969109 0.804183244884476 0  0.4594991286181648 0.8051957566534091 0  0.5394883596129003 0.8041660810282256 0  0.4605376110308911 0.804183244884476 0  0.5394883596129003 0.6847228078606633 0  0.4605116403870998 0.8041660810282256 0  0.53946238896911 0.6847056440044139 0  0.4846631400496339 0.7444444444444445 0  0.5405008713818347 0.6836931322354802 0  0.4605116403870998 0.6847228078606633 0  0.5572768961235196 0.643192240308799 0  0.46053761103089 0.6847056440044139 0  0.4594991275353449 0.6836931311526599 0  0.6847228078606633 0.7839328040573448 0  0.684705644004414 0.7839068334135562 0  0.8041660810282256 0.7839328040573447 0  0.6836931311493016 0.7849453169124578 0  0.8041832448844747 0.783906833413554 0  0.68369313223548 0.7039435730626096 0  0.805195756653417 0.7849453158262875 0  0.6847056440044141 0.7049820554753328 0  0.9029735447036096 0.7444444444444445 0  0.6847228078606633 0.7049560848315441 0  0.805195757738809 0.7039435719772094 0  0.8041660810282256 0.7049560848315441 0  0.8041832448844747 0.7049820554753349 0  0.9578164230213342 0.6948838683471341 0  0.9645772892192558 0.7062137009141434 0  0.9695236884064815 0.7184451175460498 0  0.972538971146615 0.7312896684428197 0  0.9725389711466151 0.7575992204460691 0  0.9695236884064815 0.7704437713428391 0  0.9645772892192558 0.7826751879747456 0  0.9578164230213342 0.7940050205417549 0  0.01437766570919127 0.09711967848259151 0  0.02854851642641832 0.09974531144948819 0  0.04161535472570586 0.1058251712658871 0  0.05275088139110013 0.1149743244732108 0  0.06125007411586489 0.1266135117968212 0  0.06657482449792251 0.1400058227212122 0  0.06643634307317195 0.1691277076584997 0  0.06071435336153361 0.1829418078690686 0  0.04134737123322858 0.3039103077764334 0  0.03416190609801732 0.2911362521989113 0  0.02925217947541549 0.2773267630846004 0  0.02676106927623143 0.2628837102534819 0  0.02676106927623143 0.2482274008576293 0  0.02925217947541547 0.2337843480265108 0  0.03416190609801727 0.2199748589121999 0  0.04134737123322851 0.2072008033346779 0  0.06071435387356935 0.328169304128914 0  0.06643634320569657 0.3419834039471998 0  0.06657482449792249 0.371105288389899 0  0.06125007411586481 0.3844975993142901 0  0.05275088139109994 0.3961367866379005 0  0.04161535472570563 0.4052859398452242 0  0.02854851642641818 0.411365799661623 0  0.01437766570919127 0.4139914326285196 0  0 0.4697526254167924 0  0 0.455563619650285 0  0 0.4413746138837777 0  0 0.4271856081172704 0  0.06095233986089402 0.4687284952262988 0  0.04995687430503332 0.4753797281664747 0  0.03809234373417287 0.4803165365228644 0  0.02562418374773841 0.4834284730529493 0  0.01283133446055119 0.4846459169037758 0  0.08372485599813187 0.4503967593658507 0  0.09753895276796982 0.4446747697099958 0  0.1123633055586467 0.4427231038764812 0  0.1271876590095525 0.4446747646950606 0  0.1410017577150834 0.45039674967774 0  0.1528641934757506 0.4594991149204779 0  0.161966560724962 0.471361549141524 0  0.1676885480442292 0.4851756468792086 0  0.1676885480443665 0.514824353120279 0  0.1619665607254926 0.528638450857557 0  0.1528641934768762 0.5405008850783964 0  0.1410017577169217 0.5496032503211987 0  0.1271876590121153 0.5553252353042526 0  0.1123633055618306 0.5572768961235188 0  0.09753895277155772 0.5553252302909656 0  0.08372485600180817 0.5496032406362719 0  0.0128313344605512 0.5153540830962242 0  0.0256241837477384 0.5165715269470507 0  0.03809234373417282 0.5196834634771356 0  0.04995687430503334 0.5246202718335253 0  0.06095233986089401
[...]
<PointData  Vectors="$u$"> 
<DataArray  type="Float64"  Name="$u$"  NumberOfComponents="3" format="ascii">2.4021197991610879e-03 1.7214755377462396e-02 0.0000000000000000e+00  2.3474678271968624e-03 1.7243455227053429e-02 0.0000000000000000e+00  2.3467385059456163e-03 1.7242563003204914e-02 0.0000000000000000e+00  2.5613224934886871e-04 1.7615253209609279e-02 0.0000000000000000e+00  -2.9063031503362544e-04 1.6971837518302380e-02 0.0000000000000000e+00  -2.9067029310254276e-04 1.6972044773421791e-02 0.0000000000000000e+00  -2.8339417278136616e-04 1.6957420968153072e-02 0.0000000000000000e+00  -3.7241109686641373e-05 2.0804952900168947e-05 0.0000000000000000e+00  5.8448678532302980e-06 3.8990195522662648e-04 0.0000000000000000e+00  2.7652273314106806e-04 5.3643779032077330e-04 0.0000000000000000e+00  2.8404372376740163e-04 5.2276950088434970e-04 0.0000000000000000e+00  2.8401127254720592e-04 5.2296064216278155e-04 0.0000000000000000e+00  -2.3676915564405506e-03 2.4995667418734453e-04 0.0000000000000000e+00  -2.3684348655751068e-03 2.4901802452161390e-04 0.0000000000000000e+00  -2.4238697848504580e-03 2.7949244982862373e-04 0.0000000000000000e+00  -4.6853461992101197e-03 1.0696565243577558e-03 0.0000000000000000e+00  -7.7292593752297722e-03 -2.6597871741806641e-03 0.0000000000000000e+00  -1.1651446756776535e-02 -2.6598593501470486e-03 0.0000000000000000e+00  -1.0357051497204329e-02 1.2559123287950037e-03 0.0000000000000000e+00  -1.0358484379944790e-02 1.2568597077122585e-03 0.0000000000000000e+00  -1.0301233549560097e-02 1.3127947466360257e-03 0.0000000000000000e+00  -1.0382122102797755e-02 8.7253242510547079e-03 0.0000000000000000e+00  -1.0339050564196643e-02 1.6183200010487838e-02 0.0000000000000000e+00  -1.0396505212791092e-02 1.6239119411352056e-02 0.0000000000000000e+00  -1.0395068983948137e-02 1.6240067678168373e-02 0.0000000000000000e+00  -1.1692514213394532e-02 2.0164901420913449e-02 0.0000000000000000e+00  -7.7611934028397498e-03 2.0164827431843019e-02 0.0000000000000000e+00  -4.7105505802257563e-03 1.6425318234847060e-02 0.0000000000000000e+00  -2.4404699326041582e-03 1.7215400104379899e-02 0.0000000000000000e+00  -2.3859818130061022e-03 1.7245778892197378e-02 0.0000000000000000e+00  -2.3852513460947155e-03 1.7244853292199866e-02 0.0000000000000000e+00  2.3487414821715097e-04 1.6972695973112538e-02 0.0000000000000000e+00  2.3490087207583973e-04 1.6972874664523102e-02 0.0000000000000000e+00  2.2724630196538340e-04 1.6959635321074674e-02 0.0000000000000000e+00  -4.2599922308904390e-05 1.7112697622970262e-02 0.0000000000000000e+00  -8.5353088270942402e-05 1.7479026992973400e-02 0.0000000000000000e+00  -4.1379126167146302e-05 1.7500000000000002e-02 0.0000000000000000e+00  -1.1566308923672532e-05 1.7500000000000002e-02 0.0000000000000000e+00  3.2440787202344923e-05 1.7478694696894413e-02 0.0000000000000000e+00  7.7249207295038615e-03 2.0168276575767342e-02 0.0000000000000000e+00  1.1659611584482893e-02 2.0168354907137361e-02 0.0000000000000000e+00  1.0361106400451049e-02 1.6239986896456587e-02 0.0000000000000000e+00  1.0362545438773829e-02 1.6239035894311790e-02 0.0000000000000000e+00  1.0305040432766055e-02 1.6182910693619979e-02 0.0000000000000000e+00  1.0296136807578354e-02 1.3034371565948267e-03 0.0000000000000000e+00  1.0353291164628511e-02 1.2475250704470971e-03 0.0000000000000000e+00  1.0351860325439274e-02 1.2465788123800481e-03 0.0000000000000000e+00  1.1646022868686082e-02 -2.6684859703275036e-03 0.0000000000000000e+00  7.7245799335964871e-03 -2.6683985021212133e-03 0.0000000000000000e+00  2.4195741492502062e-03 2.7691046247008838e-04 0.0000000000000000e+00  2.3652643205255472e-03 2.4740713442046521e-04 0.0000000000000000e+00  2.3645369157903428e-03 2.4831424817659421e-04 0.0000000000000000e+00  2.9587555540282461e-04 -1.1115800794121060e-04 0.0000000000000000e+00  -2.3858256428771203e-04 5.2020619353577611e-04 0.0000000000000000e+00  -2.3860598685638730e-04 5.2000372322486921e-04 0.0000000000000000e+00  -2.2967822604847495e-04 5.3447122715680163e-04 0.0000000000000000e+00  7.8081060404521405e-05 2.0872811506405743e-05 0.0000000000000000e+00  3.3830484926661170e-05 0.0000000000000000e+00 0.0000000000000000e+00  0.0000000000000000e+00 0.0000000000000000e+00 0.0000000000000000e+00  -2.8512507680556192e-03 7.9729049742514983e-03 0.0000000000000000e+00  -2.8510287709158410e-03 7.9722422238105613e-03 0.0000000000000000e+00  -3.5217891074828638e-03 7.9044070120156181e-03 0.0000000000000000e+00  -2.8531425511897006e-03 7.9217685078733380e-03 0.0000000000000000e+00  -3.5219005351180615e-03 7.9041858675438590e-03 0.0000000000000000e+00  -8.8510403810826524e-05 3.6170480492589043e-05 0.0000000000000000e+00  -3.5236634807471910e-03 7.8794803313018413e-03 0.0000000000000000e+00  -9.1054628402706348e-05 3.6143095436578266e-05 0.0000000000000000e+00  -3.1685685954541505e-03 2.1927501491307371e-03 0.0000000000000000e+00  -9.1007984146602406e-05 3.6164504530808917e-05 0.0000000000000000e+00  -2.1876699962081292e-04 2.4084668544643878e-05 0.0000000000000000e+00  -2.1581896065354236e-04 2.5352400799381640e-05 0.0000000000000000e+00  -2.1575207485201582e-04 2.5313876894851236e-05 0.0000000000000000e+00  3.5550556055697741e-03 2.9257334808512709e-03 0.0000000000000000e+00  2.1053956602603966e-03 3.2959617123789948e-03 0.0000000000000000e+00  3.5856237622829438e-03 2.9331254100066315e-03 0.0000000000000000e+00  -3.5637459575715296e-03 2.9273918326257887e-03 0.0000000000000000e+00  3.5859495612895055e-03 2.9331038458171930e-03 0.0000000000000000e+00  -3.5928216508290664e-03 2.9380937417982952e-03 0.0000000000000000e+00  1.4642651668360681e-03 2.9547628869360928e-03 0.0000000000000000e+00  -3.5931218950411093e-03 2.9379813524116776e-03 0.0000000000000000e+00  1.4633009478213462e-03 2.9561369618315127e-03 0.0000000000000000e+00  -3.4748042939781389e-03 3.5647170920954561e-03 0.0000000000000000e+00  1.4029768206607258e-03 2.9051852362213149e-03 0.0000000000000000e+00  -1.4215022979663804e-03 2.9530246041549785e-03 0.0000000000000000e+00  3.7884647597612311e-04 1.0311847896653094e-03 0.0000000000000000e+00  -1.4205334044652205e-03 2.9544052364059250e-03 0.0000000000000000e+00  -1.3606808726143445e-03 2.9031632679544449e-03 0.0000000000000000e+00  3.5180076978644807e-03 7.9030083345497919e-03 0.0000000000000000e+00  3.5180791124626077e-03 7.9027727338369085e-03 0.0000000000000000e+00  2.8498834034073385e-03 7.9559066658789548e-03 0.0000000000000000e+00  3.5214276251067096e-03 7.8770179912989405e-03 0.0000000000000000e+00  2.8496521063094598e-03 7.9552923648116784e-03 0.0000000000000000e+00  2.6115525489511543e-04 2.3838701399034926e-05 0.0000000000000000e+00  2.8519189179849760e-03 7.9078109438736020e-03 0.0000000000000000e+00  2.5837600753600025e-04 2.5094990432766353e-05 0.0000000000000000e+00  3.7257394377729217e-04 1.3892604930933186e-03 0.0000000000000000e+00  2.5844013319795307e-04 2.5132636812041653e-05 0.0000000000000000e+00  1.3036884375454370e-04 3.5299734798318188e-05 0.0000000000000000e+00  1.3298212241664667e-04 3.6156158640289697e-05 0.0000000000000000e+00  1.3303865487086490e-04 3.6124794364475797e-05 0.0000000000000000e+00  9.2807896697479032e-04 8.6554816353045950e-03 0.0000000000000000e+00  -7.2192974773867768e-04 9.4128543194710833e-03 0.0000000000000000e+00  9.7300846046437987e-04 8.6385239482019809e-03 0.0000000000000000e+00  -9.4162617325703139e-03 8.4786065206100859e-03 0.0000000000000000e+00  9.7356919861287460e-04 8.6391332596434407e-03 0.0000000000000000e+00  -9.4675911541711785e-03 8.4698854641650449e-03 0.0000000000000000e+00  9.8330362627945173e-04 8.8723745093631911e-03 0.0000000000000000e+00  -9.4682595623328172e-03 8.4702424915102416e-03 0.0000000000000000e+00  9.8276253202455341e-04 8.8729766530872296e-03 0.0000000000000000e+00  -1.0886781560216397e-02 8.7573789773598403e-03 0.0000000000000000e+00  9.3940555943325583e-04 8.8557374997469997e-03 0.0000000000000000e+00  -9.4317175739713974e-03 9.0033835450813483e-03 0.0000000000000000e+00  -7.1248852508321448e-04 8.0977724059969058e-03 0.0000000000000000e+00  -9.4311354043833031e-03 9.0036247873381981e-03 0.0000000000000000e+00  -9.3851839609311559e-03 8.9996069804651763e-03 0.0000000000000000e+00  -1.3970347325665666e-04 1.7464531538067162e-02 0.0000000000000000e+00  -1.3976150522221819e-04 1.7464560424745923e-02 0.0000000000000000e+00  -2.6533902655074718e-04 1.7475839671950880e-02 0.0000000000000000e+00  -1.3681407740753060e-04 1.7465008594911891e-02 0.0000000000000000e+00  -2.6527014982757647e-04 1.7475879757696020e-02 0.0000000000000000e+00  -2.8813744608743035e-03 9.5577036590982437e-03 0.0000000000000000e+00  -2.6832940620004944e-04 1.7477171742488098e-02 0.0000000000000000e+00  -2.8785156838796650e-03 9.5071458845360137e-03 0.0000000000000000e+00  -3.1139315942598001e-03 1.5307946414170208e-02 0.0000000000000000e+00  -2.8787560813963156e-03 9.5064872409998929e-03 0.0000000000000000e+00  -3.5473735155842246e-03 9.6348034263633153e-03 0.0000000000000000e+00  -3.5455804005313381e-03 9.6089796929217652e-03 0.0000000000000000e+00  -3.5456941505365631e-03 9.6092122556978125e-03 0.0000000000000000e+00  2.9474728313345672e-04 1.3957445955549331e-02 0.0000000000000000e+00  2.9474264085879715e-04 1.3957345145829783e-02 0.0000000000000000e+00  -3.2491604673370948e-04 1.3957994772038393e-02 0.0000000000000000e+00  3.0116604034384178e-04 1.3939966498568995e-02 0.0000000000000000e+00  -3.2490040825225843e-04 1.3957914022803183e-02 0.0000000000000000e+00  3.1290986481975758e-04 3.5748551216213957e-03 0.0000000000000000e+00  -3.3138694027247699e-04 1.3942249664687907e-02 0.0000000000000000e+00  3.0721274692770942e-04 3.5589923143488239e-03 0.0000000000000000e+00  -1.6697948932963595e-03 8.7460315182281440e-03 0.0000000000000000e+00  3.0721504061143761e-04 3.5589050464548294e-03 0.0000000000000000e+00  -3.1654499478511158e-04 3.5737355746409648e-03 0.0000000000000000e+00  -3.1099841213508593e-04 3.5565784593856527e-03 0.0000000000000000e+00  -3.1100741455317101e-04 3.5566788769385029e-03 0.0000000000000000e+00  9.3788225488826600e-03 8.4711186869021130e-03 0.0000000000000000e+00  6.9778978314461075e-03 9.1922689927206036e-03 0.0000000000000000e+00  9.4359253487773069e-03 8.4578486579506042e-03 0.0000000000000000e+00  -9.5812083739742519e-04 8.6581376315765061e-03 0.0000000000000000e+00  9.4366946106652846e-03 8.4583311852659757e-03 0.0000000000000000e+00  -1.0041449557681088e-03 8.6424878246199356e-03 0.0000000000000000e+00  9.4314271642561825e-03 9.0100364952491255e-03 0.0000000000000000e+00  -1.0047269931076801e-03 8.6430557488387932e-03 0.0000000000000000e+00  9.4306991094179112e-03 9.0105421394186466e-03 0.0000000000000000e+00  -2.1371791184978512e-03 8.7606442448591153e-03 0.0000000000000000e+00  9.3765318627342022e-03 8.9964111002988258e-03 0.0000000000000000e+00  -9.8686993849065002e-04 8.8650081031525964e-03 0.0000000000000000e+00  6.9784614738886350e-03 8.2655306625556094e-03 0.0000000000000000e+00  -9.8642640943329141e-04 8.8654685724970893e-03 0.0000000000000000e+00  -9.4891238752753447e-04 8.8537426096994675e-03 0.0000000000000000e+00  1.3350147513424531e-03 1.4612455310625152e-02 0.0000000000000000e+00  2.9923121545658233e-04 1.6477412819529660e-02 0.0000000000000000e+00  1.3922400926521361e-03 1.4561924324682013e-02 0.0000000000000000e+00  -1.3741037064753726e-03 1.4604709108970375e-02 0.0000000000000000e+00  1.3931756056628497e-03 1.4563270520421214e-02 0.0000000000000000e+00  -1.4338538891130802e-03 1.4559138232343512e-02 0.0000000000000000e+00  3.5734306515878755e-03 1.4580136539615315e-02 0.0000000000000000e+00  -1.4347808683313206e-03 1.4560411451009446e-02 0.0000000000000000e+00  3.5731193022171407e-03 1.4580061010716107e-02 0.0000000000000000e+00  -3.4931413965846531e-03 1.3956612870984174e-02 0.0000000000000000e+00  3.5426337139620023e-03 1.4588881800543900e-02 0.0000000000000000e+00  -3.6047037393384788e-03 1.4578937590930680e-02 0.0000000000000000e+00  2.0906945980160925e-03 1.4218539026114734e-02 0.0000000000000000e+00  -3.6043622556930447e-03 1.4578805808829859e-02 0.0000000000000000e+00  -3.5733796296235506e-03 1.4590803437963080e-02 0.0000000000000000e+00  2.1222995087350835e-04 1.7475740263446209e-02 0.0000000000000000e+00  2.1215229128137005e-04 1.7475787093573964e-02 0.0000000000000000e+00  8.5621739492861056e-05 1.7464799355947663e-02 0.0000000000000000e+00  2.1546601536562854e-04 1.7477661532115610e-02 0.0000000000000000e+00  8.5649579364871717e-05 1.7464806197612242e-02 0.0000000000000000e+00  3.5155405451764766e-03 9.6344721428622115e-03 0.0000000000000000e+00  8.3671056092807637e-05 1.7463713418209018e-02 0.0000000000000000e+00  3.5142465788131449e-03 9.6089661812119604e-03 0.0000000000000000e+00  3.4207435976354327e-04 1.6059550672144100e-02 0.0000000000000000e+00  3.5141215387517462e-03 9.6087325309174645e-03 0.0000000000000000e+00  2.8498456000276519e-03 9.5468879767292361e-03 0.0000000000000000e+00  2.8490496427434346e-03 9.4971716953023179e-03 0.0000000000000000e+00  2.8488634966832259e-03 9.4978011240887828e-03 0.0000000000000000e+00  1.8588419684812041e-03 1.7506657341640666e-02 0.0000000000000000e+00  1.3911597105321749e-03 1.7657173573758643e-02 0.0000000000000000e+00  9.5849953799561445e-04 1.7718970158857174e-02 0.0000000000000000e+00  5.7612745740361450e-04 1.7696511747503078e-02 0.0000000000000000e+00  6.4867893237102945e-06 1.7492884615645146e-02 0.0000000000000000e+00  -1.6998741130616415e-04 1.7346737283681874e-02 0.0000000000000000e+00  -2.7509779972296653e-04 1.7199658655916446e-02 0.0000000000000000e+00  -3.1390260063071310e-04 1.7066514232600295e-02 0.0000000000000000e+00  -3.6175777766861588e-05 3.6446758600148623e-05 0.0000000000000000e+00  -4.1758517585836260e-05 5.7649942991923842e-05 0.0000000000000000e+00  -4.6311518582158956e-05 9.1919837683977114e-05 0.0000000000000000e+00  -5.2350880468538408e-05 1.3847427975001867e-04 0.0000000000000000e+00  -5.0736106550190603e-05 2.0528470729430889e-04 0.0000000000000000e+00  -3.2733790919778821e-05 2.9156487623436769e-04 0.0000000000000000e+00  8.0758941131644515e-05 4.9777235108349317e-04 0.0000000000000000e+00  1.8521308618601863e-04 5.6006961399165153e-04 0.0000000000000000e+00  -1.8268983377575769e-03 -3.4944835209984604e-05 0.0000000000000000e+00  -1.3111824036829325e-03 -1.8916601018825491e-04 0.0000000000000000e+00  -8.4283255977260225e-04 -2.2987510694006530e-04 0.0000000000000000e+00  -4.4034562985186790e-04 -1.7776634071016008e-04 0.0000000000000000e+00  -1.2089392949609845e-04 -6.1698414137036843e-05 0.0000000000000000e+00  1.0926210452791876e-04 9.4481126162541981e-05 0.0000000000000000e+00  2.4924420607515366e-04 2.6094660125749916e-04 0.0000000000000000e+00  3.0421617330559107e-04 4.1370924031400779e-04 0.0000000000000000e+00  -3.0788314243461235e-03 6.4121609273608575e-04 0.0000000000000000e+00  -3.8674147258570398e-03 9.2812698556372301e-04 0.0000000000000000e+00  -5.4549098281014710e-03 1.0029175447369893e-03 0.0000000000000000e+00  -6.1716354409927119e-03 7.2424291449064624e-04 0.0000000000000000e+00  -6.8024088376280227e-03 2.5839561747065433e-04 0.0000000000000000e+00  -7.3038879140344595e-03 -3.5799423831366268e-04 0.0000000000000000e+00  -7.6391454206012743e-03 -1.0811198997408384e-03 0.0000000000000000e+00  -7.7842634336518718e-03 -1.8648341849783513e-03 0.0000000000000000e+00  -1.0867055811304238e-02 -2.6598723703560130e-03 0.0000000000000000e+00  -1.0082614494260152e-02 -2.6598572009532964e-03 0.0000000000000000e+00  -9.2982057111131305e-03 -2.6598028363230422e-03 0.0000000000000000e+00  -8.5137572092893864e-03 -2.6598128414610628e-03 0.0000000000000000e+00  -1.0810829428990283e-02 7.0954693307288396e-04 0.0000000000000000e+00  -1.1178250995317376e-02 1.0166767209430965e-04 0.0000000000000000e+00  -1.1451071059544059e-02 -5.5411437416705755e-04 0.0000000000000000e+00  -1.1623083031350661e-02 -1.2433372221906604e-03 0.0000000000000000e+00  -1.1690377848686746e-02 -1.9505301013801155e-03 0.0000000000000000e+00  -9.7996416926870045e-03 1.9703926463546465e-03 0.0000000000000000e+00  -9.4858030870592028e-03 2.7429099082316578e-03 0.0000000000000000e+00  -9.3765165630487219e-03 3.5875346756382206e-03 0.0000000000000000e+00  -9.4807296378050243e-03 4.4589373502881696e-03 0.0000000000000000e+00  -9.7594500871380323e-03 5.3195927078763744e-03 0.0000000000000000e+00  -1.0171193009674945e-02 6.1095067763973134e-03 0.0000000000000000e+00  -1.0495135417284432e-02 6.8280633015428633e-03 0.0000000000000000e+00  -1.0366060144661153e-02 7.7220061612909554e-03 0.0000000000000000e+00  -1.0430467908434306e-02 9.7411725769025129e-03 0.0000000000000000e+00  -1.0434471079663461e-02 1.0662407236616128e-02 0.0000000000000000e+00  -1.0215937908443329e-02 1.1378092183646750e-02 0.0000000000000000e+00  -9.7953423721223540e-03 1.2167666782427342e-02 0.0000000000000000e+00  -9.5177905895439761e-03 1.3029006035675229e-02 0.0000000000000000e+00  -9.4128010285661201e-03 1.3903913649312555e-02 0.0000000000000000e+00  -9.5215814385325725e-03 1.4749353972271059e-02 0.0000000000000000e+00  -9.8368793442141986e-03 1.5523797857366836e-02 0.0000000000000000e+00  -1.1731532400213048e-02 1.9453919176658577e-02 0.0000000000000000e+00  -1.1664077134521521e-02 1.8745084059669619e-02 0.0000000000000000e+00  -1.1491670445154940e-02 1.8054263681991561e-02 0.0000000000000000e+00  -1.1218210170422080e-02 1.7396940280834886e-02 0.0000000000000000e+00  -1.0849924728037152e-02 1.6787680621779998e-02 0.0000000000000000e+00  -8.5475317393972992e-03 2.0164833393654741e-02 0.0000000000000000e+00  -9.3337795462971052e-03 2.0164859353962169e-02 0.0000000000000000e+00  -1.0120034068925709e-02 2.0164901675358445e-02 0.0000000000000000e+00  -1.0906296040718300e-02 2.0164912794590650e-02 0.0000000000000000e+00  -7.8164023944150667e-03 1.9368020362669588e-02 0.0000000000000000e+00  -7.6707107296321237e-03 1.8582589334447487e-02 0.0000000000000000e+00  -7.3349788524765640e-03 1.7857333856828195e-02 0.0000000000000000e+00  -6.8320881568991699e-03 1.7240045530241627e-02 0.0000000000000000e+00  -6.1999745208373910e-03 1.6773127124712756e-02 0.0000000000000000e+00  -5.4805318385412411e-03 1.6493318338426741e-02 0.0000000000000000e+00  -3.8894288631507964e-03 1.6568969234424320e-02 0.0000000000000000e+00  -3.1003373128137899e-03 1.6856133699527914e-02 0.0000000000000000e+00  2.5716939793167130e-04 1.7078088326611212e-02 0.0000000000000000e+00  2.0533242040365497e-04 1.7227109702903642e-02 0.0000000000000000e+00  7.0304169619726369e-05 1.7391295029113865e-02 0.0000000000000000e+00  -1.5254987695344219e-04 1.7544555012004075e-02 0.0000000000000000e+00  -4.6795558788944723e-04 1.7664230447016111e-02 0.0000000000000000e+00  -8.6252960758925333e-04 1.7714283163866380e-02 0.0000000000000000e+00  -1.3300107286677494e-03 1.7679473848166816e-02 0.0000000000000000e+00  -1.8428434299648671e-03 1.7528815647666545e-02 0.0000000000000000e+00  1.3708928745031181e-04 1.6938300225763026e-02 0.0000000000000000e+00  3.1350538862884425e-05 1.6999733753021752e-02 0.0000000000000000e+00  -8.1512012835190418e-05 1.7209179073569617e-02 0.0000000000000000e+00  -9.7169779209239996e-05 1.7295584736120799e-02 0.0000000000000000e+00  -9.9412731303726482e-05 1.7358648785141133e-02 0.0000000000000000e+00  -9.6678742029229333e-05 1.7409472656771494e-02 0.0000000000000000e+00  -8.8424768687916073e-05 1.7441449408622793e-02 0.0000000000000000e+00  -8.4968594527215995e-05 1.7463243314978439e-02 0.0000000000000000e+00  -4.1653794852233236e-05 1.7492932504261198e-02 0.0000000000000000e+00  -4.2875340533582478e-05 1.7486684236521215e-02 0.0000000000000000e+00  -4.5389499438503251e-05 1.7481609849797047e-02 0.0000000000000000e+00  -4.9831902487820313e-05 1.7478511054611807e-02 0.0000000000000000e+00  -5.7640838868110430e-05 1.7477754542732201e-02 0.0000000000000000e+00  -6.9932187248143403e-05 1.7478704878100434e-02 0.0000000000000000e+00  -9.1011183847833248e-06 1.7500000000000002e-02 0.0000000000000000e+00  -5.3787733965259114e-06 1.750