<?xml version="1.0"?>
<VTKFile type="UnstructuredGrid"  version="0.1"  >
<UnstructuredGrid>
<Piece  NumberOfPoints="4855" NumberOfCells="8780">
<Points>
<DataArray  type="Float64"  NumberOfComponents="3"  format="ascii">0.9483880164242298 0.6836931311526558 0  0.9494264999197789 0.6847056440044139 0  0.9494005292759887 0.6847228078606633 0  0.9735520289385229 0.7444444444444445 0  0.9494005292759886 0.8041660810282256 0  0.94942649991978 0.8041832448844759 0  0.9483880175070514 0.8051957566534116 0  3.131175874138137e-16 0.09811450876034808 0  0.06838800723463068 0.1543033514199101 0  0.05161198249294494 0.1948042433465922 0  0.0505735000802211 0.1958167551155251 0  0.05059947072401128 0.1958339189717744 0  0.0505994707240113 0.3152771921393367 0  0.05057350008021998 0.315294355995587 0  0.05161198357913653 0.3163068688507105 0  0.06838800723463068 0.356807759691201 0  3.252606517456513e-16 0.4129966023507631 0  -1.795438797635995e-16 0.4839416311832997 0  0.07083274769489223 0.4605116403870998 0  0.07084991155114129 0.4605376110308903 0  0.07186242331670639 0.4594991286215342 0  0.1696402113702762 0.5 0  0.07186242332008326 0.5405008713818427 0  0.0708499115511413 0.5394623889691096 0  0.07083274769489219 0.5394883596129002 0  -1.925543058334256e-16 0.5160583688167003 0  1.484923295436147e-15 0.5870033976492365 0  0.06838800723463068 0.643192240308799 0  0.05161198249294541 0.6836931322354806 0  0.05057350008022109 0.6847056440044139 0  0.0505994707240113 0.6847228078606633 0  0.0505994707240113 0.8041660810282256 0  0.05057350008021999 0.804183244884476 0  0.05161198249294764 0.8051957566534106 0  0.06838800723463068 0.84569664858009 0  1.485790657174135e-15 0.9018854912396524 0  0 1 0  1 1 0  0.9999999999999987 0.9018854912396523 0  1.000000000000001 0.5870033976492375 0  1 0.5160583688167003 0  0.9291672523051078 0.5394883596129003 0  0.9291500884488585 0.5394623889691117 0  0.9281375755937461 0.5405008724680134 0  0.9281375755937372 0.4594991275319777 0  0.9291500884488586 0.4605376110308884 0  0.9291672523051077 0.4605116403870997 0  1 0.4839416311832997 0  0.9999999999999987 0.4129966023507635 0  0.948388017507054 0.31630686776452 0  0.94942649991978 0.3152943559955871 0  0.9494005292759886 0.3152771921393367 0  0.9735520289385229 0.2555555555555555 0  0.9494005292759888 0.1958339189717744 0  0.9494264999197789 0.1958167551155251 0  0.9483880164208631 0.1948042422604003 0  1.000000000000001 0.09811450876034861 0  1 0 0  0 0 0  0.1958339189717744 0.2950439151684559 0  0.1958167551155252 0.2950179445246672 0  0.3152771921393367 0.2950439151684557 0  0.1948042433481841 0.2960564269357975 0  0.3152943559955858 0.2950179445246651 0  0.1948042422604031 0.2150546830875326 0  0.3163068677645244 0.2960564269373949 0  0.1958167551155251 0.2160931665864439 0  0.4140846558147206 0.2555555555555555 0  0.1958339189717744 0.2160671959426553 0  0.3163068688489276 0.215054683089313 0  0.3152771921393367 0.2160671959426553 0  0.3152943559955858 0.2160931665864459 0  0.5405008724680257 0.3163068688507107 0  0.5572768961235196 0.356807759691201 0  0.5394623889691089 0.3152943559955871 0  0.459499128618165 0.3163068677645201 0  0.5394883596129003 0.3152771921393367 0  0.4605376110308911 0.3152943559955871 0  0.5394883596129001 0.1958339189717744 0  0.4605116403870998 0.3152771921393367 0  0.53946238896911 0.1958167551155251 0  0.4846631400496339 0.2555555555555555 0  0.5405008724680251 0.1948042422604009 0  0.4605116403870998 0.1958339189717744 0  0.5572768961235196 0.1543033514199101 0  0.46053761103089 0.1958167551155251 0  0.4594991286269881 0.1948042433554141 0  0.6847228078606633 0.2950439151684559 0  0.684705644004414 0.2950179445246672 0  0.8041660810282256 0.2950439151684557 0  0.683693131164073 0.2960564280087975 0  0.8041832448844747 0.2950179445246651 0  0.6836931322354718 0.2150546841737125 0  0.8051957566534156 0.2960564269373971 0  0.6847056440044141 0.2160931665864439 0  0.9029735447036096 0.2555555555555555 0  0.6847228078606632 0.2160671959426553 0  0.8051957577274008 0.2150546830997286 0  0.8041660810282256 0.2160671959426553 0  0.8041832448844747 0.2160931665864459 0  0.2960564280235811 0.560751313295155 0  0.3128324516790751 0.6012522041356455 0  0.2950179445246645 0.5597388004400315 0  0.2150546830875235 0.5607513132951615 0  0.2950439151684557 0.5597216365837812 0  0.2160931665864466 0.5597388004400314 0  0.2950439151684558 0.4402783634162188 0  0.2160671959426553 0.5597216365837812 0  0.2950179445246656 0.4402611995599696 0  0.2402186956051895 0.5 0  0.29605642693739 0.439248687791036 0  0.2160671959426553 0.4402783634162189 0  0.3128324516790751 0.3987477958643545 0  0.2160931665864455 0.4402611995599696 0  0.2150546830875296 0.4392486867048446 0  0.1958339189717743 0.7839328040573448 0  0.1958167551155252 0.7839068334135562 0  0.3152771921393367 0.7839328040573447 0  0.1948042422604028 0.7849453169124678 0  0.3152943559955858 0.783906833413554 0  0.1948042433465913 0.7039435730626098 0  0.3163068677645284 0.7849453158262878 0  0.1958167551155251 0.7049820554753328 0  0.4140846558147206 0.7444444444444445 0  0.1958339189717744 0.7049560848315441 0  0.3163068688486237 0.7039435719785058 0  0.3152771921393367 0.7049560848315441 0  0.3152943559955858 0.7049820554753349 0  0.4402783634162188 0.5394883596129003 0  0.4402611995599696 0.5394623889691117 0  0.5597216365837812 0.5394883596129002 0  0.4392486867048468 0.5405008724680237 0  0.5597388004400302 0.5394623889691096 0  0.4392486877998708 0.4594991286270004 0  0.5607513122089726 0.540500871381843 0  0.4402611995599696 0.4605376110308884 0  0.6585291002591651 0.5 0  0.4402783634162188 0.4605116403870998 0  0.5607513121946796 0.45949912863245 0  0.5597216365837812 0.4605116403870998 0  0.5597388004400302 0.4605376110308904 0  0.78494531690701 0.5607513132896949 0  0.8017213405679641 0.6012522041356455 0  0.7839068334135535 0.5597388004400315 0  0.7039435730626069 0.5607513122089671 0  0.7839328040573448 0.5597216365837812 0  0.7049820554753355 0.5597388004400314 0  0.7839328040573448 0.4402783634162188 0  0.7049560848315441 0.5597216365837812 0  0.7839068334135545 0.4402611995599696 0  0.7291075844940784 0.5 0  0.784945315826279 0.4392486877910359 0  0.7049560848315444 0.4402783634162188 0  0.8017213405679641 0.3987477958643545 0  0.7049820554753344 0.4402611995599696 0  0.7039435719764182 0.4392486867048443 0  0.5405008724625655 0.8051957577341393 0  0.5572768961235196 0.84569664858009 0  0.539462388969109 0.804183244884476 0  0.4594991286181648 0.8051957566534091 0  0.5394883596129003 0.8041660810282256 0  0.4605376110308911 0.804183244884476 0  0.5394883596129003 0.6847228078606633 0  0.4605116403870998 0.8041660810282256 0  0.53946238896911 0.6847056440044139 0  0.4846631400496339 0.7444444444444445 0  0.5405008713818347 0.6836931322354802 0  0.4605116403870998 0.6847228078606633 0  0.5572768961235196 0.643192240308799 0  0.46053761103089 0.6847056440044139 0  0.4594991275353449 0.6836931311526599 0  0.6847228078606633 0.7839328040573448 0  0.684705644004414 0.7839068334135562 0  0.8041660810282256 0.7839328040573447 0  0.6836931311493016 0.7849453169124578 0  0.8041832448844747 0.783906833413554 0  0.68369313223548 0.7039435730626096 0  0.805195756653417 0.7849453158262875 0  0.6847056440044141 0.7049820554753328 0  0.9029735447036096 0.7444444444444445 0  0.6847228078606633 0.7049560848315441 0  0.805195757738809 0.7039435719772094 0  0.8041660810282256 0.7049560848315441 0  0.8041832448844747 0.7049820554753349 0  0.9578164230213342 0.6948838683471341 0  0.9645772892192558 0.7062137009141434 0  0.9695236884064815 0.7184451175460498 0  0.972538971146615 0.7312896684428197 0  0.9725389711466151 0.7575992204460691 0  0.9695236884064815 0.7704437713428391 0  0.9645772892192558 0.7826751879747456 0  0.9578164230213342 0.7940050205417549 0  0.01437766570919127 0.09711967848259151 0  0.02854851642641832 0.09974531144948819 0  0.04161535472570586 0.1058251712658871 0  0.05275088139110013 0.1149743244732108 0  0.06125007411586489 0.1266135117968212 0  0.06657482449792251 0.1400058227212122 0  0.06643634307317195 0.1691277076584997 0  0.06071435336153361 0.1829418078690686 0  0.04134737123322858 0.3039103077764334 0  0.03416190609801732 0.2911362521989113 0  0.02925217947541549 0.2773267630846004 0  0.02676106927623143 0.2628837102534819 0  0.02676106927623143 0.2482274008576293 0  0.02925217947541547 0.2337843480265108 0  0.03416190609801727 0.2199748589121999 0  0.04134737123322851 0.2072008033346779 0  0.06071435387356935 0.328169304128914 0  0.06643634320569657 0.3419834039471998 0  0.06657482449792249 0.371105288389899 0  0.06125007411586481 0.3844975993142901 0  0.05275088139109994 0.3961367866379005 0  0.04161535472570563 0.4052859398452242 0  0.02854851642641818 0.411365799661623 0  0.01437766570919127 0.4139914326285196 0  0 0.4697526254167924 0  0 0.455563619650285 0  0 0.4413746138837777 0  0 0.4271856081172704 0  0.06095233986089402 0.4687284952262988 0  0.04995687430503332 0.4753797281664747 0  0.03809234373417287 0.4803165365228644 0  0.02562418374773841 0.4834284730529493 0  0.01283133446055119 0.4846459169037758 0  0.08372485599813187 0.4503967593658507 0  0.09753895276796982 0.4446747697099958 0  0.1123633055586467 0.4427231038764812 0  0.1271876590095525 0.4446747646950606 0  0.1410017577150834 0.45039674967774 0  0.1528641934757506 0.4594991149204779 0  0.161966560724962 0.471361549141524 0  0.1676885480442292 0.4851756468792086 0  0.1676885480443665 0.514824353120279 0  0.1619665607254926 0.528638450857557 0  0.1528641934768762 0.5405008850783964 0  0.1410017577169217 0.5496032503211987 0  0.1271876590121153 0.5553252353042526 0  0.1123633055618306 0.5572768961235188 0  0.09753895277155772 0.5553252302909656 0  0.08372485600180817 0.5496032406362719 0  0.0128313344605512 0.5153540830962242 0  0.0256241837477384 0.5165715269470507 0  0.03809234373417282 0.5196834634771356 0  0.04995687430503334 0.5246202718335253 0  0.06095233986089401
[...]
<PointData  Vectors="$u$"> 
<DataArray  type="Float64"  Name="$u$"  NumberOfComponents="3" format="ascii">1.3753683776635769e-03 9.7617036178395521e-03 0.0000000000000000e+00  1.3444233776250759e-03 9.7788918059072052e-03 0.0000000000000000e+00  1.3440100618691976e-03 9.7783590227695574e-03 0.0000000000000000e+00  1.7015170482675721e-04 9.9840053310537840e-03 0.0000000000000000e+00  -1.4048313283565887e-04 9.6134862978646540e-03 0.0000000000000000e+00  -1.4049343947057229e-04 9.6135798864503529e-03 0.0000000000000000e+00  -1.3587946301744786e-04 9.6063194719671497e-03 0.0000000000000000e+00  -2.7143386586620691e-05 1.4476883093374914e-05 0.0000000000000000e+00  2.5811092503337649e-06 2.7832984692657066e-04 0.0000000000000000e+00  1.8532038448912630e-04 3.9227476111069234e-04 0.0000000000000000e+00  1.8995178980489642e-04 3.8530984058743529e-04 0.0000000000000000e+00  1.8994281548714956e-04 3.8539901828441990e-04 0.0000000000000000e+00  -1.2987759977955067e-03 2.1904803963215813e-04 0.0000000000000000e+00  -1.2991937850629410e-03 2.1850462916656434e-04 0.0000000000000000e+00  -1.3302323172511828e-03 2.3623823436060801e-04 0.0000000000000000e+00  -2.6205329719624195e-03 6.9621580138152063e-04 0.0000000000000000e+00  -4.3513499051729453e-03 -1.4280755627453781e-03 0.0000000000000000e+00  -6.5972293457475855e-03 -1.4281361847448121e-03 0.0000000000000000e+00  -5.8562630413955255e-03 8.1401959769436473e-04 0.0000000000000000e+00  -5.8570828249011201e-03 8.1456168117680810e-04 0.0000000000000000e+00  -5.8243281737595069e-03 8.4658160088063150e-04 0.0000000000000000e+00  -6.0288947551868990e-03 5.0015367189336869e-03 0.0000000000000000e+00  -5.8213883658775169e-03 9.1514145540231816e-03 0.0000000000000000e+00  -5.8541204328124031e-03 9.1833404116774611e-03 0.0000000000000000e+00  -5.8533017629994657e-03 9.1838812254224859e-03 0.0000000000000000e+00  -6.5931307629067803e-03 1.1422555379117934e-02 0.0000000000000000e+00  -4.3507110685182208e-03 1.1422496946858440e-02 0.0000000000000000e+00  -2.6231710167496031e-03 9.3014322272725915e-03 0.0000000000000000e+00  -1.3330086240640208e-03 9.7622557324543498e-03 0.0000000000000000e+00  -1.3022151371685378e-03 9.7803192288005332e-03 0.0000000000000000e+00  -1.3017990483932883e-03 9.7797749249093173e-03 0.0000000000000000e+00  1.8292647431564097e-04 9.6135982947002617e-03 0.0000000000000000e+00  1.8293353892136029e-04 9.6136836922659022e-03 0.0000000000000000e+00  1.7824421519298505e-04 9.6068595001201854e-03 0.0000000000000000e+00  -4.8199396559101841e-06 9.7229618584446821e-03 0.0000000000000000e+00  -3.3036838381246960e-05 9.9854105541626378e-03 0.0000000000000000e+00  -9.7479746966013449e-07 1.0000000000000000e-02 0.0000000000000000e+00  4.3237303301716119e-05 1.0000000000000000e-02 0.0000000000000000e+00  7.5370491581974622e-05 9.9852042937704586e-03 0.0000000000000000e+00  4.3903009060485935e-03 1.1421007042873616e-02 0.0000000000000000e+00  6.6316100328215038e-03 1.1421074477790682e-02 0.0000000000000000e+00  5.8921564622301482e-03 9.1834199275425306e-03 0.0000000000000000e+00  5.8929751383291554e-03 9.1828786180477642e-03 0.0000000000000000e+00  5.8602741889611527e-03 9.1509031450142247e-03 0.0000000000000000e+00  5.8806216232078559e-03 8.4575414909122113e-04 0.0000000000000000e+00  5.9133975057241300e-03 8.1368817009698730e-04 0.0000000000000000e+00  5.9125770308972132e-03 8.1314559011191456e-04 0.0000000000000000e+00  6.6546692465350426e-03 -1.4324062330179949e-03 0.0000000000000000e+00  4.4054046425843207e-03 -1.4323357887979960e-03 0.0000000000000000e+00  1.3802582502114875e-03 2.3711671659996255e-04 0.0000000000000000e+00  1.3495936604768961e-03 2.1961539424681010e-04 0.0000000000000000e+00  1.3491805382677151e-03 2.2015155808101359e-04 0.0000000000000000e+00  1.7554783709682121e-04 1.5458201743854692e-05 0.0000000000000000e+00  -1.3413602154264089e-04 3.8609068272770836e-04 0.0000000000000000e+00  -1.3413834110501593e-04 3.8600469223045895e-04 0.0000000000000000e+00  -1.2862465885100683e-04 3.9308943490147931e-04 0.0000000000000000e+00  8.2234751878357344e-05 1.4572215481762635e-05 0.0000000000000000e+00  5.0065822628878119e-05 0.0000000000000000e+00 0.0000000000000000e+00  0.0000000000000000e+00 0.0000000000000000e+00 0.0000000000000000e+00  -1.5824928947756878e-03 4.6062625093770092e-03 0.0000000000000000e+00  -1.5824854413071913e-03 4.6061659067464554e-03 0.0000000000000000e+00  -2.0239180349156164e-03 4.5345721592401781e-03 0.0000000000000000e+00  -1.5769347487745182e-03 4.5894522170314344e-03 0.0000000000000000e+00  -2.0240119872954928e-03 4.5344444997984651e-03 0.0000000000000000e+00  -6.5613620915720841e-05 2.4364040640437219e-05 0.0000000000000000e+00  -2.0245773608993795e-03 4.5190012064489898e-03 0.0000000000000000e+00  -6.7432058230387540e-05 2.4188453570304328e-05 0.0000000000000000e+00  -1.8995187000604946e-03 1.2162769371922922e-03 0.0000000000000000e+00  -6.7399949448416558e-05 2.4201971761909758e-05 0.0000000000000000e+00  -1.6117048298002520e-04 1.7504926729887461e-05 0.0000000000000000e+00  -1.5880539553218004e-04 1.8337380230297545e-05 0.0000000000000000e+00  -1.5875255218582735e-04 1.8307826084887730e-05 0.0000000000000000e+00  2.0507328285034316e-03 1.6044149334358722e-03 0.0000000000000000e+00  1.2316623041273094e-03 1.7749167072449786e-03 0.0000000000000000e+00  2.0657081807775464e-03 1.6086662572659173e-03 0.0000000000000000e+00  -2.0041996836978890e-03 1.6006304013527815e-03 0.0000000000000000e+00  2.0658101817061722e-03 1.6086984180951310e-03 0.0000000000000000e+00  -2.0183752678984428e-03 1.6058572638203207e-03 0.0000000000000000e+00  8.6084930202956814e-04 1.6424399476802083e-03 0.0000000000000000e+00  -2.0184619619559407e-03 1.6058643132425847e-03 0.0000000000000000e+00  8.6037867038167473e-04 1.6431244027002832e-03 0.0000000000000000e+00  -1.9273326110453212e-03 1.9747135614368184e-03 0.0000000000000000e+00  8.3201789730521830e-04 1.6170805436268448e-03 0.0000000000000000e+00  -8.0415527835283349e-04 1.6394053107647124e-03 0.0000000000000000e+00  2.1054184318625136e-04 7.1954250048689974e-04 0.0000000000000000e+00  -8.0367731543513465e-04 1.6400976382457627e-03 0.0000000000000000e+00  -7.7507549500620060e-04 1.6140261074890176e-03 0.0000000000000000e+00  2.0743626595025504e-03 4.5375623872286825e-03 0.0000000000000000e+00  2.0744500639521190e-03 4.5374334450176837e-03 0.0000000000000000e+00  1.6331794665165860e-03 4.6114486059431904e-03 0.0000000000000000e+00  2.0755687142759065e-03 4.5215181279023593e-03 0.0000000000000000e+00  1.6331762280307356e-03 4.6113619747016801e-03 0.0000000000000000e+00  2.1658818153890303e-04 1.7443976007579975e-05 0.0000000000000000e+00  1.6277841371735197e-03 4.5958087778659572e-03 0.0000000000000000e+00  2.1410398925311112e-04 1.8093106649180634e-05 0.0000000000000000e+00  1.4441354664504542e-04 8.9388380035631783e-04 0.0000000000000000e+00  2.1415764864251370e-04 1.8121953136520527e-05 0.0000000000000000e+00  1.2073651298337577e-04 2.4179934311414531e-05 0.0000000000000000e+00  1.2272496442913532e-04 2.4484803049983720e-05 0.0000000000000000e+00  1.2276602780159342e-04 2.4463826890157575e-05 0.0000000000000000e+00  6.5284802954268994e-04 4.9184474456013347e-03 0.0000000000000000e+00  -3.2922640961206829e-04 5.3488658804014483e-03 0.0000000000000000e+00  6.7775398466495191e-04 4.9093018580044449e-03 0.0000000000000000e+00  -5.3043841150285749e-03 4.8239098455854917e-03 0.0000000000000000e+00  6.7805278843393387e-04 4.9096495900659296e-03 0.0000000000000000e+00  -5.3324180109385316e-03 4.8185172808349530e-03 0.0000000000000000e+00  6.8165589290170980e-04 5.0964678947678982e-03 0.0000000000000000e+00  -5.3327096651578400e-03 4.8188110412970102e-03 0.0000000000000000e+00  6.8135778263094752e-04 5.0968199761779256e-03 0.0000000000000000e+00  -6.0683618672580262e-03 5.0008470007814210e-03 0.0000000000000000e+00  6.5668792825479528e-04 5.0870869059831949e-03 0.0000000000000000e+00  -5.3348527451567594e-03 5.1798064249563066e-03 0.0000000000000000e+00  -3.2766305547734289e-04 4.6534180489037060e-03 0.0000000000000000e+00  -5.3346030075354595e-03 5.1800370936012754e-03 0.0000000000000000e+00  -5.3090392512030122e-03 5.1769599619629139e-03 0.0000000000000000e+00  -7.3492225778169063e-05 9.9755701644632273e-03 0.0000000000000000e+00  -7.3531180530505405e-05 9.9755881247535032e-03 0.0000000000000000e+00  -1.6467631745411223e-04 9.9816915367359465e-03 0.0000000000000000e+00  -7.1479097245679538e-05 9.9756467613787772e-03 0.0000000000000000e+00  -1.6462189507657256e-04 9.9817203237352499e-03 0.0000000000000000e+00  -1.5799897263218730e-03 5.4124769432616071e-03 0.0000000000000000e+00  -1.6720094481105369e-04 9.9823231820834451e-03 0.0000000000000000e+00  -1.5851763069273962e-03 5.3955451489327054e-03 0.0000000000000000e+00  -1.8722664588530604e-03 8.7776670034224562e-03 0.0000000000000000e+00  -1.5851906610201568e-03 5.3954445682746930e-03 0.0000000000000000e+00  -2.0270427043051448e-03 5.4847240208388522e-03 0.0000000000000000e+00  -2.0261912072172886e-03 5.4689643271168533e-03 0.0000000000000000e+00  -2.0262830180184329e-03 5.4690924171644107e-03 0.0000000000000000e+00  2.2162306852885363e-04 8.0614647792674222e-03 0.0000000000000000e+00  2.2157898163322544e-04 8.0614329871275467e-03 0.0000000000000000e+00  -1.7560431778227499e-04 8.0615073862893450e-03 0.0000000000000000e+00  2.2722358624374620e-04 8.0519485807633243e-03 0.0000000000000000e+00  -1.7555551938046627e-04 8.0614835254603535e-03 0.0000000000000000e+00  2.2754387668902910e-04 1.9502641658553728e-03 0.0000000000000000e+00  -1.8115186109818733e-04 8.0528522079149449e-03 0.0000000000000000e+00  2.2222020647839487e-04 1.9413133931924880e-03 0.0000000000000000e+00  -1.1978475618076312e-03 5.0022716147098290e-03 0.0000000000000000e+00  2.2226314810040601e-04 1.9412855434965824e-03 0.0000000000000000e+00  -1.8036881325114067e-04 1.9536777841872980e-03 0.0000000000000000e+00  -1.7518282667124650e-04 1.9444425123145864e-03 0.0000000000000000e+00  -1.7514362207919783e-04 1.9444736372129742e-03 0.0000000000000000e+00  5.3415445572318251e-03 4.8284595698649593e-03 0.0000000000000000e+00  3.9790837558234347e-03 5.1866304581817402e-03 0.0000000000000000e+00  5.3715523260004757e-03 4.8215219817541437e-03 0.0000000000000000e+00  -6.0514953494015904e-04 4.9205297554423986e-03 0.0000000000000000e+00  5.3718760085248850e-03 4.8218601444696280e-03 0.0000000000000000e+00  -6.3054887864703749e-04 4.9118903089120976e-03 0.0000000000000000e+00  5.3938729655329566e-03 5.1919523096953081e-03 0.0000000000000000e+00  -6.3084987535384069e-04 4.9122318340954771e-03 0.0000000000000000e+00  5.3935545613847486e-03 5.1922848500614458e-03 0.0000000000000000e+00  -1.2540466547930436e-03 5.0028925318721133e-03 0.0000000000000000e+00  5.3640683097285107e-03 5.1855914263930422e-03 0.0000000000000000e+00  -6.3310826687509435e-04 5.0933688929138167e-03 0.0000000000000000e+00  3.9915567144454649e-03 4.8214772280414393e-03 0.0000000000000000e+00  -6.3286957085496225e-04 5.0936275046700235e-03 0.0000000000000000e+00  -6.1134002418608926e-04 5.0876588932199660e-03 0.0000000000000000e+00  8.2153362055661938e-04 8.3880282820969054e-03 0.0000000000000000e+00  2.0063043750778045e-04 9.2800301806770895e-03 0.0000000000000000e+00  8.4925094158741271e-04 8.3618174286281786e-03 0.0000000000000000e+00  -7.7885440248007742e-04 8.3854976157161070e-03 0.0000000000000000e+00  8.4972062992843698e-04 8.3625038595659916e-03 0.0000000000000000e+00  -8.0762952369750249e-04 8.3607331609123203e-03 0.0000000000000000e+00  2.0664755429145587e-03 8.3969511457525001e-03 0.0000000000000000e+00  -8.0809975371559737e-04 8.3613996017821608e-03 0.0000000000000000e+00  2.0663828411433488e-03 8.3969676285029649e-03 0.0000000000000000e+00  -1.9273987034810738e-03 8.0289804461113282e-03 0.0000000000000000e+00  2.0515921153346317e-03 8.4017137164299534e-03 0.0000000000000000e+00  -2.0207738680378304e-03 8.3944586713474035e-03 0.0000000000000000e+00  1.2309596599754781e-03 8.2305646275821764e-03 0.0000000000000000e+00  -2.0206843864153021e-03 8.3944576923379935e-03 0.0000000000000000e+00  -2.0059670846957747e-03 8.4006254571269215e-03 0.0000000000000000e+00  2.0678855943584434e-04 9.9815561942242104e-03 0.0000000000000000e+00  2.0672815081078906e-04 9.9815899401417274e-03 0.0000000000000000e+00  1.1501652984394279e-04 9.9753711634029997e-03 0.0000000000000000e+00  2.0947329522010520e-04 9.9825802437886572e-03 0.0000000000000000e+00  1.1503674353613678e-04 9.9753757789983639e-03 0.0000000000000000e+00  2.0700999336955065e-03 5.4856216943347151e-03 0.0000000000000000e+00  1.1357966716702237e-04 9.9745265890931623e-03 0.0000000000000000e+00  2.0694421197416562e-03 5.4699679045513098e-03 0.0000000000000000e+00  1.3911471329053706e-04 9.1101095187538852e-03 0.0000000000000000e+00  2.0693478681256560e-03 5.4698386948803367e-03 0.0000000000000000e+00  1.6231444978252205e-03 5.4167529030210559e-03 0.0000000000000000e+00  1.6287554434743405e-03 5.3996435455710276e-03 0.0000000000000000e+00  1.6287483145921260e-03 5.3997424673128272e-03 0.0000000000000000e+00  1.0686738320711158e-03 9.9236808612103745e-03 0.0000000000000000e+00  8.0727361725966499e-04 1.0007548299851510e-02 0.0000000000000000e+00  5.6506480047807325e-04 1.0041131470065580e-02 0.0000000000000000e+00  3.5083019570358566e-04 1.0029331712275007e-02 0.0000000000000000e+00  2.8083563492296564e-05 9.9149890131000236e-03 0.0000000000000000e+00  -7.3567206416657647e-05 9.8321711862327903e-03 0.0000000000000000e+00  -1.3425022718547880e-04 9.7470097671496572e-03 0.0000000000000000e+00  -1.5695735378618470e-04 9.6701045747664659e-03 0.0000000000000000e+00  -2.6450777627194915e-05 2.5727159315713155e-05 0.0000000000000000e+00  -3.0037936449050523e-05 4.1155075077496230e-05 0.0000000000000000e+00  -3.3680049210922212e-05 6.5343986840249587e-05 0.0000000000000000e+00  -3.8040780775107987e-05 9.9230474080393293e-05 0.0000000000000000e+00  -3.6692508890554947e-05 1.4681064912592563e-04 0.0000000000000000e+00  -2.5378072369469941e-05 2.0840092530456604e-04 0.0000000000000000e+00  5.4216130737169142e-05 3.5411539302246267e-04 0.0000000000000000e+00  1.2519852623462969e-04 4.0171795148302258e-04 0.0000000000000000e+00  -9.9341564812361715e-04 6.2049864651260057e-05 0.0000000000000000e+00  -7.0510531866592094e-04 -2.2206370950086803e-05 0.0000000000000000e+00  -4.4357188384089194e-04 -4.4520073002528136e-05 0.0000000000000000e+00  -2.1829985293137324e-04 -1.5417416461162880e-05 0.0000000000000000e+00  -3.8016717240410540e-05 4.9639766985615749e-05 0.0000000000000000e+00  9.2939121055454654e-05 1.3763181476441613e-04 0.0000000000000000e+00  1.7360908524157785e-04 2.3285870964750481e-04 0.0000000000000000e+00  2.0505036425088818e-04 3.2130979599680242e-04 0.0000000000000000e+00  -1.7031862736032544e-03 4.4011063857050692e-04 0.0000000000000000e+00  -2.1539892339216809e-03 6.0888929666472679e-04 0.0000000000000000e+00  -3.0569901618372861e-03 6.6419831781198643e-04 0.0000000000000000e+00  -3.4634298520627035e-03 5.0878281132088108e-04 0.0000000000000000e+00  -3.8218888650797035e-03 2.4322644567838681e-04 0.0000000000000000e+00  -4.1080194765393914e-03 -1.0978232347440845e-04 0.0000000000000000e+00  -4.2997871184193778e-03 -5.2402368970810712e-04 0.0000000000000000e+00  -4.3828464360480728e-03 -9.7286343456580340e-04 0.0000000000000000e+00  -6.1480860601981109e-03 -1.4281417091932553e-03 0.0000000000000000e+00  -5.6989170387455540e-03 -1.4281295666163463e-03 0.0000000000000000e+00  -5.2497530872820707e-03 -1.4280936959210132e-03 0.0000000000000000e+00  -4.8005783900967776e-03 -1.4280891111857672e-03 0.0000000000000000e+00  -6.1159709967523847e-03 5.0112882603291730e-04 0.0000000000000000e+00  -6.3263101789937104e-03 1.5308020027263644e-04 0.0000000000000000e+00  -6.4825008502658911e-03 -2.2241301484263347e-04 0.0000000000000000e+00  -6.5809864553128712e-03 -6.1704385131732746e-04 0.0000000000000000e+00  -6.6195195327443061e-03 -1.0219753083254971e-03 0.0000000000000000e+00  -5.5375618889250914e-03 1.2236485188584780e-03 0.0000000000000000e+00  -5.3579285642426627e-03 1.6678503807810629e-03 0.0000000000000000e+00  -5.2955403284515208e-03 2.1572753473468832e-03 0.0000000000000000e+00  -5.3506522271641651e-03 2.6665689927602722e-03 0.0000000000000000e+00  -5.5003921748159792e-03 3.1799489771342023e-03 0.0000000000000000e+00  -5.7234388468034216e-03 3.6641810556221348e-03 0.0000000000000000e+00  -5.9387008934803486e-03 4.1084265183550014e-03 0.0000000000000000e+00  -5.9911113310487703e-03 4.5550191259885577e-03 0.0000000000000000e+00  -6.0256531402759737e-03 5.4535691639419565e-03 0.0000000000000000e+00  -5.9156993241011539e-03 5.9050070615264197e-03 0.0000000000000000e+00  -5.7163405336259580e-03 6.3349602705681822e-03 0.0000000000000000e+00  -5.4985749218038000e-03 6.8202995665439812e-03 0.0000000000000000e+00  -5.3490019958171925e-03 7.3330079795277739e-03 0.0000000000000000e+00  -5.2936805391824151e-03 7.8427525542688371e-03 0.0000000000000000e+00  -5.3557206687653656e-03 8.3311428900915835e-03 0.0000000000000000e+00  -5.5353311682712165e-03 8.7748035948022659e-03 0.0000000000000000e+00  -6.6153856631621126e-03 1.1017018727013404e-02 0.0000000000000000e+00  -6.5769096254924596e-03 1.0612712161442051e-02 0.0000000000000000e+00  -6.4785756079406513e-03 1.0218692882476697e-02 0.0000000000000000e+00  -6.3226335335723801e-03 9.8437728633440653e-03 0.0000000000000000e+00  -6.1126046705812934e-03 9.4962645789462251e-03 0.0000000000000000e+00  -4.7992365295475500e-03 1.1422497514249435e-02 0.0000000000000000e+00  -5.2477207489017132e-03 1.1422516822297906e-02 0.0000000000000000e+00  -5.6961978739308618e-03 1.1422554509631500e-02 0.0000000000000000e+00  -6.1446794919239201e-03 1.1422560424234514e-02 0.0000000000000000e+00  -4.3821701728114183e-03 1.0967975226551440e-02 0.0000000000000000e+00  -4.2991483592132729e-03 1.0519878143475729e-02 0.0000000000000000e+00  -4.1078558151142986e-03 1.0106003565367155e-02 0.0000000000000000e+00  -3.8220192228093082e-03 9.7539172856091986e-03 0.0000000000000000e+00  -3.4642660371685965e-03 9.4888460242369774e-03 0.0000000000000000e+00  -3.0580920440806346e-03 9.3332382249384695e-03 0.0000000000000000e+00  -2.1566939130518905e-03 9.3900783824904070e-03 0.0000000000000000e+00  -1.7064294722991538e-03 9.5587762390216355e-03 0.0000000000000000e+00  1.9888433247861566e-04 9.6772553674993930e-03 0.0000000000000000e+00  1.6754684273164317e-04 9.7653209069904472e-03 0.0000000000000000e+00  8.7500605924490730e-05 9.8603860667468481e-03 0.0000000000000000e+00  -4.2372446680983278e-05 9.9475627715120193e-03 0.0000000000000000e+00  -2.2268509338009096e-04 1.0013951803787401e-02 0.0000000000000000e+00  -4.4591005246359623e-04 1.0041343961739925e-02 0.0000000000000000e+00  -7.0829000919767364e-04 1.0020700288535498e-02 0.0000000000000000e+00  -9.9535319142221731e-04 9.9371499476060068e-03 0.0000000000000000e+00  1.1920260157391129e-04 9.5982375731055863e-03 0.0000000000000000e+00  4.7960509823872038e-05 9.6442323614427273e-03 0.0000000000000000e+00  -3.0522496038384776e-05 9.7924508571016287e-03 0.0000000000000000e+00  -4.1916792847192077e-05 9.8532742317041962e-03 0.0000000000000000e+00  -4.3351035113341073e-05 9.8991913026823478e-03 0.0000000000000000e+00  -4.0683029557109137e-05 9.9350983373414324e-03 0.0000000000000000e+00  -3.5253191620925876e-05 9.9582943201479545e-03 0.0000000000000000e+00  -3.2731624194268737e-05 9.9739499278757148e-03 0.0000000000000000e+00  -1.2081063563154479e-06 9.9950626296688404e-03 0.0000000000000000e+00  -2.1038743269893012e-06 9.9906432828468176e-03 0.0000000000000000e+00  -3.9887381704441271e-06 9.9871622947732570e-03 0.0000000000000000e+00  -7.2701052229594204e-06 9.9849275121274596e-03 0.0000000000000000e+00  -1.2967837968709590e-05 9.9844860808649041e-03 0.0000000000000000e+00  -2.1892706271979827e-05 9.9851236316545171e-03 0.0000000000000000e+00  4.4994952094404398e-05 1.0000000000000000e-02 0.0000000000000000e+00  4.7628980006083824e-05 1.000000000