<?xml version="1.0"?>
<VTKFile type="UnstructuredGrid"  version="0.1"  >
<UnstructuredGrid>
<Piece  NumberOfPoints="4855" NumberOfCells="8780">
<Points>
<DataArray  type="Float64"  NumberOfComponents="3"  format="ascii">0.9483880164242298 0.6836931311526558 0  0.9494264999197789 0.6847056440044139 0  0.9494005292759887 0.6847228078606633 0  0.9735520289385229 0.7444444444444445 0  0.9494005292759886 0.8041660810282256 0  0.94942649991978 0.8041832448844759 0  0.9483880175070514 0.8051957566534116 0  3.131175874138137e-16 0.09811450876034808 0  0.06838800723463068 0.1543033514199101 0  0.05161198249294494 0.1948042433465922 0  0.0505735000802211 0.1958167551155251 0  0.05059947072401128 0.1958339189717744 0  0.0505994707240113 0.3152771921393367 0  0.05057350008021998 0.315294355995587 0  0.05161198357913653 0.3163068688507105 0  0.06838800723463068 0.356807759691201 0  3.252606517456513e-16 0.4129966023507631 0  -1.795438797635995e-16 0.4839416311832997 0  0.07083274769489223 0.4605116403870998 0  0.07084991155114129 0.4605376110308903 0  0.07186242331670639 0.4594991286215342 0  0.1696402113702762 0.5 0  0.07186242332008326 0.5405008713818427 0  0.0708499115511413 0.5394623889691096 0  0.07083274769489219 0.5394883596129002 0  -1.925543058334256e-16 0.5160583688167003 0  1.484923295436147e-15 0.5870033976492365 0  0.06838800723463068 0.643192240308799 0  0.05161198249294541 0.6836931322354806 0  0.05057350008022109 0.6847056440044139 0  0.0505994707240113 0.6847228078606633 0  0.0505994707240113 0.8041660810282256 0  0.05057350008021999 0.804183244884476 0  0.05161198249294764 0.8051957566534106 0  0.06838800723463068 0.84569664858009 0  1.485790657174135e-15 0.9018854912396524 0  0 1 0  1 1 0  0.9999999999999987 0.9018854912396523 0  1.000000000000001 0.5870033976492375 0  1 0.5160583688167003 0  0.9291672523051078 0.5394883596129003 0  0.9291500884488585 0.5394623889691117 0  0.9281375755937461 0.5405008724680134 0  0.9281375755937372 0.4594991275319777 0  0.9291500884488586 0.4605376110308884 0  0.9291672523051077 0.4605116403870997 0  1 0.4839416311832997 0  0.9999999999999987 0.4129966023507635 0  0.948388017507054 0.31630686776452 0  0.94942649991978 0.3152943559955871 0  0.9494005292759886 0.3152771921393367 0  0.9735520289385229 0.2555555555555555 0  0.9494005292759888 0.1958339189717744 0  0.9494264999197789 0.1958167551155251 0  0.9483880164208631 0.1948042422604003 0  1.000000000000001 0.09811450876034861 0  1 0 0  0 0 0  0.1958339189717744 0.2950439151684559 0  0.1958167551155252 0.2950179445246672 0  0.3152771921393367 0.2950439151684557 0  0.1948042433481841 0.2960564269357975 0  0.3152943559955858 0.2950179445246651 0  0.1948042422604031 0.2150546830875326 0  0.3163068677645244 0.2960564269373949 0  0.1958167551155251 0.2160931665864439 0  0.4140846558147206 0.2555555555555555 0  0.1958339189717744 0.2160671959426553 0  0.3163068688489276 0.215054683089313 0  0.3152771921393367 0.2160671959426553 0  0.3152943559955858 0.2160931665864459 0  0.5405008724680257 0.3163068688507107 0  0.5572768961235196 0.356807759691201 0  0.5394623889691089 0.3152943559955871 0  0.459499128618165 0.3163068677645201 0  0.5394883596129003 0.3152771921393367 0  0.4605376110308911 0.3152943559955871 0  0.5394883596129001 0.1958339189717744 0  0.4605116403870998 0.3152771921393367 0  0.53946238896911 0.1958167551155251 0  0.4846631400496339 0.2555555555555555 0  0.5405008724680251 0.1948042422604009 0  0.4605116403870998 0.1958339189717744 0  0.5572768961235196 0.1543033514199101 0  0.46053761103089 0.1958167551155251 0  0.4594991286269881 0.1948042433554141 0  0.6847228078606633 0.2950439151684559 0  0.684705644004414 0.2950179445246672 0  0.8041660810282256 0.2950439151684557 0  0.683693131164073 0.2960564280087975 0  0.8041832448844747 0.2950179445246651 0  0.6836931322354718 0.2150546841737125 0  0.8051957566534156 0.2960564269373971 0  0.6847056440044141 0.2160931665864439 0  0.9029735447036096 0.2555555555555555 0  0.6847228078606632 0.2160671959426553 0  0.8051957577274008 0.2150546830997286 0  0.8041660810282256 0.2160671959426553 0  0.8041832448844747 0.2160931665864459 0  0.2960564280235811 0.560751313295155 0  0.3128324516790751 0.6012522041356455 0  0.2950179445246645 0.5597388004400315 0  0.2150546830875235 0.5607513132951615 0  0.2950439151684557 0.5597216365837812 0  0.2160931665864466 0.5597388004400314 0  0.2950439151684558 0.4402783634162188 0  0.2160671959426553 0.5597216365837812 0  0.2950179445246656 0.4402611995599696 0  0.2402186956051895 0.5 0  0.29605642693739 0.439248687791036 0  0.2160671959426553 0.4402783634162189 0  0.3128324516790751 0.3987477958643545 0  0.2160931665864455 0.4402611995599696 0  0.2150546830875296 0.4392486867048446 0  0.1958339189717743 0.7839328040573448 0  0.1958167551155252 0.7839068334135562 0  0.3152771921393367 0.7839328040573447 0  0.1948042422604028 0.7849453169124678 0  0.3152943559955858 0.783906833413554 0  0.1948042433465913 0.7039435730626098 0  0.3163068677645284 0.7849453158262878 0  0.1958167551155251 0.7049820554753328 0  0.4140846558147206 0.7444444444444445 0  0.1958339189717744 0.7049560848315441 0  0.3163068688486237 0.7039435719785058 0  0.3152771921393367 0.7049560848315441 0  0.3152943559955858 0.7049820554753349 0  0.4402783634162188 0.5394883596129003 0  0.4402611995599696 0.5394623889691117 0  0.5597216365837812 0.5394883596129002 0  0.4392486867048468 0.5405008724680237 0  0.5597388004400302 0.5394623889691096 0  0.4392486877998708 0.4594991286270004 0  0.5607513122089726 0.540500871381843 0  0.4402611995599696 0.4605376110308884 0  0.6585291002591651 0.5 0  0.4402783634162188 0.4605116403870998 0  0.5607513121946796 0.45949912863245 0  0.5597216365837812 0.4605116403870998 0  0.5597388004400302 0.4605376110308904 0  0.78494531690701 0.5607513132896949 0  0.8017213405679641 0.6012522041356455 0  0.7839068334135535 0.5597388004400315 0  0.7039435730626069 0.5607513122089671 0  0.7839328040573448 0.5597216365837812 0  0.7049820554753355 0.5597388004400314 0  0.7839328040573448 0.4402783634162188 0  0.7049560848315441 0.5597216365837812 0  0.7839068334135545 0.4402611995599696 0  0.7291075844940784 0.5 0  0.784945315826279 0.4392486877910359 0  0.7049560848315444 0.4402783634162188 0  0.8017213405679641 0.3987477958643545 0  0.7049820554753344 0.4402611995599696 0  0.7039435719764182 0.4392486867048443 0  0.5405008724625655 0.8051957577341393 0  0.5572768961235196 0.84569664858009 0  0.539462388969109 0.804183244884476 0  0.4594991286181648 0.8051957566534091 0  0.5394883596129003 0.8041660810282256 0  0.4605376110308911 0.804183244884476 0  0.5394883596129003 0.6847228078606633 0  0.4605116403870998 0.8041660810282256 0  0.53946238896911 0.6847056440044139 0  0.4846631400496339 0.7444444444444445 0  0.5405008713818347 0.6836931322354802 0  0.4605116403870998 0.6847228078606633 0  0.5572768961235196 0.643192240308799 0  0.46053761103089 0.6847056440044139 0  0.4594991275353449 0.6836931311526599 0  0.6847228078606633 0.7839328040573448 0  0.684705644004414 0.7839068334135562 0  0.8041660810282256 0.7839328040573447 0  0.6836931311493016 0.7849453169124578 0  0.8041832448844747 0.783906833413554 0  0.68369313223548 0.7039435730626096 0  0.805195756653417 0.7849453158262875 0  0.6847056440044141 0.7049820554753328 0  0.9029735447036096 0.7444444444444445 0  0.6847228078606633 0.7049560848315441 0  0.805195757738809 0.7039435719772094 0  0.8041660810282256 0.7049560848315441 0  0.8041832448844747 0.7049820554753349 0  0.9578164230213342 0.6948838683471341 0  0.9645772892192558 0.7062137009141434 0  0.9695236884064815 0.7184451175460498 0  0.972538971146615 0.7312896684428197 0  0.9725389711466151 0.7575992204460691 0  0.9695236884064815 0.7704437713428391 0  0.9645772892192558 0.7826751879747456 0  0.9578164230213342 0.7940050205417549 0  0.01437766570919127 0.09711967848259151 0  0.02854851642641832 0.09974531144948819 0  0.04161535472570586 0.1058251712658871 0  0.05275088139110013 0.1149743244732108 0  0.06125007411586489 0.1266135117968212 0  0.06657482449792251 0.1400058227212122 0  0.06643634307317195 0.1691277076584997 0  0.06071435336153361 0.1829418078690686 0  0.04134737123322858 0.3039103077764334 0  0.03416190609801732 0.2911362521989113 0  0.02925217947541549 0.2773267630846004 0  0.02676106927623143 0.2628837102534819 0  0.02676106927623143 0.2482274008576293 0  0.02925217947541547 0.2337843480265108 0  0.03416190609801727 0.2199748589121999 0  0.04134737123322851 0.2072008033346779 0  0.06071435387356935 0.328169304128914 0  0.06643634320569657 0.3419834039471998 0  0.06657482449792249 0.371105288389899 0  0.06125007411586481 0.3844975993142901 0  0.05275088139109994 0.3961367866379005 0  0.04161535472570563 0.4052859398452242 0  0.02854851642641818 0.411365799661623 0  0.01437766570919127 0.4139914326285196 0  0 0.4697526254167924 0  0 0.455563619650285 0  0 0.4413746138837777 0  0 0.4271856081172704 0  0.06095233986089402 0.4687284952262988 0  0.04995687430503332 0.4753797281664747 0  0.03809234373417287 0.4803165365228644 0  0.02562418374773841 0.4834284730529493 0  0.01283133446055119 0.4846459169037758 0  0.08372485599813187 0.4503967593658507 0  0.09753895276796982 0.4446747697099958 0  0.1123633055586467 0.4427231038764812 0  0.1271876590095525 0.4446747646950606 0  0.1410017577150834 0.45039674967774 0  0.1528641934757506 0.4594991149204779 0  0.161966560724962 0.471361549141524 0  0.1676885480442292 0.4851756468792086 0  0.1676885480443665 0.514824353120279 0  0.1619665607254926 0.528638450857557 0  0.1528641934768762 0.5405008850783964 0  0.1410017577169217 0.5496032503211987 0  0.1271876590121153 0.5553252353042526 0  0.1123633055618306 0.5572768961235188 0  0.09753895277155772 0.5553252302909656 0  0.08372485600180817 0.5496032406362719 0  0.0128313344605512 0.5153540830962242 0  0.0256241837477384 0.5165715269470507 0  0.03809234373417282 0.5196834634771356 0  0.04995687430503334 0.5246202718335253 0  0.06095233986089401
[...]
<PointData  Vectors="$u$"> 
<DataArray  type="Float64"  Name="$u$"  NumberOfComponents="3" format="ascii">3.5068341427047776e-03 2.6041663259953034e-02 0.0000000000000000e+00  3.4247842070938210e-03 2.6079027796856030e-02 0.0000000000000000e+00  3.4235883615613234e-03 2.6077951037647103e-02 0.0000000000000000e+00  3.1280739501785324e-04 2.6611807367165046e-02 0.0000000000000000e+00  -4.8867292905486375e-04 2.5689186843539037e-02 0.0000000000000000e+00  -4.8871734904196694e-04 2.5689601655381492e-02 0.0000000000000000e+00  -4.7951823699214321e-04 2.5665914113102564e-02 0.0000000000000000e+00  -4.0973539926167099e-05 2.5453224433916877e-05 0.0000000000000000e+00  1.4766961155208777e-05 4.4528034050452078e-04 0.0000000000000000e+00  3.3982291561233778e-04 5.8209389396754430e-04 0.0000000000000000e+00  3.4981014127281234e-04 5.6075661260870284e-04 0.0000000000000000e+00  3.4977979399058008e-04 5.6112495015471324e-04 0.0000000000000000e+00  -3.5673302875980158e-03 1.6562125336037973e-04 0.0000000000000000e+00  -3.5685780606812159e-03 1.6445737506469066e-04 0.0000000000000000e+00  -3.6546228718530318e-03 2.0495668042696540e-04 0.0000000000000000e+00  -7.1034359960765077e-03 1.3381285895061829e-03 0.0000000000000000e+00  -1.1798621913796841e-02 -4.4060954418348001e-03 0.0000000000000000e+00  -1.7804211722560088e-02 -4.4061439276657207e-03 0.0000000000000000e+00  -1.5821741885122035e-02 1.5896638734667770e-03 0.0000000000000000e+00  -1.5823936671417505e-02 1.5911149659777791e-03 0.0000000000000000e+00  -1.5736249744665455e-02 1.6767840951608666e-03 0.0000000000000000e+00  -1.5538876886464936e-02 1.3092697967533250e-02 0.0000000000000000e+00  -1.5785284042288600e-02 2.4586607109016084e-02 0.0000000000000000e+00  -1.5873052970824589e-02 2.4671948203675444e-02 0.0000000000000000e+00  -1.5870859451863020e-02 2.4673396259507624e-02 0.0000000000000000e+00  -1.7851742415319321e-02 3.0664027036458642e-02 0.0000000000000000e+00  -1.1851225906470248e-02 3.0663961107311309e-02 0.0000000000000000e+00  -7.1601589535607666e-03 2.4920383980460262e-02 0.0000000000000000e+00  -3.7128206115380770e-03 2.6043130284028111e-02 0.0000000000000000e+00  -3.6307246424373356e-03 2.6084155913352725e-02 0.0000000000000000e+00  -3.6295394195776003e-03 2.6082996667016009e-02 0.0000000000000000e+00  2.5209304080595730e-04 2.5684922354780784e-02 0.0000000000000000e+00  2.5211296932304092e-04 2.5685265301926854e-02 0.0000000000000000e+00  2.4192511472581285e-04 2.5664417064149521e-02 0.0000000000000000e+00  -8.2999069256105336e-05 2.5807752882840814e-02 0.0000000000000000e+00  -1.4041361438982248e-04 2.6224277495060642e-02 0.0000000000000000e+00  -9.1701594142932873e-05 2.6249999999999999e-02 0.0000000000000000e+00  -1.4521508688512081e-04 2.6249999999999999e-02 0.0000000000000000e+00  -9.6518179729819542e-05 2.6223975342295279e-02 0.0000000000000000e+00  1.1661016933836076e-02 3.0669660962717425e-02 0.0000000000000000e+00  1.7673816336633084e-02 3.0669718864473748e-02 0.0000000000000000e+00  1.5689054667524519e-02 2.4666557921011061e-02 0.0000000000000000e+00  1.5691256295897689e-02 2.4665103314715046e-02 0.0000000000000000e+00  1.5603247899951550e-02 2.4579298162780469e-02 0.0000000000000000e+00  1.5648445425173005e-02 1.6634416355304140e-03 0.0000000000000000e+00  1.5735848054901740e-02 1.5779274985847182e-03 0.0000000000000000e+00  1.5733659803662699e-02 1.5764801516216596e-03 0.0000000000000000e+00  1.7712733698773450e-02 -4.4089570441724155e-03 0.0000000000000000e+00  1.1717537198530392e-02 -4.4088895042043380e-03 0.0000000000000000e+00  3.5886484571370151e-03 2.0618434285353117e-04 0.0000000000000000e+00  3.5069877596205393e-03 1.6587132829285321e-04 0.0000000000000000e+00  3.5058053792356558e-03 1.6701886303885230e-04 0.0000000000000000e+00  4.1085187099171847e-04 -3.6304364014137785e-04 0.0000000000000000e+00  -3.9576674100615117e-04 5.6099807397931914e-04 0.0000000000000000e+00  -3.9577297838163668e-04 5.6056321735221731e-04 0.0000000000000000e+00  -3.8360112165930596e-04 5.8451988188462905e-04 0.0000000000000000e+00  -3.6729725141303836e-06 2.5800424585033924e-05 0.0000000000000000e+00  -5.2979850076454760e-05 0.0000000000000000e+00 0.0000000000000000e+00  0.0000000000000000e+00 0.0000000000000000e+00 0.0000000000000000e+00  -4.3335145953619465e-03 1.1896274740462775e-02 0.0000000000000000e+00  -4.3335669340389587e-03 1.1894880306807284e-02 0.0000000000000000e+00  -5.1366838996067801e-03 1.1943822643862782e-02 0.0000000000000000e+00  -4.3246895900697739e-03 1.1798987415512947e-02 0.0000000000000000e+00  -5.1370187575336930e-03 1.1943174177713688e-02 0.0000000000000000e+00  -9.3560827230913536e-05 5.0882135775273815e-05 0.0000000000000000e+00  -5.1306078581744062e-03 1.1893925998419380e-02 0.0000000000000000e+00  -9.6454372352690438e-05 5.0988610388388136e-05 0.0000000000000000e+00  -4.8275318688181168e-03 4.1089984862177327e-03 0.0000000000000000e+00  -9.6400074488203920e-05 5.1014649756755463e-05 0.0000000000000000e+00  -2.3494937457102126e-04 4.0997516048514211e-05 0.0000000000000000e+00  -2.3194921994333515e-04 4.2150155526595706e-05 0.0000000000000000e+00  -2.3188286340670327e-04 4.2112785650100416e-05 0.0000000000000000e+00  5.1403005286442443e-03 4.8675638619063251e-03 0.0000000000000000e+00  3.0441121785748362e-03 5.5162575620252190e-03 0.0000000000000000e+00  5.1868456369373534e-03 4.8775733343648514e-03 0.0000000000000000e+00  -5.2456727170668085e-03 4.8616016789812333e-03 0.0000000000000000e+00  5.1874476542435322e-03 4.8774665767101627e-03 0.0000000000000000e+00  -5.2908945136669544e-03 4.8765861185588134e-03 0.0000000000000000e+00  2.5768443838334772e-03 4.8988881655183478e-03 0.0000000000000000e+00  -5.2914642235775879e-03 4.8763381920858958e-03 0.0000000000000000e+00  2.5747787135038404e-03 4.9010548485439436e-03 0.0000000000000000e+00  -5.5221731842429672e-03 5.5909379274428081e-03 0.0000000000000000e+00  2.4468247496794663e-03 4.8300486862098207e-03 0.0000000000000000e+00  -2.6338194892999993e-03 4.8738200642575429e-03 0.0000000000000000e+00  4.1602461169322334e-04 1.1495096162534690e-03 0.0000000000000000e+00  -2.6316822990076873e-03 4.8763830461799867e-03 0.0000000000000000e+00  -2.4997566293846391e-03 4.7872977189222753e-03 0.0000000000000000e+00  5.0371710604567837e-03 1.1952176849205928e-02 0.0000000000000000e+00  5.0373992561645285e-03 1.1951529917010505e-02 0.0000000000000000e+00  4.2340993296167808e-03 1.1848443364054231e-02 0.0000000000000000e+00  5.0350911106445666e-03 1.1902052972122148e-02 0.0000000000000000e+00  4.2340154010194466e-03 1.1847104262380522e-02 0.0000000000000000e+00  1.9103187924927829e-04 3.9394299775907124e-05 0.0000000000000000e+00  4.2304582761738731e-03 1.1756080163217702e-02 0.0000000000000000e+00  1.8872351177918068e-04 4.1027043483074643e-05 0.0000000000000000e+00  7.1841875942272335e-04 1.8681171525409370e-03 0.0000000000000000e+00  1.8878136048229536e-04 4.1064351873923938e-05 0.0000000000000000e+00  4.9368356104845216e-05 4.9215491583458736e-05 0.0000000000000000e+00  5.2056738455430449e-05 5.0627658346854593e-05 0.0000000000000000e+00  5.2118126387522570e-05 5.0590943790924809e-05 0.0000000000000000e+00  1.0869519222167251e-03 1.3042393750811409e-02 0.0000000000000000e+00  -1.2213724961493656e-03 1.4106433524868699e-02 0.0000000000000000e+00  1.1530992535900377e-03 1.3018811693422550e-02 0.0000000000000000e+00  -1.4304873020206872e-02 1.2681282546043633e-02 0.0000000000000000e+00  1.1539945527142272e-03 1.3019576145646703e-02 0.0000000000000000e+00  -1.4385798016949987e-02 1.2659923975089324e-02 0.0000000000000000e+00  1.1791733355782901e-03 1.3270677938737969e-02 0.0000000000000000e+00  -1.4386940114775551e-02 1.2660575488748582e-02 0.0000000000000000e+00  1.1783295735125305e-03 1.3271442042691050e-02 0.0000000000000000e+00  -1.6764923952992984e-02 1.3170765717766967e-02 0.0000000000000000e+00  1.1161089002281277e-03 1.3247182328060237e-02 0.0000000000000000e+00  -1.4327095281596132e-02 1.3579725834862317e-02 0.0000000000000000e+00  -1.1915694401932778e-03 1.2185193482597091e-02 0.0000000000000000e+00  -1.4326110356773102e-02 1.3579948561545022e-02 0.0000000000000000e+00  -1.4254743291946223e-02 1.3576190697457887e-02 0.0000000000000000e+00  -1.9664603955631027e-04 2.6200493415411547e-02 0.0000000000000000e+00  -1.9671693924465882e-04 2.6200530486051962e-02 0.0000000000000000e+00  -3.3412864207755665e-04 2.6210807376943607e-02 0.0000000000000000e+00  -1.9321493709181903e-04 2.6201407598425781e-02 0.0000000000000000e+00  -3.3406421422148681e-04 2.6210848834066880e-02 0.0000000000000000e+00  -4.3819460426009092e-03 1.4471553670469752e-02 0.0000000000000000e+00  -3.3669533356605669e-04 2.6212589002271115e-02 0.0000000000000000e+00  -4.3823090019184012e-03 1.4373651106490743e-02 0.0000000000000000e+00  -4.7409457158920348e-03 2.2252402223446446e-02 0.0000000000000000e+00  -4.3824592810221804e-03 1.4372225593691801e-02 0.0000000000000000e+00  -5.1847289632108535e-03 1.4401123479176721e-02 0.0000000000000000e+00  -5.1902170239566878e-03 1.4350353719057627e-02 0.0000000000000000e+00  -5.1905352590649973e-03 1.4351009263902734e-02 0.0000000000000000e+00  2.8983247054898190e-04 2.0501130199229858e-02 0.0000000000000000e+00  2.9015964837142590e-04 2.0500556555571509e-02 0.0000000000000000e+00  -4.5822021453260979e-04 2.0500903599687304e-02 0.0000000000000000e+00  2.8415727219755285e-04 2.0455284096212032e-02 0.0000000000000000e+00  -4.5853584255426078e-04 2.0500339559458316e-02 0.0000000000000000e+00  3.1789430991430504e-04 5.8516861023217353e-03 0.0000000000000000e+00  -4.5295400028721636e-04 2.0455493106232025e-02 0.0000000000000000e+00  3.2332931369883337e-04 5.8120036430011528e-03 0.0000000000000000e+00  -1.9750976213441960e-03 1.3124784163925504e-02 0.0000000000000000e+00  3.2301946725844761e-04 5.8115261487984926e-03 0.0000000000000000e+00  -4.1662263744886237e-04 5.8506812538966675e-03 0.0000000000000000e+00  -4.2290925269505240e-04 5.8072627975323523e-03 0.0000000000000000e+00  -4.2324914126394629e-04 5.8077906862752165e-03 0.0000000000000000e+00  1.4116326314129986e-02 1.2653667287076210e-02 0.0000000000000000e+00  1.0501602241261239e-02 1.3879918717204049e-02 0.0000000000000000e+00  1.4204028284716216e-02 1.2627050326182190e-02 0.0000000000000000e+00  -1.2591034479021586e-03 1.3063337848328749e-02 0.0000000000000000e+00  1.4205288457350571e-02 1.2627852740837060e-02 0.0000000000000000e+00  -1.3256982697989635e-03 1.3041988521101888e-02 0.0000000000000000e+00  1.4252083030683878e-02 1.3581561343131158e-02 0.0000000000000000e+00  -1.3266122919921833e-03 1.3042669126220060e-02 0.0000000000000000e+00  1.4250928058331322e-02 1.3582417918227060e-02 0.0000000000000000e+00  -2.9470209233247694e-03 1.3171854873419386e-02 0.0000000000000000e+00  1.4170470434101634e-02 1.3553305491453610e-02 0.0000000000000000e+00  -1.2762861528047645e-03 1.3276136742364244e-02 0.0000000000000000e+00  1.0564120827984594e-02 1.2323625826502772e-02 0.0000000000000000e+00  -1.2755798452303289e-03 1.3276749625205737e-02 0.0000000000000000e+00  -1.2219955238692937e-03 1.3258611431030956e-02 0.0000000000000000e+00  2.2863592185632772e-03 2.1535556461680441e-02 0.0000000000000000e+00  2.8573217082133957e-04 2.5109317116085498e-02 0.0000000000000000e+00  2.4054790615470772e-03 2.1449279373268331e-02 0.0000000000000000e+00  -2.4663382558884795e-03 2.1538840015155779e-02 0.0000000000000000e+00  2.4073948184201292e-03 2.1451723543377672e-02 0.0000000000000000e+00  -2.5859153894706903e-03 2.1467791304308911e-02 0.0000000000000000e+00  5.1426423680033320e-03 2.1443925762985344e-02 0.0000000000000000e+00  -2.5878166517438630e-03 2.1469869456439049e-02 0.0000000000000000e+00  5.1420789205555081e-03 2.1443786767706752e-02 0.0000000000000000e+00  -5.5523507012519265e-03 2.0718837835217996e-02 0.0000000000000000e+00  5.0957959706662169e-03 2.1453895972198218e-02 0.0000000000000000e+00  -5.3363383105953623e-03 2.1447810170973136e-02 0.0000000000000000e+00  2.9961216824690331e-03 2.0798338586070112e-02 0.0000000000000000e+00  -5.3356690220729202e-03 2.1447544801940201e-02 0.0000000000000000e+00  -5.2857846055320229e-03 2.1463634613159064e-02 0.0000000000000000e+00  9.7210151219321637e-05 2.6210218010972810e-02 0.0000000000000000e+00  9.7141732064604422e-05 2.6210262206057610e-02 0.0000000000000000e+00  -4.1313332933942611e-05 2.6200729785673060e-02 0.0000000000000000e+00  9.9868253296101758e-05 2.6212395043450649e-02 0.0000000000000000e+00  -4.1280546014721363e-05 2.6200738020374179e-02 0.0000000000000000e+00  5.0062389936224114e-03 1.4416125729428249e-02 0.0000000000000000e+00  -4.3586392860862933e-05 2.6199553889519014e-02 0.0000000000000000e+00  5.0125935795670290e-03 1.4368153221789257e-02 0.0000000000000000e+00  6.4812696005611410e-04 2.4341793037955979e-02 0.0000000000000000e+00  5.0122595573717024e-03 1.4367528649799304e-02 0.0000000000000000e+00  4.2088082237250867e-03 1.4437532958972023e-02 0.0000000000000000e+00  4.2164773128707247e-03 1.4343730272134821e-02 0.0000000000000000e+00  4.2165259485228406e-03 1.4345065808174233e-02 0.0000000000000000e+00  2.6860141245196876e-03 2.6467785992648360e-02 0.0000000000000000e+00  1.9877379409857700e-03 2.6688365213436371e-02 0.0000000000000000e+00  1.3442373479540944e-03 2.6776223497170258e-02 0.0000000000000000e+00  7.7983908935965666e-04 2.6734782355207150e-02 0.0000000000000000e+00  -4.6732530791602578e-05 2.6433433535526442e-02 0.0000000000000000e+00  -2.9942592902166616e-04 2.6222109072282229e-02 0.0000000000000000e+00  -4.5098235905599636e-04 2.6013496812936989e-02 0.0000000000000000e+00  -5.0963275056411920e-04 2.5823482912780357e-02 0.0000000000000000e+00  -3.9663488013719418e-05 4.3229301619722100e-05 0.0000000000000000e+00  -4.6477999453570031e-05 6.7361052842509469e-05 0.0000000000000000e+00  -5.0840419708511030e-05 1.0723809204965725e-04 0.0000000000000000e+00  -5.7008035498607452e-05 1.6010569319436116e-04 0.0000000000000000e+00  -5.4341007709286253e-05 2.3680541199986750e-04 0.0000000000000000e+00  -3.0640642853601709e-05 3.3479841579574004e-04 0.0000000000000000e+00  1.0440465036150673e-04 5.6719834780797620e-04 0.0000000000000000e+00  2.2942337292078513e-04 6.2781959920204221e-04 0.0000000000000000e+00  -2.7486559512240605e-03 -2.5009717424449629e-04 0.0000000000000000e+00  -1.9813834772208312e-03 -4.7363388134247187e-04 0.0000000000000000e+00  -1.2898358144421440e-03 -5.2544831926601161e-04 0.0000000000000000e+00  -7.0272163283225243e-04 -4.4253301123828358e-04 0.0000000000000000e+00  -2.4330552549732545e-04 -2.7189118909254448e-04 0.0000000000000000e+00  8.6879599117150862e-05 -4.7464925236025069e-05 0.0000000000000000e+00  2.8601804170031391e-04 1.8983794330951635e-04 0.0000000000000000e+00  3.6730206783257117e-04 4.0532600523188997e-04 0.0000000000000000e+00  -4.6444318299987512e-03 7.3953174973715049e-04 0.0000000000000000e+00  -5.8464491738178716e-03 1.1507639980839746e-03 0.0000000000000000e+00  -8.2941154332171977e-03 1.2156476519551607e-03 0.0000000000000000e+00  -9.4030846774320279e-03 7.7743148643475693e-04 0.0000000000000000e+00  -1.0376372632125290e-02 6.1401243535452144e-05 0.0000000000000000e+00  -1.1146790950786406e-02 -8.8213802331921080e-04 0.0000000000000000e+00  -1.1660516902269132e-02 -1.9890698746818486e-03 0.0000000000000000e+00  -1.1882838753242645e-02 -3.1889154566984916e-03 0.0000000000000000e+00  -1.6603153173788927e-02 -4.4061683330301098e-03 0.0000000000000000e+00  -1.5402016867551513e-02 -4.4061549689689214e-03 0.0000000000000000e+00  -1.4200949591639301e-02 -4.4060961120821031e-03 0.0000000000000000e+00  -1.2999789169255350e-02 -4.4061311121341880e-03 0.0000000000000000e+00  -1.6516840998306945e-02 7.5319586005722337e-04 0.0000000000000000e+00  -1.7079562955452904e-02 -1.7760740912590664e-04 0.0000000000000000e+00  -1.7497375381783302e-02 -1.1817614636672376e-03 0.0000000000000000e+00  -1.7760784902369806e-02 -2.2371417068476492e-03 0.0000000000000000e+00  -1.7863826373871742e-02 -3.3200156010334170e-03 0.0000000000000000e+00  -1.4967100319710748e-02 2.6824165722554084e-03 0.0000000000000000e+00  -1.4486970559246982e-02 3.8605235152351807e-03 0.0000000000000000e+00  -1.4318433261290786e-02 5.1408204501574824e-03 0.0000000000000000e+00  -1.4485555883841031e-02 6.4479231555700190e-03 0.0000000000000000e+00  -1.4939944440062889e-02 7.7262645676505360e-03 0.0000000000000000e+00  -1.5578550656391618e-02 8.8596406756688423e-03 0.0000000000000000e+00  -1.6013806250480916e-02 9.9181488215665751e-03 0.0000000000000000e+00  -1.5638060275009916e-02 1.1393545515778996e-02 0.0000000000000000e+00  -1.5737473304765017e-02 1.4856944703903568e-02 0.0000000000000000e+00  -1.5896866690785060e-02 1.6364813853791772e-02 0.0000000000000000e+00  -1.5647294358908225e-02 1.7412332778850678e-02 0.0000000000000000e+00  -1.4988707772209580e-02 1.8542074878745825e-02 0.0000000000000000e+00  -1.4538953491773155e-02 1.9819755723428277e-02 0.0000000000000000e+00  -1.4370034656882963e-02 2.1126961908991694e-02 0.0000000000000000e+00  -1.4536620849148908e-02 2.2404222407879544e-02 0.0000000000000000e+00  -1.5017851309464177e-02 2.3581399086649579e-02 0.0000000000000000e+00  -1.7911304172384380e-02 2.9578811429147027e-02 0.0000000000000000e+00  -1.7808329275597470e-02 2.8496867618039996e-02 0.0000000000000000e+00  -1.7545182020646831e-02 2.7442388807207101e-02 0.0000000000000000e+00  -1.7127669482637359e-02 2.6439060932731118e-02 0.0000000000000000e+00  -1.6565449968696709e-02 2.5509112699289280e-02 0.0000000000000000e+00  -1.3051442413491715e-02 3.0663979639294490e-02 0.0000000000000000e+00  -1.4251507612103339e-02 3.0664000955047965e-02 0.0000000000000000e+00  -1.5451602403032358e-02 3.0664028397366278e-02 0.0000000000000000e+00  -1.6651694248881299e-02 3.0664045796676729e-02 0.0000000000000000e+00  -1.1935539473342895e-02 2.9447828789037744e-02 0.0000000000000000e+00  -1.1713061894588062e-02 2.8249145032964957e-02 0.0000000000000000e+00  -1.1200066347372872e-02 2.7142655499583782e-02 0.0000000000000000e+00  -1.0429905461364550e-02 2.6200468691997936e-02 0.0000000000000000e+00  -9.4575141136507401e-03 2.5484696677199433e-02 0.0000000000000000e+00  -8.3477693344039365e-03 2.5046465789710565e-02 0.0000000000000000e+00  -5.9023952780402449e-03 2.5108838382976593e-02 0.0000000000000000e+00  -4.7070411567946844e-03 2.5516171439836251e-02 0.0000000000000000e+00  2.7180966448125824e-04 2.5836910714144411e-02 0.0000000000000000e+00  1.9317828362938665e-04 2.6049858110148153e-02 0.0000000000000000e+00  -2.5488409672420427e-06 2.6286272814480576e-02 0.0000000000000000e+00  -3.2548439705838949e-04 2.6508249894729427e-02 0.0000000000000000e+00  -7.8420510285291667e-04 2.6682849678442914e-02 0.0000000000000000e+00  -1.3605824409848317e-03 2.6759536712165702e-02 0.0000000000000000e+00  -2.0523721343649070e-03 2.6716474585410183e-02 0.0000000000000000e+00  -2.8136602575722456e-03 2.6496243129192833e-02 0.0000000000000000e+00  1.3147921169207315e-04 2.5618510968583513e-02 0.0000000000000000e+00  3.7103436790154071e-06 2.5680505167985784e-02 0.0000000000000000e+00  -1.3176204546196043e-04 2.5915174851357907e-02 0.0000000000000000e+00  -1.5130963061675480e-04 2.6014889551641860e-02 0.0000000000000000e+00  -1.5490710118435210e-04 2.6085757872617087e-02 0.0000000000000000e+00  -1.5355725378532958e-04 2.6144949152785788e-02 0.0000000000000000e+00  -1.4368405202489678e-04 2.6181345674127839e-02 0.0000000000000000e+00  -1.4009455584250904e-04 2.6206412667604470e-02 0.0000000000000000e+00  -9.1933978547120642e-05 2.6241451486856564e-02 0.0000000000000000e+00  -9.3218241862889526e-05 2.6233971244809615e-02 0.0000000000000000e+00  -9.5830456939741452e-05 2.6227668838306451e-02 0.0000000000000000e+00  -1.0060308556024021e-04 2.6223981774931855e-02 0.0000000000000000e+00  -1.0919981414383930e-04 2.6222826675733314e-02 0.0000000000000000e+00  -1.2298468773911297e-04 2.6223941604235947e-02 0.0000000000000000e+00  -1.4229455232482656e-04 2.6249999999999999e-02 0.0000000000000000e+00  -1.3791261401480983