<?xml version="1.0"?>
<VTKFile type="UnstructuredGrid"  version="0.1"  >
<UnstructuredGrid>
<Piece  NumberOfPoints="4855" NumberOfCells="8780">
<Points>
<DataArray  type="Float64"  NumberOfComponents="3"  format="ascii">0.9483880164242298 0.6836931311526558 0  0.9494264999197789 0.6847056440044139 0  0.9494005292759887 0.6847228078606633 0  0.9735520289385229 0.7444444444444445 0  0.9494005292759886 0.8041660810282256 0  0.94942649991978 0.8041832448844759 0  0.9483880175070514 0.8051957566534116 0  3.131175874138137e-16 0.09811450876034808 0  0.06838800723463068 0.1543033514199101 0  0.05161198249294494 0.1948042433465922 0  0.0505735000802211 0.1958167551155251 0  0.05059947072401128 0.1958339189717744 0  0.0505994707240113 0.3152771921393367 0  0.05057350008021998 0.315294355995587 0  0.05161198357913653 0.3163068688507105 0  0.06838800723463068 0.356807759691201 0  3.252606517456513e-16 0.4129966023507631 0  -1.795438797635995e-16 0.4839416311832997 0  0.07083274769489223 0.4605116403870998 0  0.07084991155114129 0.4605376110308903 0  0.07186242331670639 0.4594991286215342 0  0.1696402113702762 0.5 0  0.07186242332008326 0.5405008713818427 0  0.0708499115511413 0.5394623889691096 0  0.07083274769489219 0.5394883596129002 0  -1.925543058334256e-16 0.5160583688167003 0  1.484923295436147e-15 0.5870033976492365 0  0.06838800723463068 0.643192240308799 0  0.05161198249294541 0.6836931322354806 0  0.05057350008022109 0.6847056440044139 0  0.0505994707240113 0.6847228078606633 0  0.0505994707240113 0.8041660810282256 0  0.05057350008021999 0.804183244884476 0  0.05161198249294764 0.8051957566534106 0  0.06838800723463068 0.84569664858009 0  1.485790657174135e-15 0.9018854912396524 0  0 1 0  1 1 0  0.9999999999999987 0.9018854912396523 0  1.000000000000001 0.5870033976492375 0  1 0.5160583688167003 0  0.9291672523051078 0.5394883596129003 0  0.9291500884488585 0.5394623889691117 0  0.9281375755937461 0.5405008724680134 0  0.9281375755937372 0.4594991275319777 0  0.9291500884488586 0.4605376110308884 0  0.9291672523051077 0.4605116403870997 0  1 0.4839416311832997 0  0.9999999999999987 0.4129966023507635 0  0.948388017507054 0.31630686776452 0  0.94942649991978 0.3152943559955871 0  0.9494005292759886 0.3152771921393367 0  0.9735520289385229 0.2555555555555555 0  0.9494005292759888 0.1958339189717744 0  0.9494264999197789 0.1958167551155251 0  0.9483880164208631 0.1948042422604003 0  1.000000000000001 0.09811450876034861 0  1 0 0  0 0 0  0.1958339189717744 0.2950439151684559 0  0.1958167551155252 0.2950179445246672 0  0.3152771921393367 0.2950439151684557 0  0.1948042433481841 0.2960564269357975 0  0.3152943559955858 0.2950179445246651 0  0.1948042422604031 0.2150546830875326 0  0.3163068677645244 0.2960564269373949 0  0.1958167551155251 0.2160931665864439 0  0.4140846558147206 0.2555555555555555 0  0.1958339189717744 0.2160671959426553 0  0.3163068688489276 0.215054683089313 0  0.3152771921393367 0.2160671959426553 0  0.3152943559955858 0.2160931665864459 0  0.5405008724680257 0.3163068688507107 0  0.5572768961235196 0.356807759691201 0  0.5394623889691089 0.3152943559955871 0  0.459499128618165 0.3163068677645201 0  0.5394883596129003 0.3152771921393367 0  0.4605376110308911 0.3152943559955871 0  0.5394883596129001 0.1958339189717744 0  0.4605116403870998 0.3152771921393367 0  0.53946238896911 0.1958167551155251 0  0.4846631400496339 0.2555555555555555 0  0.5405008724680251 0.1948042422604009 0  0.4605116403870998 0.1958339189717744 0  0.5572768961235196 0.1543033514199101 0  0.46053761103089 0.1958167551155251 0  0.4594991286269881 0.1948042433554141 0  0.6847228078606633 0.2950439151684559 0  0.684705644004414 0.2950179445246672 0  0.8041660810282256 0.2950439151684557 0  0.683693131164073 0.2960564280087975 0  0.8041832448844747 0.2950179445246651 0  0.6836931322354718 0.2150546841737125 0  0.8051957566534156 0.2960564269373971 0  0.6847056440044141 0.2160931665864439 0  0.9029735447036096 0.2555555555555555 0  0.6847228078606632 0.2160671959426553 0  0.8051957577274008 0.2150546830997286 0  0.8041660810282256 0.2160671959426553 0  0.8041832448844747 0.2160931665864459 0  0.2960564280235811 0.560751313295155 0  0.3128324516790751 0.6012522041356455 0  0.2950179445246645 0.5597388004400315 0  0.2150546830875235 0.5607513132951615 0  0.2950439151684557 0.5597216365837812 0  0.2160931665864466 0.5597388004400314 0  0.2950439151684558 0.4402783634162188 0  0.2160671959426553 0.5597216365837812 0  0.2950179445246656 0.4402611995599696 0  0.2402186956051895 0.5 0  0.29605642693739 0.439248687791036 0  0.2160671959426553 0.4402783634162189 0  0.3128324516790751 0.3987477958643545 0  0.2160931665864455 0.4402611995599696 0  0.2150546830875296 0.4392486867048446 0  0.1958339189717743 0.7839328040573448 0  0.1958167551155252 0.7839068334135562 0  0.3152771921393367 0.7839328040573447 0  0.1948042422604028 0.7849453169124678 0  0.3152943559955858 0.783906833413554 0  0.1948042433465913 0.7039435730626098 0  0.3163068677645284 0.7849453158262878 0  0.1958167551155251 0.7049820554753328 0  0.4140846558147206 0.7444444444444445 0  0.1958339189717744 0.7049560848315441 0  0.3163068688486237 0.7039435719785058 0  0.3152771921393367 0.7049560848315441 0  0.3152943559955858 0.7049820554753349 0  0.4402783634162188 0.5394883596129003 0  0.4402611995599696 0.5394623889691117 0  0.5597216365837812 0.5394883596129002 0  0.4392486867048468 0.5405008724680237 0  0.5597388004400302 0.5394623889691096 0  0.4392486877998708 0.4594991286270004 0  0.5607513122089726 0.540500871381843 0  0.4402611995599696 0.4605376110308884 0  0.6585291002591651 0.5 0  0.4402783634162188 0.4605116403870998 0  0.5607513121946796 0.45949912863245 0  0.5597216365837812 0.4605116403870998 0  0.5597388004400302 0.4605376110308904 0  0.78494531690701 0.5607513132896949 0  0.8017213405679641 0.6012522041356455 0  0.7839068334135535 0.5597388004400315 0  0.7039435730626069 0.5607513122089671 0  0.7839328040573448 0.5597216365837812 0  0.7049820554753355 0.5597388004400314 0  0.7839328040573448 0.4402783634162188 0  0.7049560848315441 0.5597216365837812 0  0.7839068334135545 0.4402611995599696 0  0.7291075844940784 0.5 0  0.784945315826279 0.4392486877910359 0  0.7049560848315444 0.4402783634162188 0  0.8017213405679641 0.3987477958643545 0  0.7049820554753344 0.4402611995599696 0  0.7039435719764182 0.4392486867048443 0  0.5405008724625655 0.8051957577341393 0  0.5572768961235196 0.84569664858009 0  0.539462388969109 0.804183244884476 0  0.4594991286181648 0.8051957566534091 0  0.5394883596129003 0.8041660810282256 0  0.4605376110308911 0.804183244884476 0  0.5394883596129003 0.6847228078606633 0  0.4605116403870998 0.8041660810282256 0  0.53946238896911 0.6847056440044139 0  0.4846631400496339 0.7444444444444445 0  0.5405008713818347 0.6836931322354802 0  0.4605116403870998 0.6847228078606633 0  0.5572768961235196 0.643192240308799 0  0.46053761103089 0.6847056440044139 0  0.4594991275353449 0.6836931311526599 0  0.6847228078606633 0.7839328040573448 0  0.684705644004414 0.7839068334135562 0  0.8041660810282256 0.7839328040573447 0  0.6836931311493016 0.7849453169124578 0  0.8041832448844747 0.783906833413554 0  0.68369313223548 0.7039435730626096 0  0.805195756653417 0.7849453158262875 0  0.6847056440044141 0.7049820554753328 0  0.9029735447036096 0.7444444444444445 0  0.6847228078606633 0.7049560848315441 0  0.805195757738809 0.7039435719772094 0  0.8041660810282256 0.7049560848315441 0  0.8041832448844747 0.7049820554753349 0  0.9578164230213342 0.6948838683471341 0  0.9645772892192558 0.7062137009141434 0  0.9695236884064815 0.7184451175460498 0  0.972538971146615 0.7312896684428197 0  0.9725389711466151 0.7575992204460691 0  0.9695236884064815 0.7704437713428391 0  0.9645772892192558 0.7826751879747456 0  0.9578164230213342 0.7940050205417549 0  0.01437766570919127 0.09711967848259151 0  0.02854851642641832 0.09974531144948819 0  0.04161535472570586 0.1058251712658871 0  0.05275088139110013 0.1149743244732108 0  0.06125007411586489 0.1266135117968212 0  0.06657482449792251 0.1400058227212122 0  0.06643634307317195 0.1691277076584997 0  0.06071435336153361 0.1829418078690686 0  0.04134737123322858 0.3039103077764334 0  0.03416190609801732 0.2911362521989113 0  0.02925217947541549 0.2773267630846004 0  0.02676106927623143 0.2628837102534819 0  0.02676106927623143 0.2482274008576293 0  0.02925217947541547 0.2337843480265108 0  0.03416190609801727 0.2199748589121999 0  0.04134737123322851 0.2072008033346779 0  0.06071435387356935 0.328169304128914 0  0.06643634320569657 0.3419834039471998 0  0.06657482449792249 0.371105288389899 0  0.06125007411586481 0.3844975993142901 0  0.05275088139109994 0.3961367866379005 0  0.04161535472570563 0.4052859398452242 0  0.02854851642641818 0.411365799661623 0  0.01437766570919127 0.4139914326285196 0  0 0.4697526254167924 0  0 0.455563619650285 0  0 0.4413746138837777 0  0 0.4271856081172704 0  0.06095233986089402 0.4687284952262988 0  0.04995687430503332 0.4753797281664747 0  0.03809234373417287 0.4803165365228644 0  0.02562418374773841 0.4834284730529493 0  0.01283133446055119 0.4846459169037758 0  0.08372485599813187 0.4503967593658507 0  0.09753895276796982 0.4446747697099958 0  0.1123633055586467 0.4427231038764812 0  0.1271876590095525 0.4446747646950606 0  0.1410017577150834 0.45039674967774 0  0.1528641934757506 0.4594991149204779 0  0.161966560724962 0.471361549141524 0  0.1676885480442292 0.4851756468792086 0  0.1676885480443665 0.514824353120279 0  0.1619665607254926 0.528638450857557 0  0.1528641934768762 0.5405008850783964 0  0.1410017577169217 0.5496032503211987 0  0.1271876590121153 0.5553252353042526 0  0.1123633055618306 0.5572768961235188 0  0.09753895277155772 0.5553252302909656 0  0.08372485600180817 0.5496032406362719 0  0.0128313344605512 0.5153540830962242 0  0.0256241837477384 0.5165715269470507 0  0.03809234373417282 0.5196834634771356 0  0.04995687430503334 0.5246202718335253 0  0.06095233986089401
[...]
<PointData  Vectors="$u$"> 
<DataArray  type="Float64"  Name="$u$"  NumberOfComponents="3" format="ascii">4.3474105242546435e-03 3.2408719920555371e-02 0.0000000000000000e+00  4.2467219495205882e-03 3.2446489554690677e-02 0.0000000000000000e+00  4.2452229584893017e-03 3.2445411719643602e-02 0.0000000000000000e+00  3.7666528255539357e-04 3.3031013120266468e-02 0.0000000000000000e+00  -5.8891617485185086e-04 3.1953482250337721e-02 0.0000000000000000e+00  -5.8895560883684211e-04 3.1954042689077887e-02 0.0000000000000000e+00  -5.7889744061787127e-04 3.1924930435270775e-02 0.0000000000000000e+00  -4.1965963689695205e-05 2.6915017750389499e-05 0.0000000000000000e+00  1.8323479732187085e-05 4.5998222579281836e-04 0.0000000000000000e+00  3.6120197140770212e-04 5.7762539790025443e-04 0.0000000000000000e+00  3.7254435699134305e-04 5.5140043558569703e-04 0.0000000000000000e+00  3.7252492914699193e-04 5.5190398880834214e-04 0.0000000000000000e+00  -4.4840656276810250e-03 4.4979066749403602e-05 0.0000000000000000e+00  -4.4856353291544120e-03 4.3737838767964004e-05 0.0000000000000000e+00  -4.5916179428488199e-03 8.8232189810539009e-05 0.0000000000000000e+00  -8.8916840149168633e-03 1.4955105846263135e-03 0.0000000000000000e+00  -1.4784347857694080e-02 -5.7074236934230192e-03 0.0000000000000000e+00  -2.2298847692970292e-02 -5.7074598145374694e-03 0.0000000000000000e+00  -1.9818026936894707e-02 1.7948637255749665e-03 0.0000000000000000e+00  -1.9820772778330810e-02 1.7966794925642431e-03 0.0000000000000000e+00  -1.9711094466241374e-02 1.9039114013190356e-03 0.0000000000000000e+00  -1.9348432739799595e-02 1.6179796628304766e-02 0.0000000000000000e+00  -1.9804731773694944e-02 3.0595645998160999e-02 0.0000000000000000e+00  -1.9914613239141815e-02 3.0702505197890365e-02 0.0000000000000000e+00  -1.9911866902798118e-02 3.0704318406029850e-02 0.0000000000000000e+00  -2.2392396993004247e-02 3.8205299695703306e-02 0.0000000000000000e+00  -1.4879103800433681e-02 3.8205224831460813e-02 0.0000000000000000e+00  -8.9885468241816067e-03 3.0999960746318948e-02 0.0000000000000000e+00  -4.6825882764144587e-03 3.2405177382895820e-02 0.0000000000000000e+00  -4.5806687269701156e-03 3.2452752959872683e-02 0.0000000000000000e+00  -4.5791636524624086e-03 3.2451449359267200e-02 0.0000000000000000e+00  2.2204192277973644e-04 3.1943894059971958e-02 0.0000000000000000e+00  2.2204764195273433e-04 3.1944348672395241e-02 0.0000000000000000e+00  2.1068369129447777e-04 3.1919308695472430e-02 0.0000000000000000e+00  -1.3003472751677952e-04 3.2043535322990542e-02 0.0000000000000000e+00  -1.9230164474770824e-04 3.2472916930060790e-02 0.0000000000000000e+00  -1.4225607303143406e-04 3.2500000000000001e-02 0.0000000000000000e+00  -2.2735070883569947e-04 3.2500000000000001e-02 0.0000000000000000e+00  -1.7740917771099995e-04 3.2472683830652639e-02 0.0000000000000000e+00  1.4565808464434485e-02 3.8223596795886300e-02 0.0000000000000000e+00  2.2095412515804144e-02 3.8223652990909934e-02 0.0000000000000000e+00  1.9609786543156083e-02 3.0706053641893990e-02 0.0000000000000000e+00  1.9612544692130928e-02 3.0704231370713028e-02 0.0000000000000000e+00  1.9502280223236548e-02 3.0596747208560485e-02 0.0000000000000000e+00  1.9521596343555558e-02 1.8919858206432672e-03 0.0000000000000000e+00  1.9630825314285057e-02 1.7851137482112068e-03 0.0000000000000000e+00  1.9628090596294393e-02 1.7833048714330239e-03 0.0000000000000000e+00  2.2101401074689806e-02 -5.6960677241604139e-03 0.0000000000000000e+00  1.4609831568232631e-02 -5.6960136218197656e-03 0.0000000000000000e+00  4.4441925114203284e-03 1.0149404025217148e-04 0.0000000000000000e+00  4.3437619426610627e-03 5.7650027997493089e-05 0.0000000000000000e+00  4.3422695353348599e-03 5.8869696753094383e-05 0.0000000000000000e+00  5.1290122786612990e-04 -5.2238166357148393e-04 0.0000000000000000e+00  -4.5189598121755551e-04 5.5403932970975818e-04 0.0000000000000000e+00  -4.5188866409775623e-04 5.5343331254948454e-04 0.0000000000000000e+00  -4.3832088334915616e-04 5.8360125250591971e-04 0.0000000000000000e+00  -3.5087287876694682e-05 2.7323349900856908e-05 0.0000000000000000e+00  -8.5826386578827097e-05 0.0000000000000000e+00 0.0000000000000000e+00  0.0000000000000000e+00 0.0000000000000000e+00 0.0000000000000000e+00  -5.4173042520016942e-03 1.4669338349085596e-02 0.0000000000000000e+00  -5.4176561581671442e-03 1.4667577082517399e-02 0.0000000000000000e+00  -6.3248001449263489e-03 1.4800035449043670e-02 0.0000000000000000e+00  -5.3980663492512685e-03 1.4549113226014624e-02 0.0000000000000000e+00  -6.3251383062650603e-03 1.4799091753771098e-02 0.0000000000000000e+00  -9.6603883152653516e-05 5.7009580107461446e-05 0.0000000000000000e+00  -6.3193631114417149e-03 1.4732124000380311e-02 0.0000000000000000e+00  -9.9682935010408100e-05 5.7145730241903163e-05 0.0000000000000000e+00  -6.0288723303093591e-03 5.4509473965992546e-03 0.0000000000000000e+00  -9.9624864524002320e-05 5.7173815351677725e-05 0.0000000000000000e+00  -2.4179551755052208e-04 4.7962368101713267e-05 0.0000000000000000e+00  -2.3887708405651058e-04 4.8918939618543496e-05 0.0000000000000000e+00  -2.3881349656663868e-04 4.8883844125384120e-05 0.0000000000000000e+00  6.2880497555372660e-03 6.2180898688268772e-03 0.0000000000000000e+00  3.7201965998747760e-03 7.0670037783117151e-03 0.0000000000000000e+00  6.3416700062969220e-03 6.2366339827598779e-03 0.0000000000000000e+00  -6.4684382872441468e-03 6.2182081903366763e-03 0.0000000000000000e+00  6.3423752395396372e-03 6.2363117146282997e-03 0.0000000000000000e+00  -6.5208400410033352e-03 6.2421640727658850e-03 0.0000000000000000e+00  3.4399588520161082e-03 6.2658145165422714e-03 0.0000000000000000e+00  -6.5215112659673530e-03 6.2416784133650970e-03 0.0000000000000000e+00  3.4368605159417606e-03 6.2682696922998138e-03 0.0000000000000000e+00  -6.9657728663297157e-03 7.0559782064736473e-03 0.0000000000000000e+00  3.2552601089213249e-03 6.1916546770783331e-03 0.0000000000000000e+00  -3.5404198550503920e-03 6.2439586317161984e-03 0.0000000000000000e+00  4.5944989293608934e-04 1.2166142333243527e-03 0.0000000000000000e+00  -3.5372777410820795e-03 6.2470939010738757e-03 0.0000000000000000e+00  -3.3525652067204052e-03 6.1408886082903909e-03 0.0000000000000000e+00  6.1610938921914625e-03 1.4816945329871793e-02 0.0000000000000000e+00  6.1613010748149122e-03 1.4815971131213171e-02 0.0000000000000000e+00  5.2438639355129766e-03 1.4590478434871617e-02 0.0000000000000000e+00  6.1607448446946633e-03 1.4746179496848323e-02 0.0000000000000000e+00  5.2440407524354830e-03 1.4588783958313754e-02 0.0000000000000000e+00  1.6482696414376829e-04 4.5922123393637537e-05 0.0000000000000000e+00  5.2305793006515557e-03 1.4476396468780798e-02 0.0000000000000000e+00  1.6269285721772549e-04 4.7706134165454300e-05 0.0000000000000000e+00  1.0187813540373512e-03 2.1564877435852770e-03 0.0000000000000000e+00  1.6274856569973285e-04 4.7743557335065706e-05 0.0000000000000000e+00  1.9611433974503695e-05 5.4726083264712925e-05 0.0000000000000000e+00  2.2223382451487560e-05 5.6434657798338486e-05 0.0000000000000000e+00  2.2285277168736185e-05 5.6395981813787285e-05 0.0000000000000000e+00  1.2556320740036288e-03 1.6153040129322716e-02 0.0000000000000000e+00  -1.5561317208667761e-03 1.7472233034081099e-02 0.0000000000000000e+00  1.3366100627670663e-03 1.6127375201482622e-02 0.0000000000000000e+00  -1.7906719285244264e-02 1.5625887464995634e-02 0.0000000000000000e+00  1.3377531016885681e-03 1.6128176671571112e-02 0.0000000000000000e+00  -1.8011371253596951e-02 1.5590376910198578e-02 0.0000000000000000e+00  1.3581779634892397e-03 1.6438517457275561e-02 0.0000000000000000e+00  -1.8012905322611454e-02 1.5591375157947203e-02 0.0000000000000000e+00  1.3570886957955670e-03 1.6439402054986570e-02 0.0000000000000000e+00  -2.1084390577430105e-02 1.6312176387803832e-02 0.0000000000000000e+00  1.2807192982175655e-03 1.6409674180556645e-02 0.0000000000000000e+00  -1.7904714889232985e-02 1.6869759403666029e-02 0.0000000000000000e+00  -1.5252277473269465e-03 1.5091710006753332e-02 0.0000000000000000e+00  -1.7903398869774056e-02 1.6870160982266475e-02 0.0000000000000000e+00  -1.7811968366809493e-02 1.6859327466170883e-02 0.0000000000000000e+00  -2.5081896225010992e-04 3.2444539186565521e-02 0.0000000000000000e+00  -2.5089682493869246e-04 3.2444580396800468e-02 0.0000000000000000e+00  -3.9210391696848209e-04 3.2453980131813880e-02 0.0000000000000000e+00  -2.4707996284258418e-04 3.2445656454875987e-02 0.0000000000000000e+00  -3.9204292671536113e-04 3.2454021348223512e-02 0.0000000000000000e+00  -5.4843263259896028e-03 1.7949219810975029e-02 0.0000000000000000e+00  -3.9441093026706286e-04 3.2455910390919551e-02 0.0000000000000000e+00  -5.4913506301869069e-03 1.7822941103678294e-02 0.0000000000000000e+00  -5.9149571156394340e-03 2.7234912361691083e-02 0.0000000000000000e+00  -5.4913122239315382e-03 1.7821039719939827e-02 0.0000000000000000e+00  -6.4057486269107535e-03 1.7831812603487075e-02 0.0000000000000000e+00  -6.4120448529089054e-03 1.7760773040083673e-02 0.0000000000000000e+00  -6.4124085447767676e-03 1.7761752127918806e-02 0.0000000000000000e+00  2.7237366366403715e-04 2.5202395047771470e-02 0.0000000000000000e+00  2.7273841820817389e-04 2.5201413260609675e-02 0.0000000000000000e+00  -5.2714814466733070e-04 2.5172497616623223e-02 0.0000000000000000e+00  2.6539448623104443e-04 2.5131504951470901e-02 0.0000000000000000e+00  -5.2752341398852544e-04 2.5171489035963585e-02 0.0000000000000000e+00  3.0838261718495354e-04 7.4684551717517722e-03 0.0000000000000000e+00  -5.1942384895454097e-04 2.5100679377899570e-02 0.0000000000000000e+00  3.1260098334104651e-04 7.4089745229669671e-03 0.0000000000000000e+00  -2.2475754032241684e-03 1.6248682096763247e-02 0.0000000000000000e+00  3.1232222450768867e-04 7.4081738544454802e-03 0.0000000000000000e+00  -4.7233544727303322e-04 7.4576213141015158e-03 0.0000000000000000e+00  -4.7975338757904820e-04 7.3923554121748357e-03 0.0000000000000000e+00  -4.8012101702817446e-04 7.3932385474646412e-03 0.0000000000000000e+00  1.7604378167817375e-02 1.5590385590851946e-02 0.0000000000000000e+00  1.3104793617162854e-02 1.7192372914895906e-02 0.0000000000000000e+00  1.7717859875618202e-02 1.5552378686504595e-02 0.0000000000000000e+00  -1.5051975195932478e-03 1.6178402945141914e-02 0.0000000000000000e+00  1.7719545334678361e-02 1.5553472550378295e-02 0.0000000000000000e+00  -1.5853207560820514e-03 1.6152634444109592e-02 0.0000000000000000e+00  1.7738266273847995e-02 1.6854278786381155e-02 0.0000000000000000e+00  -1.5864507436146628e-03 1.6153386352219495e-02 0.0000000000000000e+00  1.7736779172407471e-02 1.6855422356687785e-02 0.0000000000000000e+00  -3.5747647095676419e-03 1.6306524090573191e-02 0.0000000000000000e+00  1.7636125676784686e-02 1.6814503489325238e-02 0.0000000000000000e+00  -1.5216515286012738e-03 1.6437499984084461e-02 0.0000000000000000e+00  1.3160744826916452e-02 1.5218337283185101e-02 0.0000000000000000e+00  -1.5207710746191765e-03 1.6438154604615687e-02 0.0000000000000000e+00  -1.4566282206642739e-03 1.6417792675567835e-02 0.0000000000000000e+00  3.0158196766690553e-03 2.6489544418316441e-02 0.0000000000000000e+00  2.7030101313736069e-04 3.1303162614187273e-02 0.0000000000000000e+00  3.1886433138470808e-03 2.6377684849776904e-02 0.0000000000000000e+00  -3.2848258849352257e-03 2.6495636698039525e-02 0.0000000000000000e+00  3.1915714094995174e-03 2.6380925100063089e-02 0.0000000000000000e+00  -3.4521935078536594e-03 2.6409728595430136e-02 0.0000000000000000e+00  6.2885574195002342e-03 2.6357422237514475e-02 0.0000000000000000e+00  -3.4549860844531395e-03 2.6412277464872597e-02 0.0000000000000000e+00  6.2878451027944008e-03 2.6357145122390759e-02 0.0000000000000000e+00  -7.0212497076340549e-03 2.5539604180515218e-02 0.0000000000000000e+00  6.2318152669956269e-03 2.6372259526412666e-02 0.0000000000000000e+00  -6.5820572325514578e-03 2.6381811735316930e-02 0.0000000000000000e+00  3.6562156160051783e-03 2.5510659258512515e-02 0.0000000000000000e+00  -6.5812111096590327e-03 2.6381441385978015e-02 0.0000000000000000e+00  -6.5199156797412410e-03 2.6400995763798892e-02 0.0000000000000000e+00  2.2477965567788138e-05 3.2452992998856886e-02 0.0000000000000000e+00  2.2420145095913219e-05 3.2453031996759543e-02 0.0000000000000000e+00  -1.1977250666055561e-04 3.2444727435311835e-02 0.0000000000000000e+00  2.4615445792492287e-05 3.2455049432629009e-02 0.0000000000000000e+00  -1.1973662208378049e-04 3.2444736347150997e-02 0.0000000000000000e+00  6.1223314387990899e-03 1.7846166433455584e-02 0.0000000000000000e+00  -1.2225832032899513e-04 3.2443482252570585e-02 0.0000000000000000e+00  6.1294030754004266e-03 1.7778031675232432e-02 0.0000000000000000e+00  9.2279776530359886e-04 3.0291654953186597e-02 0.0000000000000000e+00  6.1290258909738864e-03 1.7777079836359136e-02 0.0000000000000000e+00  5.2126399763311720e-03 1.7930986595348194e-02 0.0000000000000000e+00  5.2269261622844444e-03 1.7812549103994428e-02 0.0000000000000000e+00  5.2271805896033242e-03 1.7814280209988178e-02 0.0000000000000000e+00  3.3099183354053552e-03 3.2909353958521605e-02 0.0000000000000000e+00  2.4310738188953892e-03 3.3167134095196560e-02 0.0000000000000000e+00  1.6278711123262314e-03 3.3256047277316250e-02 0.0000000000000000e+00  9.3719370216978056e-04 3.3187268852884338e-02 0.0000000000000000e+00  -5.0457335932572722e-05 3.2814675469917502e-02 0.0000000000000000e+00  -3.4852771411142679e-04 3.2569106544047773e-02 0.0000000000000000e+00  -5.2950605629428174e-04 3.2330311693265015e-02 0.0000000000000000e+00  -6.0349064348778415e-04 3.2110265379190199e-02 0.0000000000000000e+00  -4.0558897231545991e-05 4.5299053591506857e-05 0.0000000000000000e+00  -4.7897111601908791e-05 7.0239247815755333e-05 0.0000000000000000e+00  -5.2018778726760683e-05 1.1187839612312875e-04 0.0000000000000000e+00  -5.8141515114841181e-05 1.6643976571465135e-04 0.0000000000000000e+00  -5.5144562565248277e-05 2.4598906257886419e-04 0.0000000000000000e+00  -2.9160850687919133e-05 3.4712757429738918e-04 0.0000000000000000e+00  1.1320662635992322e-04 5.8515817373314897e-04 0.0000000000000000e+00  2.4541823994506779e-04 6.3870327084075728e-04 0.0000000000000000e+00  -3.4499475492678002e-03 -4.4577412965244467e-04 0.0000000000000000e+00  -2.4853462388224785e-03 -7.1102137512011438e-04 0.0000000000000000e+00  -1.6223475780364437e-03 -7.5763494915198799e-04 0.0000000000000000e+00  -9.0723644190384692e-04 -6.4188794975804061e-04 0.0000000000000000e+00  -3.5019257595252307e-04 -4.2632779506166516e-04 0.0000000000000000e+00  4.3913498357797383e-05 -1.6127848235222286e-04 0.0000000000000000e+00  2.8162522971342615e-04 1.1670581602369384e-04 0.0000000000000000e+00  3.8383532586146174e-04 3.6704593166192532e-04 0.0000000000000000e+00  -5.8196313310041065e-03 7.6366645334726650e-04 0.0000000000000000e+00  -7.3178816570144281e-03 1.2743157979747347e-03 0.0000000000000000e+00  -1.0388100415515751e-02 1.3328377189804346e-03 0.0000000000000000e+00  -1.1781616502801953e-02 7.7908327630031419e-04 0.0000000000000000e+00  -1.3003288999074771e-02 -1.1797213841739644e-04 0.0000000000000000e+00  -1.3968548223303543e-02 -1.2983014463985030e-03 0.0000000000000000e+00  -1.4611470298632280e-02 -2.6832180718379776e-03 0.0000000000000000e+00  -1.4889721273902199e-02 -4.1844512806777368e-03 0.0000000000000000e+00  -2.0796012585153272e-02 -5.7074913946382772e-03 0.0000000000000000e+00  -1.9293084832161779e-02 -5.7074763308127430e-03 0.0000000000000000e+00  -1.7790246373653597e-02 -5.7074211670542409e-03 0.0000000000000000e+00  -1.6287279672670830e-02 -5.7074636624202483e-03 0.0000000000000000e+00  -2.0687917219721536e-02 7.4825897841804528e-04 0.0000000000000000e+00  -2.1392077772410995e-02 -4.1642235065520968e-04 0.0000000000000000e+00  -2.1914914452179565e-02 -1.6728909692681896e-03 0.0000000000000000e+00  -2.2244508555570280e-02 -2.9934681903372646e-03 0.0000000000000000e+00  -2.2373442762185704e-02 -4.3484301786544137e-03 0.0000000000000000e+00  -1.8747927901185044e-02 3.1615242439569083e-03 0.0000000000000000e+00  -1.8147568889727021e-02 4.6333487437294650e-03 0.0000000000000000e+00  -1.7935518288217388e-02 6.2288955839410959e-03 0.0000000000000000e+00  -1.8146761999537943e-02 7.8496402558019453e-03 0.0000000000000000e+00  -1.8729713781554653e-02 9.4269232616446853e-03 0.0000000000000000e+00  -1.9538499049368198e-02 1.0808495572193965e-02 0.0000000000000000e+00  -2.0090322042113952e-02 1.2096845589426997e-02 0.0000000000000000e+00  -1.9553517446967095e-02 1.3974901187881977e-02 0.0000000000000000e+00  -1.9695046382974403e-02 1.8496901709851594e-02 0.0000000000000000e+00  -1.9972191909660805e-02 2.0415832948227061e-02 0.0000000000000000e+00  -1.9656606742976618e-02 2.1696662437716858e-02 0.0000000000000000e+00  -1.8818891115216448e-02 2.3072337111907100e-02 0.0000000000000000e+00  -1.8244501147670455e-02 2.4650529021403945e-02 0.0000000000000000e+00  -1.8030728312304740e-02 2.6272416098238164e-02 0.0000000000000000e+00  -1.8240705146207573e-02 2.7865768971139921e-02 0.0000000000000000e+00  -1.8843182509440976e-02 2.9337490564241567e-02 0.0000000000000000e+00  -2.2466984653959694e-02 3.6846475475949846e-02 0.0000000000000000e+00  -2.2338027044160706e-02 3.5491757564843560e-02 0.0000000000000000e+00  -2.2008566844438228e-02 3.4171402996994525e-02 0.0000000000000000e+00  -2.1485715872966514e-02 3.2915105351518037e-02 0.0000000000000000e+00  -2.0781734611207772e-02 3.1750692893319110e-02 0.0000000000000000e+00  -1.6381894021697655e-02 3.8205251659373163e-02 0.0000000000000000e+00  -1.7884498255017003e-02 3.8205276139366674e-02 0.0000000000000000e+00  -1.9387153096661929e-02 3.8205297084598210e-02 0.0000000000000000e+00  -2.0889796542362872e-02 3.8205319419837860e-02 0.0000000000000000e+00  -1.4984679408475945e-02 3.6682530268972099e-02 0.0000000000000000e+00  -1.4706105491302477e-02 3.5181698797485832e-02 0.0000000000000000e+00  -1.4063562019122514e-02 3.3796509346505292e-02 0.0000000000000000e+00  -1.3098137212636521e-02 3.2616946473414107e-02 0.0000000000000000e+00  -1.1876866637551336e-02 3.1719832731089019e-02 0.0000000000000000e+00  -1.0481866778363826e-02 3.1166307555365695e-02 0.0000000000000000e+00  -7.4124112726905054e-03 3.1225624151681529e-02 0.0000000000000000e+00  -5.9196484780531062e-03 3.1734452827029920e-02 0.0000000000000000e+00  2.3520109106587420e-04 3.2121671433152324e-02 0.0000000000000000e+00  1.3718263165759769e-04 3.2366248753810813e-02 0.0000000000000000e+00  -9.3323220084908659e-05 3.2639477317856082e-02 0.0000000000000000e+00  -4.7557100356605478e-04 3.2900414031867616e-02 0.0000000000000000e+00  -1.0244270271371661e-03 3.3118369626597248e-02 0.0000000000000000e+00  -1.7241152202939777e-03 3.3230224261490950e-02 0.0000000000000000e+00  -2.5866409725326116e-03 3.3193576617919739e-02 0.0000000000000000e+00  -3.5490835906653107e-03 3.2940186424417824e-02 0.0000000000000000e+00  9.5110849716025477e-05 3.1856404232016723e-02 0.0000000000000000e+00  -3.9749114207973843e-05 3.1914258380517049e-02 0.0000000000000000e+00  -1.8201699747364550e-04 3.2152847046292253e-02 0.0000000000000000e+00  -2.0299408765949283e-04 3.2256550386000213e-02 0.0000000000000000e+00  -2.0674707551116995e-04 3.2329112733716789e-02 0.0000000000000000e+00  -2.0621828511353281e-04 3.2390938064722034e-02 0.0000000000000000e+00  -1.9554345132976835e-04 3.2428446458229961e-02 0.0000000000000000e+00  -1.9206495515221574e-04 3.2454466305784288e-02 0.0000000000000000e+00  -1.4246875761303262e-04 3.2491022183096241e-02 0.0000000000000000e+00  -1.4378671599528194e-04 3.2483222254107200e-02 0.0000000000000000e+00  -1.4642591594703384e-04 3.2476514144693908e-02 0.0000000000000000e+00  -1.5129331176359496e-04 3.2472709342780876e-02 0.0000000000000000e+00  -1.6011287992194771e-04 3.2471392419422984e-02 0.0000000000000000e+00  -1.7432961910273094e-04 3.2472580362268647e-02 0.0000000000000000e+00  -2.2430570878368813e-04 3.2500000000000001e-02 0.0000000000000000e+00  -2.19743310694067