<?xml version="1.0"?>
<VTKFile type="UnstructuredGrid"  version="0.1"  >
<UnstructuredGrid>
<Piece  NumberOfPoints="4855" NumberOfCells="8780">
<Points>
<DataArray  type="Float64"  NumberOfComponents="3"  format="ascii">0.9483880164242298 0.6836931311526558 0  0.9494264999197789 0.6847056440044139 0  0.9494005292759887 0.6847228078606633 0  0.9735520289385229 0.7444444444444445 0  0.9494005292759886 0.8041660810282256 0  0.94942649991978 0.8041832448844759 0  0.9483880175070514 0.8051957566534116 0  3.131175874138137e-16 0.09811450876034808 0  0.06838800723463068 0.1543033514199101 0  0.05161198249294494 0.1948042433465922 0  0.0505735000802211 0.1958167551155251 0  0.05059947072401128 0.1958339189717744 0  0.0505994707240113 0.3152771921393367 0  0.05057350008021998 0.315294355995587 0  0.05161198357913653 0.3163068688507105 0  0.06838800723463068 0.356807759691201 0  3.252606517456513e-16 0.4129966023507631 0  -1.795438797635995e-16 0.4839416311832997 0  0.07083274769489223 0.4605116403870998 0  0.07084991155114129 0.4605376110308903 0  0.07186242331670639 0.4594991286215342 0  0.1696402113702762 0.5 0  0.07186242332008326 0.5405008713818427 0  0.0708499115511413 0.5394623889691096 0  0.07083274769489219 0.5394883596129002 0  -1.925543058334256e-16 0.5160583688167003 0  1.484923295436147e-15 0.5870033976492365 0  0.06838800723463068 0.643192240308799 0  0.05161198249294541 0.6836931322354806 0  0.05057350008022109 0.6847056440044139 0  0.0505994707240113 0.6847228078606633 0  0.0505994707240113 0.8041660810282256 0  0.05057350008021999 0.804183244884476 0  0.05161198249294764 0.8051957566534106 0  0.06838800723463068 0.84569664858009 0  1.485790657174135e-15 0.9018854912396524 0  0 1 0  1 1 0  0.9999999999999987 0.9018854912396523 0  1.000000000000001 0.5870033976492375 0  1 0.5160583688167003 0  0.9291672523051078 0.5394883596129003 0  0.9291500884488585 0.5394623889691117 0  0.9281375755937461 0.5405008724680134 0  0.9281375755937372 0.4594991275319777 0  0.9291500884488586 0.4605376110308884 0  0.9291672523051077 0.4605116403870997 0  1 0.4839416311832997 0  0.9999999999999987 0.4129966023507635 0  0.948388017507054 0.31630686776452 0  0.94942649991978 0.3152943559955871 0  0.9494005292759886 0.3152771921393367 0  0.9735520289385229 0.2555555555555555 0  0.9494005292759888 0.1958339189717744 0  0.9494264999197789 0.1958167551155251 0  0.9483880164208631 0.1948042422604003 0  1.000000000000001 0.09811450876034861 0  1 0 0  0 0 0  0.1958339189717744 0.2950439151684559 0  0.1958167551155252 0.2950179445246672 0  0.3152771921393367 0.2950439151684557 0  0.1948042433481841 0.2960564269357975 0  0.3152943559955858 0.2950179445246651 0  0.1948042422604031 0.2150546830875326 0  0.3163068677645244 0.2960564269373949 0  0.1958167551155251 0.2160931665864439 0  0.4140846558147206 0.2555555555555555 0  0.1958339189717744 0.2160671959426553 0  0.3163068688489276 0.215054683089313 0  0.3152771921393367 0.2160671959426553 0  0.3152943559955858 0.2160931665864459 0  0.5405008724680257 0.3163068688507107 0  0.5572768961235196 0.356807759691201 0  0.5394623889691089 0.3152943559955871 0  0.459499128618165 0.3163068677645201 0  0.5394883596129003 0.3152771921393367 0  0.4605376110308911 0.3152943559955871 0  0.5394883596129001 0.1958339189717744 0  0.4605116403870998 0.3152771921393367 0  0.53946238896911 0.1958167551155251 0  0.4846631400496339 0.2555555555555555 0  0.5405008724680251 0.1948042422604009 0  0.4605116403870998 0.1958339189717744 0  0.5572768961235196 0.1543033514199101 0  0.46053761103089 0.1958167551155251 0  0.4594991286269881 0.1948042433554141 0  0.6847228078606633 0.2950439151684559 0  0.684705644004414 0.2950179445246672 0  0.8041660810282256 0.2950439151684557 0  0.683693131164073 0.2960564280087975 0  0.8041832448844747 0.2950179445246651 0  0.6836931322354718 0.2150546841737125 0  0.8051957566534156 0.2960564269373971 0  0.6847056440044141 0.2160931665864439 0  0.9029735447036096 0.2555555555555555 0  0.6847228078606632 0.2160671959426553 0  0.8051957577274008 0.2150546830997286 0  0.8041660810282256 0.2160671959426553 0  0.8041832448844747 0.2160931665864459 0  0.2960564280235811 0.560751313295155 0  0.3128324516790751 0.6012522041356455 0  0.2950179445246645 0.5597388004400315 0  0.2150546830875235 0.5607513132951615 0  0.2950439151684557 0.5597216365837812 0  0.2160931665864466 0.5597388004400314 0  0.2950439151684558 0.4402783634162188 0  0.2160671959426553 0.5597216365837812 0  0.2950179445246656 0.4402611995599696 0  0.2402186956051895 0.5 0  0.29605642693739 0.439248687791036 0  0.2160671959426553 0.4402783634162189 0  0.3128324516790751 0.3987477958643545 0  0.2160931665864455 0.4402611995599696 0  0.2150546830875296 0.4392486867048446 0  0.1958339189717743 0.7839328040573448 0  0.1958167551155252 0.7839068334135562 0  0.3152771921393367 0.7839328040573447 0  0.1948042422604028 0.7849453169124678 0  0.3152943559955858 0.783906833413554 0  0.1948042433465913 0.7039435730626098 0  0.3163068677645284 0.7849453158262878 0  0.1958167551155251 0.7049820554753328 0  0.4140846558147206 0.7444444444444445 0  0.1958339189717744 0.7049560848315441 0  0.3163068688486237 0.7039435719785058 0  0.3152771921393367 0.7049560848315441 0  0.3152943559955858 0.7049820554753349 0  0.4402783634162188 0.5394883596129003 0  0.4402611995599696 0.5394623889691117 0  0.5597216365837812 0.5394883596129002 0  0.4392486867048468 0.5405008724680237 0  0.5597388004400302 0.5394623889691096 0  0.4392486877998708 0.4594991286270004 0  0.5607513122089726 0.540500871381843 0  0.4402611995599696 0.4605376110308884 0  0.6585291002591651 0.5 0  0.4402783634162188 0.4605116403870998 0  0.5607513121946796 0.45949912863245 0  0.5597216365837812 0.4605116403870998 0  0.5597388004400302 0.4605376110308904 0  0.78494531690701 0.5607513132896949 0  0.8017213405679641 0.6012522041356455 0  0.7839068334135535 0.5597388004400315 0  0.7039435730626069 0.5607513122089671 0  0.7839328040573448 0.5597216365837812 0  0.7049820554753355 0.5597388004400314 0  0.7839328040573448 0.4402783634162188 0  0.7049560848315441 0.5597216365837812 0  0.7839068334135545 0.4402611995599696 0  0.7291075844940784 0.5 0  0.784945315826279 0.4392486877910359 0  0.7049560848315444 0.4402783634162188 0  0.8017213405679641 0.3987477958643545 0  0.7049820554753344 0.4402611995599696 0  0.7039435719764182 0.4392486867048443 0  0.5405008724625655 0.8051957577341393 0  0.5572768961235196 0.84569664858009 0  0.539462388969109 0.804183244884476 0  0.4594991286181648 0.8051957566534091 0  0.5394883596129003 0.8041660810282256 0  0.4605376110308911 0.804183244884476 0  0.5394883596129003 0.6847228078606633 0  0.4605116403870998 0.8041660810282256 0  0.53946238896911 0.6847056440044139 0  0.4846631400496339 0.7444444444444445 0  0.5405008713818347 0.6836931322354802 0  0.4605116403870998 0.6847228078606633 0  0.5572768961235196 0.643192240308799 0  0.46053761103089 0.6847056440044139 0  0.4594991275353449 0.6836931311526599 0  0.6847228078606633 0.7839328040573448 0  0.684705644004414 0.7839068334135562 0  0.8041660810282256 0.7839328040573447 0  0.6836931311493016 0.7849453169124578 0  0.8041832448844747 0.783906833413554 0  0.68369313223548 0.7039435730626096 0  0.805195756653417 0.7849453158262875 0  0.6847056440044141 0.7049820554753328 0  0.9029735447036096 0.7444444444444445 0  0.6847228078606633 0.7049560848315441 0  0.805195757738809 0.7039435719772094 0  0.8041660810282256 0.7049560848315441 0  0.8041832448844747 0.7049820554753349 0  0.9578164230213342 0.6948838683471341 0  0.9645772892192558 0.7062137009141434 0  0.9695236884064815 0.7184451175460498 0  0.972538971146615 0.7312896684428197 0  0.9725389711466151 0.7575992204460691 0  0.9695236884064815 0.7704437713428391 0  0.9645772892192558 0.7826751879747456 0  0.9578164230213342 0.7940050205417549 0  0.01437766570919127 0.09711967848259151 0  0.02854851642641832 0.09974531144948819 0  0.04161535472570586 0.1058251712658871 0  0.05275088139110013 0.1149743244732108 0  0.06125007411586489 0.1266135117968212 0  0.06657482449792251 0.1400058227212122 0  0.06643634307317195 0.1691277076584997 0  0.06071435336153361 0.1829418078690686 0  0.04134737123322858 0.3039103077764334 0  0.03416190609801732 0.2911362521989113 0  0.02925217947541549 0.2773267630846004 0  0.02676106927623143 0.2628837102534819 0  0.02676106927623143 0.2482274008576293 0  0.02925217947541547 0.2337843480265108 0  0.03416190609801727 0.2199748589121999 0  0.04134737123322851 0.2072008033346779 0  0.06071435387356935 0.328169304128914 0  0.06643634320569657 0.3419834039471998 0  0.06657482449792249 0.371105288389899 0  0.06125007411586481 0.3844975993142901 0  0.05275088139109994 0.3961367866379005 0  0.04161535472570563 0.4052859398452242 0  0.02854851642641818 0.411365799661623 0  0.01437766570919127 0.4139914326285196 0  0 0.4697526254167924 0  0 0.455563619650285 0  0 0.4413746138837777 0  0 0.4271856081172704 0  0.06095233986089402 0.4687284952262988 0  0.04995687430503332 0.4753797281664747 0  0.03809234373417287 0.4803165365228644 0  0.02562418374773841 0.4834284730529493 0  0.01283133446055119 0.4846459169037758 0  0.08372485599813187 0.4503967593658507 0  0.09753895276796982 0.4446747697099958 0  0.1123633055586467 0.4427231038764812 0  0.1271876590095525 0.4446747646950606 0  0.1410017577150834 0.45039674967774 0  0.1528641934757506 0.4594991149204779 0  0.161966560724962 0.471361549141524 0  0.1676885480442292 0.4851756468792086 0  0.1676885480443665 0.514824353120279 0  0.1619665607254926 0.528638450857557 0  0.1528641934768762 0.5405008850783964 0  0.1410017577169217 0.5496032503211987 0  0.1271876590121153 0.5553252353042526 0  0.1123633055618306 0.5572768961235188 0  0.09753895277155772 0.5553252302909656 0  0.08372485600180817 0.5496032406362719 0  0.0128313344605512 0.5153540830962242 0  0.0256241837477384 0.5165715269470507 0  0.03809234373417282 0.5196834634771356 0  0.04995687430503334 0.5246202718335253 0  0.06095233986089401
[...]
<PointData  Vectors="$u$"> 
<DataArray  type="Float64"  Name="$u$"  NumberOfComponents="3" format="ascii">1.7336245343337383e-03 1.2239039456028573e-02 0.0000000000000000e+00  1.6949826881204732e-03 1.2259950235557437e-02 0.0000000000000000e+00  1.6944710632850954e-03 1.2259295642020572e-02 0.0000000000000000e+00  2.2204486930267625e-04 1.2518687320900428e-02 0.0000000000000000e+00  -1.7117629992459266e-04 1.2054255424655554e-02 0.0000000000000000e+00  -1.7119732392502951e-04 1.2054387311900961e-02 0.0000000000000000e+00  -1.6567484130834958e-04 1.2044624360548307e-02 0.0000000000000000e+00  -3.1532239254118676e-05 1.6964506877778457e-05 0.0000000000000000e+00  3.3993916439590008e-06 3.2494709716275724e-04 0.0000000000000000e+00  2.2033234284505430e-04 4.5306588482881872e-04 0.0000000000000000e+00  2.2592299761013912e-04 4.4378264176421711e-04 0.0000000000000000e+00  2.2590510279021993e-04 4.4390701369867132e-04 0.0000000000000000e+00  -1.6447376445390771e-03 2.3771146595659347e-04 0.0000000000000000e+00  -1.6452576098433857e-03 2.3703806943976751e-04 0.0000000000000000e+00  -1.6841310695771177e-03 2.5885527371927289e-04 0.0000000000000000e+00  -3.2925171153546013e-03 8.2735893716024452e-04 0.0000000000000000e+00  -5.4524163922631307e-03 -1.8225295966563242e-03 0.0000000000000000e+00  -8.2485509021776940e-03 -1.8225948168729175e-03 0.0000000000000000e+00  -7.3259367237038962e-03 9.6892156644777083e-04 0.0000000000000000e+00  -7.3269577157092794e-03 9.6959665529082408e-04 0.0000000000000000e+00  -7.2861637198351273e-03 1.0094632206981025e-03 0.0000000000000000e+00  -7.4793332357713151e-03 6.2419750822132530e-03 0.0000000000000000e+00  -7.3022268689256018e-03 1.1490028784838393e-02 0.0000000000000000e+00  -7.3431228737107440e-03 1.1529880332846654e-02 0.0000000000000000e+00  -7.3421002460953948e-03 1.1530555709408455e-02 0.0000000000000000e+00  -8.2661349196740345e-03 1.4326306833229141e-02 0.0000000000000000e+00  -5.4657262959805801e-03 1.4326242672023060e-02 0.0000000000000000e+00  -3.3029954240190685e-03 1.1672046804336346e-02 0.0000000000000000e+00  -1.6892242693976518e-03 1.2242373529306572e-02 0.0000000000000000e+00  -1.6506378598564948e-03 1.2264486608272514e-02 0.0000000000000000e+00  -1.6501202513216433e-03 1.2263814153450217e-02 0.0000000000000000e+00  2.1466471827785496e-04 1.2057046302154668e-02 0.0000000000000000e+00  2.1468088927850798e-04 1.2057166761877234e-02 0.0000000000000000e+00  2.0906943020325259e-04 1.2048016577651512e-02 0.0000000000000000e+00  -6.5731492979611988e-06 1.2177544406899967e-02 0.0000000000000000e+00  -4.0201568953246234e-05 1.2482933539386069e-02 0.0000000000000000e+00  -3.0149138802967022e-06 1.2500000000000001e-02 0.0000000000000000e+00  4.8664649849939113e-05 1.2500000000000001e-02 0.0000000000000000e+00  8.5908244559770755e-05 1.2482658407933254e-02 0.0000000000000000e+00  5.5038918013234212e-03 1.4322125489871551e-02 0.0000000000000000e+00  8.3013786494652245e-03 1.4322196187767269e-02 0.0000000000000000e+00  7.3783184247376149e-03 1.1529254354440988e-02 0.0000000000000000e+00  7.3793407015184768e-03 1.1528578592517474e-02 0.0000000000000000e+00  7.3385001947256934e-03 1.1488677488030466e-02 0.0000000000000000e+00  7.3419838927799817e-03 1.0060535334965909e-03 0.0000000000000000e+00  7.3827880588398084e-03 9.6614008146717392e-04 0.0000000000000000e+00  7.3817666084643255e-03 9.6546462017247194e-04 0.0000000000000000e+00  8.3056344016031909e-03 -1.8298479752822615e-03 0.0000000000000000e+00  5.5057251781333149e-03 -1.8297703207253027e-03 0.0000000000000000e+00  1.7321929509648479e-03 2.5828791034224977e-04 0.0000000000000000e+00  1.6939007774355599e-03 2.3696445176418538e-04 0.0000000000000000e+00  1.6933896577932344e-03 2.3762326344061815e-04 0.0000000000000000e+00  2.2822137993994704e-04 -1.6668411654798994e-05 0.0000000000000000e+00  -1.5918166181774684e-04 4.4348880226585972e-04 0.0000000000000000e+00  -1.5919231472216288e-04 4.4336622115664443e-04 0.0000000000000000e+00  -1.5250514776295963e-04 4.5291289771213599e-04 0.0000000000000000e+00  9.6140596001030414e-05 1.7026598419848843e-05 0.0000000000000000e+00  5.8782682375043732e-05 0.0000000000000000e+00 0.0000000000000000e+00  0.0000000000000000e+00 0.0000000000000000e+00 0.0000000000000000e+00  -1.9922474749073894e-03 5.7097550312410431e-03 0.0000000000000000e+00  -1.9922244901181239e-03 5.7095827398688775e-03 0.0000000000000000e+00  -2.5280178862643519e-03 5.6378000480867552e-03 0.0000000000000000e+00  -1.9869997228405449e-03 5.6875980953778596e-03 0.0000000000000000e+00  -2.5281213481590727e-03 5.6376506157802091e-03 0.0000000000000000e+00  -7.6668978226798845e-05 2.7999595903086818e-05 0.0000000000000000e+00  -2.5293285708421647e-03 5.6190122772055559e-03 0.0000000000000000e+00  -7.8804332439110772e-05 2.7858730805237628e-05 0.0000000000000000e+00  -2.3053193064397656e-03 1.4448969190090776e-03 0.0000000000000000e+00  -7.8766137530117704e-05 2.7875342303072399e-05 0.0000000000000000e+00  -1.8844789239914051e-04 1.7637199848220130e-05 0.0000000000000000e+00  -1.8574454806271471e-04 1.8697158067360352e-05 0.0000000000000000e+00  -1.8568356523489271e-04 1.8662523580369905e-05 0.0000000000000000e+00  2.5681684608193874e-03 1.9945969577422618e-03 0.0000000000000000e+00  1.5343412182868166e-03 2.2251801180587188e-03 0.0000000000000000e+00  2.5878416877451946e-03 2.0000931044965773e-03 0.0000000000000000e+00  -2.5249294456964931e-03 1.9862704102196400e-03 0.0000000000000000e+00  2.5879813411828195e-03 2.0001325711991717e-03 0.0000000000000000e+00  -2.5435483507010395e-03 1.9933780722847512e-03 0.0000000000000000e+00  1.0316391998906010e-03 2.0274747757328365e-03 0.0000000000000000e+00  -2.5436668214996062e-03 1.9933761402240765e-03 0.0000000000000000e+00  1.0310483992068110e-03 2.0283345094428830e-03 0.0000000000000000e+00  -2.4034219029816363e-03 2.4711002456668154e-03 0.0000000000000000e+00  9.9545952821116922e-04 1.9955327571911149e-03 0.0000000000000000e+00  -9.6151383656584188e-04 2.0207244002531087e-03 0.0000000000000000e+00  2.7721486506444956e-04 8.5562965918757313e-04 0.0000000000000000e+00  -9.6091154857944007e-04 2.0215976126741176e-03 0.0000000000000000e+00  -9.2481839502771095e-04 1.9885648181678099e-03 0.0000000000000000e+00  2.5762340469215024e-03 5.6423233607781247e-03 0.0000000000000000e+00  2.5763278267003039e-03 5.6421726799130460e-03 0.0000000000000000e+00  2.0412843272284193e-03 5.7132886950765098e-03 0.0000000000000000e+00  2.5783596687628668e-03 5.6228959342679175e-03 0.0000000000000000e+00  2.0412486036262001e-03 5.7131399088259311e-03 0.0000000000000000e+00  2.5381577177024852e-04 1.7659879909999309e-05 0.0000000000000000e+00  2.0364857037791697e-03 5.6927668625306582e-03 0.0000000000000000e+00  2.5104736416190583e-04 1.8553749721628461e-05 0.0000000000000000e+00  2.0766095852558668e-04 1.0707960850883339e-03 0.0000000000000000e+00  2.5110839745361125e-04 1.8587551863720720e-05 0.0000000000000000e+00  1.4166835180673504e-04 2.7619196085178501e-05 0.0000000000000000e+00  1.4395707127506222e-04 2.8098018832430899e-05 0.0000000000000000e+00  1.4400504460990738e-04 2.8072792795784738e-05 0.0000000000000000e+00  7.7720685256015801e-04 6.1570410153481345e-03 0.0000000000000000e+00  -4.4273540511473471e-04 6.7062032406917261e-03 0.0000000000000000e+00  8.0895665145012702e-04 6.1450006322213094e-03 0.0000000000000000e+00  -6.6591016147903269e-03 6.0439619752752022e-03 0.0000000000000000e+00  8.0934018144188406e-04 6.1454506299020136e-03 0.0000000000000000e+00  -6.6951063367255530e-03 6.0367839231121653e-03 0.0000000000000000e+00  8.1839547498800561e-04 6.3526190817173129e-03 0.0000000000000000e+00  -6.6955104190077018e-03 6.0371342283858905e-03 0.0000000000000000e+00  8.1801297303422417e-04 6.3530722737054554e-03 0.0000000000000000e+00  -7.6510725444563178e-03 6.2517160161781665e-03 0.0000000000000000e+00  7.8660074081293306e-04 6.3404213725072617e-03 0.0000000000000000e+00  -6.6799857252898753e-03 6.4513056783713956e-03 0.0000000000000000e+00  -4.3874318999161598e-04 5.7849509650726777e-03 0.0000000000000000e+00  -6.6796379283789896e-03 6.4515920740688491e-03 0.0000000000000000e+00  -6.6470999056237176e-03 6.4467381870461932e-03 0.0000000000000000e+00  -8.7740654763063169e-05 1.2471744439771334e-02 0.0000000000000000e+00  -8.7786996531244313e-05 1.2471766378893275e-02 0.0000000000000000e+00  -1.9444556968450369e-04 1.2481289211711370e-02 0.0000000000000000e+00  -8.5373289526457046e-05 1.2471930754450687e-02 0.0000000000000000e+00  -1.9438272145335899e-04 1.2481323569048517e-02 0.0000000000000000e+00  -1.9945932912056007e-03 6.8016736127271757e-03 0.0000000000000000e+00  -1.9729985824393142e-04 1.2482188970109869e-02 0.0000000000000000e+00  -1.9992103787003176e-03 6.7790303292792195e-03 0.0000000000000000e+00  -2.2597045412310920e-03 1.1025432023990461e-02 0.0000000000000000e+00  -1.9992484214134297e-03 6.7788486796338532e-03 0.0000000000000000e+00  -2.5355411409345736e-03 6.8734916619535612e-03 0.0000000000000000e+00  -2.5340369545684372e-03 6.8543688293812681e-03 0.0000000000000000e+00  -2.5341393533918058e-03 6.8545197846075828e-03 0.0000000000000000e+00  2.6729375404060680e-04 1.0066770391646761e-02 0.0000000000000000e+00  2.6724440078544490e-04 1.0066728766106264e-02 0.0000000000000000e+00  -2.1897093570042697e-04 1.0072002467443034e-02 0.0000000000000000e+00  2.7400750212903155e-04 1.0054957318992898e-02 0.0000000000000000e+00  -2.1891012465955625e-04 1.0071974001662690e-02 0.0000000000000000e+00  2.7239572337263136e-04 2.4375783867249937e-03 0.0000000000000000e+00  -2.2582875753643657e-04 1.0061430852926209e-02 0.0000000000000000e+00  2.6597078932625239e-04 2.4266553803913783e-03 0.0000000000000000e+00  -1.3815911985171601e-03 6.2552172433689140e-03 0.0000000000000000e+00  2.6602155321528485e-04 2.4266210010311694e-03 0.0000000000000000e+00  -2.2684773246487615e-04 2.4442482020941327e-03 0.0000000000000000e+00  -2.2061183125881748e-04 2.4328118611207910e-03 0.0000000000000000e+00  -2.2056721385158904e-04 2.4328518856137362e-03 0.0000000000000000e+00  6.6944863423985266e-03 6.0481690968083313e-03 0.0000000000000000e+00  4.9817288989726909e-03 6.5289486747093636e-03 0.0000000000000000e+00  6.7334436806254384e-03 6.0385280785441534e-03 0.0000000000000000e+00  -7.3092444076020631e-04 6.1629991945191332e-03 0.0000000000000000e+00  6.7338993686798677e-03 6.0389457624870583e-03 0.0000000000000000e+00  -7.6342554650640423e-04 6.1515775165812640e-03 0.0000000000000000e+00  6.7385503150172487e-03 6.4631578245657679e-03 0.0000000000000000e+00  -7.6381411078354393e-04 6.1520181465132334e-03 0.0000000000000000e+00  6.7381053466128767e-03 6.4635760479670457e-03 0.0000000000000000e+00  -1.5752719899958382e-03 6.2504468538181731e-03 0.0000000000000000e+00  6.7000470715245742e-03 6.4539631904948110e-03 0.0000000000000000e+00  -7.6867811831837860e-04 6.3506373611811528e-03 0.0000000000000000e+00  4.9818032402409798e-03 5.9658658889346948e-03 0.0000000000000000e+00  -7.6837050618936949e-04 6.3509752364856523e-03 0.0000000000000000e+00  -7.4110773361089541e-04 6.3429059366718670e-03 0.0000000000000000e+00  9.7984742646666477e-04 1.0509125980242569e-02 0.0000000000000000e+00  2.4818438371508248e-04 1.1649211394873765e-02 0.0000000000000000e+00  1.0147210955742485e-03 1.0476208766313774e-02 0.0000000000000000e+00  -9.3150853362785788e-04 1.0499879127865737e-02 0.0000000000000000e+00  1.0153098740883092e-03 1.0477069188945325e-02 0.0000000000000000e+00  -9.6802393862914710e-04 1.0468840043652648e-02 0.0000000000000000e+00  2.5937932185303722e-03 1.0505140512939872e-02 0.0000000000000000e+00  -9.6861582395162875e-04 1.0469676460351712e-02 0.0000000000000000e+00  2.5936655455548892e-03 1.0505151252035270e-02 0.0000000000000000e+00  -2.4121091750393146e-03 1.0023723631082544e-02 0.0000000000000000e+00  2.5741965321426172e-03 1.0511507698536746e-02 0.0000000000000000e+00  -2.5496503613487375e-03 1.0497015344186509e-02 0.0000000000000000e+00  1.5366052733303875e-03 1.0279843389541471e-02 0.0000000000000000e+00  -2.5495162465023983e-03 1.0496993318731511e-02 0.0000000000000000e+00  -2.5299939364891353e-03 1.0505341996634474e-02 0.0000000000000000e+00  2.4011575580604308e-04 1.2481117211372387e-02 0.0000000000000000e+00  2.4004533825476595e-04 1.2481157643140003e-02 0.0000000000000000e+00  1.3249471122842672e-04 1.2471953467004852e-02 0.0000000000000000e+00  2.4317827168251184e-04 1.2482507499520868e-02 0.0000000000000000e+00  1.3251807460307701e-04 1.2471958918349749e-02 0.0000000000000000e+00  2.5793734945389027e-03 6.8797866516179902e-03 0.0000000000000000e+00  1.3083840538453042e-04 1.2470988038120733e-02 0.0000000000000000e+00  2.5781912364830732e-03 6.8607745553832585e-03 0.0000000000000000e+00  2.0218408481648831e-04 1.1419040114055295e-02 0.0000000000000000e+00  2.5780838016719416e-03 6.8606212212725419e-03 0.0000000000000000e+00  2.0383331714835897e-03 6.8086099311902510e-03 0.0000000000000000e+00  2.0435901290179526e-03 6.7858903401821075e-03 0.0000000000000000e+00  2.0435697948166603e-03 6.7860680171294005e-03 0.0000000000000000e+00  1.3502030262724156e-03 1.2442404678531131e-02 0.0000000000000000e+00  1.0221626719144577e-03 1.2547670860197785e-02 0.0000000000000000e+00  7.1813338962544511e-04 1.2590380167722355e-02 0.0000000000000000e+00  4.4893362262757411e-04 1.2575468618810594e-02 0.0000000000000000e+00  4.3521942492239390e-05 1.2432173533607009e-02 0.0000000000000000e+00  -8.4116819038774037e-05 1.2328192792400617e-02 0.0000000000000000e+00  -1.6071804497752584e-04 1.2221725643571921e-02 0.0000000000000000e+00  -1.8983679055719770e-04 1.2125082174401537e-02 0.0000000000000000e+00  -3.0695289839032254e-05 3.0065202591138416e-05 0.0000000000000000e+00  -3.5065605384670891e-05 4.7930227031800766e-05 0.0000000000000000e+00  -3.9177778104982073e-05 7.6267837411546620e-05 0.0000000000000000e+00  -4.4301255641666061e-05 1.1552601598201239e-04 0.0000000000000000e+00  -4.2871659776768081e-05 1.7112374829602922e-04 0.0000000000000000e+00  -2.9024463406470605e-05 2.4309149479374151e-04 0.0000000000000000e+00  6.4479071662884452e-05 4.1379621943240591e-04 0.0000000000000000e+00  1.4865549803408013e-04 4.6761976012378066e-04 0.0000000000000000e+00  -1.2629635786344201e-03 4.0001164125801863e-05 0.0000000000000000e+00  -9.0125375688348663e-04 -6.6533413173748343e-05 0.0000000000000000e+00  -5.7256447443975432e-04 -9.4790644089301810e-05 0.0000000000000000e+00  -2.8949829098075236e-04 -5.8338148807355357e-05 0.0000000000000000e+00  -6.3013107092689278e-05 2.3250678527002952e-05 0.0000000000000000e+00  1.0140339680158727e-04 1.3377936849956148e-04 0.0000000000000000e+00  2.0266160159737912e-04 2.5301689171763816e-04 0.0000000000000000e+00  2.4271315377509368e-04 3.6367909635682849e-04 0.0000000000000000e+00  -2.1493253180536274e-03 5.1340703597935937e-04 0.0000000000000000e+00  -2.7109771803363000e-03 7.2115241322267545e-04 0.0000000000000000e+00  -3.8375221063769284e-03 7.8484410932589397e-04 0.0000000000000000e+00  -4.3451516874389159e-03 5.8941908859036810e-04 0.0000000000000000e+00  -4.7926152192321386e-03 2.5814405311787520e-04 0.0000000000000000e+00  -5.1493325695399069e-03 -1.8137568285045414e-04 0.0000000000000000e+00  -5.3882007255147630e-03 -6.9702442630834873e-04 0.0000000000000000e+00  -5.4916296920692513e-03 -1.2557939727954662e-03 0.0000000000000000e+00  -7.6893621178767257e-03 -1.8226024686420657e-03 0.0000000000000000e+00  -7.1301399116655353e-03 -1.8225893446851158e-03 0.0000000000000000e+00  -6.5709297765771781e-03 -1.8225474548805511e-03 0.0000000000000000e+00  -6.0117005801166258e-03 -1.8225470501146196e-03 0.0000000000000000e+00  -7.6493390832396450e-03 5.7939104616066975e-04 0.0000000000000000e+00  -7.9112366110256419e-03 1.4605673652239693e-04 0.0000000000000000e+00  -8.1057091181535330e-03 -3.2144104608764125e-04 0.0000000000000000e+00  -8.2283287871803782e-03 -8.1277017790949680e-04 0.0000000000000000e+00  -8.2763033132949148e-03 -1.3169185459729520e-03 0.0000000000000000e+00  -6.9289329959598984e-03 1.4786392187042525e-03 0.0000000000000000e+00  -6.7052959103861103e-03 2.0307858537664284e-03 0.0000000000000000e+00  -6.6278768007931900e-03 2.6374011031424075e-03 0.0000000000000000e+00  -6.6992914382851291e-03 3.2669429386889153e-03 0.0000000000000000e+00  -6.8909987021423839e-03 3.8965980801122439e-03 0.0000000000000000e+00  -7.1808420015539338e-03 4.4870483397849593e-03 0.0000000000000000e+00  -7.4545304225794402e-03 5.0180878319143682e-03 0.0000000000000000e+00  -7.4397226034042530e-03 5.6094016298863063e-03 0.0000000000000000e+00  -7.4944031888274981e-03 6.8796634244642878e-03 0.0000000000000000e+00  -7.4114187125546415e-03 7.4834420094834729e-03 0.0000000000000000e+00  -7.1940699848628865e-03 8.0059390198666588e-03 0.0000000000000000e+00  -6.9064727629358355e-03 8.5982601813726408e-03 0.0000000000000000e+00  -6.7148628763206569e-03 9.2280701362096006e-03 0.0000000000000000e+00  -6.6432001950122487e-03 9.8597995757864539e-03 0.0000000000000000e+00  -6.7204261784395442e-03 1.0466837456570148e-02 0.0000000000000000e+00  -6.9448072785102876e-03 1.1019943897218143e-02 0.0000000000000000e+00  -8.2939281846232168e-03 1.3819856067361278e-02 0.0000000000000000e+00  -8.2458782549854632e-03 1.3314938626582054e-02 0.0000000000000000e+00  -8.1230710254990325e-03 1.2822863080549337e-02 0.0000000000000000e+00  -7.9283080657990140e-03 1.2354642769648021e-02 0.0000000000000000e+00  -7.6659965461611055e-03 1.1920657687208562e-02 0.0000000000000000e+00  -6.0258594382065593e-03 1.4326244148760084e-02 0.0000000000000000e+00  -6.5859379119830638e-03 1.4326266312956627e-02 0.0000000000000000e+00  -7.1460115462466068e-03 1.4326306850592194e-02 0.0000000000000000e+00  -7.7060914407153279e-03 1.4326313521931856e-02 0.0000000000000000e+00  -5.5050282268941713e-03 1.3758631031947202e-02 0.0000000000000000e+00  -5.4013025150332367e-03 1.3199078523162770e-02 0.0000000000000000e+00  -5.1623071798446857e-03 1.2682301175819966e-02 0.0000000000000000e+00  -4.8048760058866614e-03 1.2242564571768382e-02 0.0000000000000000e+00  -4.3568733508140478e-03 1.1910887301557194e-02 0.0000000000000000e+00  -3.8478650798358773e-03 1.1714724526547805e-02 0.0000000000000000e+00  -2.7195809337929532e-03 1.1780138793939025e-02 0.0000000000000000e+00  -2.1569326754669934e-03 1.1988341302144930e-02 0.0000000000000000e+00  2.3192284519509343e-04 1.2136677597677106e-02 0.0000000000000000e+00  1.9195346177471964e-04 1.2246399363707869e-02 0.0000000000000000e+00  9.1821169288176888e-05 1.2365128770390379e-02 0.0000000000000000e+00  -7.0416563341711548e-05 1.2474279481967923e-02 0.0000000000000000e+00  -2.9630694980770881e-04 1.2557906824758457e-02 0.0000000000000000e+00  -5.7625790201311323e-04 1.2592463221362806e-02 0.0000000000000000e+00  -9.0580213624947192e-04 1.2566958092208739e-02 0.0000000000000000e+00  -1.2664357344865308e-03 1.2461835749136367e-02 0.0000000000000000e+00  1.3917077277866984e-04 1.2033814143235767e-02 0.0000000000000000e+00  5.4816507060430012e-05 1.2085382821781693e-02 0.0000000000000000e+00  -3.7434035312046392e-05 1.2258201258011693e-02 0.0000000000000000e+00  -5.0513929869606318e-05 1.2329434418370257e-02 0.0000000000000000e+00  -5.2220483382730420e-05 1.2382597935859932e-02 0.0000000000000000e+00  -4.9358877713396359e-05 1.2424586901214566e-02 0.0000000000000000e+00  -4.2801560233915607e-05 1.2451459622283939e-02 0.0000000000000000e+00  -3.9853757505706978e-05 1.2469652368217241e-02 0.0000000000000000e+00  -3.2754823019432172e-06 1.2494224071642317e-02 0.0000000000000000e+00  -4.3180739634806716e-06 1.2489076398969606e-02 0.0000000000000000e+00  -6.4939860580423983e-06 1.2484985447068345e-02 0.0000000000000000e+00  -1.0289906173841406e-05 1.2482402798439063e-02 0.0000000000000000e+00  -1.6900470199063662e-05 1.2481861834731964e-02 0.0000000000000000e+00  -2.7254936280975558e-05 1.2482627750664031e-02 0.0000000000000000e+00  5.0707059939717693e-05 1.2500000000000001e-02 0.0000000000000000e+00  5.3781886050315738e-05 1.25000000