<?xml version="1.0"?>
<VTKFile type="UnstructuredGrid"  version="0.1"  >
<UnstructuredGrid>
<Piece  NumberOfPoints="4855" NumberOfCells="8780">
<Points>
<DataArray  type="Float64"  NumberOfComponents="3"  format="ascii">0.9483880164242298 0.6836931311526558 0  0.9494264999197789 0.6847056440044139 0  0.9494005292759887 0.6847228078606633 0  0.9735520289385229 0.7444444444444445 0  0.9494005292759886 0.8041660810282256 0  0.94942649991978 0.8041832448844759 0  0.9483880175070514 0.8051957566534116 0  3.131175874138137e-16 0.09811450876034808 0  0.06838800723463068 0.1543033514199101 0  0.05161198249294494 0.1948042433465922 0  0.0505735000802211 0.1958167551155251 0  0.05059947072401128 0.1958339189717744 0  0.0505994707240113 0.3152771921393367 0  0.05057350008021998 0.315294355995587 0  0.05161198357913653 0.3163068688507105 0  0.06838800723463068 0.356807759691201 0  3.252606517456513e-16 0.4129966023507631 0  -1.795438797635995e-16 0.4839416311832997 0  0.07083274769489223 0.4605116403870998 0  0.07084991155114129 0.4605376110308903 0  0.07186242331670639 0.4594991286215342 0  0.1696402113702762 0.5 0  0.07186242332008326 0.5405008713818427 0  0.0708499115511413 0.5394623889691096 0  0.07083274769489219 0.5394883596129002 0  -1.925543058334256e-16 0.5160583688167003 0  1.484923295436147e-15 0.5870033976492365 0  0.06838800723463068 0.643192240308799 0  0.05161198249294541 0.6836931322354806 0  0.05057350008022109 0.6847056440044139 0  0.0505994707240113 0.6847228078606633 0  0.0505994707240113 0.8041660810282256 0  0.05057350008021999 0.804183244884476 0  0.05161198249294764 0.8051957566534106 0  0.06838800723463068 0.84569664858009 0  1.485790657174135e-15 0.9018854912396524 0  0 1 0  1 1 0  0.9999999999999987 0.9018854912396523 0  1.000000000000001 0.5870033976492375 0  1 0.5160583688167003 0  0.9291672523051078 0.5394883596129003 0  0.9291500884488585 0.5394623889691117 0  0.9281375755937461 0.5405008724680134 0  0.9281375755937372 0.4594991275319777 0  0.9291500884488586 0.4605376110308884 0  0.9291672523051077 0.4605116403870997 0  1 0.4839416311832997 0  0.9999999999999987 0.4129966023507635 0  0.948388017507054 0.31630686776452 0  0.94942649991978 0.3152943559955871 0  0.9494005292759886 0.3152771921393367 0  0.9735520289385229 0.2555555555555555 0  0.9494005292759888 0.1958339189717744 0  0.9494264999197789 0.1958167551155251 0  0.9483880164208631 0.1948042422604003 0  1.000000000000001 0.09811450876034861 0  1 0 0  0 0 0  0.1958339189717744 0.2950439151684559 0  0.1958167551155252 0.2950179445246672 0  0.3152771921393367 0.2950439151684557 0  0.1948042433481841 0.2960564269357975 0  0.3152943559955858 0.2950179445246651 0  0.1948042422604031 0.2150546830875326 0  0.3163068677645244 0.2960564269373949 0  0.1958167551155251 0.2160931665864439 0  0.4140846558147206 0.2555555555555555 0  0.1958339189717744 0.2160671959426553 0  0.3163068688489276 0.215054683089313 0  0.3152771921393367 0.2160671959426553 0  0.3152943559955858 0.2160931665864459 0  0.5405008724680257 0.3163068688507107 0  0.5572768961235196 0.356807759691201 0  0.5394623889691089 0.3152943559955871 0  0.459499128618165 0.3163068677645201 0  0.5394883596129003 0.3152771921393367 0  0.4605376110308911 0.3152943559955871 0  0.5394883596129001 0.1958339189717744 0  0.4605116403870998 0.3152771921393367 0  0.53946238896911 0.1958167551155251 0  0.4846631400496339 0.2555555555555555 0  0.5405008724680251 0.1948042422604009 0  0.4605116403870998 0.1958339189717744 0  0.5572768961235196 0.1543033514199101 0  0.46053761103089 0.1958167551155251 0  0.4594991286269881 0.1948042433554141 0  0.6847228078606633 0.2950439151684559 0  0.684705644004414 0.2950179445246672 0  0.8041660810282256 0.2950439151684557 0  0.683693131164073 0.2960564280087975 0  0.8041832448844747 0.2950179445246651 0  0.6836931322354718 0.2150546841737125 0  0.8051957566534156 0.2960564269373971 0  0.6847056440044141 0.2160931665864439 0  0.9029735447036096 0.2555555555555555 0  0.6847228078606632 0.2160671959426553 0  0.8051957577274008 0.2150546830997286 0  0.8041660810282256 0.2160671959426553 0  0.8041832448844747 0.2160931665864459 0  0.2960564280235811 0.560751313295155 0  0.3128324516790751 0.6012522041356455 0  0.2950179445246645 0.5597388004400315 0  0.2150546830875235 0.5607513132951615 0  0.2950439151684557 0.5597216365837812 0  0.2160931665864466 0.5597388004400314 0  0.2950439151684558 0.4402783634162188 0  0.2160671959426553 0.5597216365837812 0  0.2950179445246656 0.4402611995599696 0  0.2402186956051895 0.5 0  0.29605642693739 0.439248687791036 0  0.2160671959426553 0.4402783634162189 0  0.3128324516790751 0.3987477958643545 0  0.2160931665864455 0.4402611995599696 0  0.2150546830875296 0.4392486867048446 0  0.1958339189717743 0.7839328040573448 0  0.1958167551155252 0.7839068334135562 0  0.3152771921393367 0.7839328040573447 0  0.1948042422604028 0.7849453169124678 0  0.3152943559955858 0.783906833413554 0  0.1948042433465913 0.7039435730626098 0  0.3163068677645284 0.7849453158262878 0  0.1958167551155251 0.7049820554753328 0  0.4140846558147206 0.7444444444444445 0  0.1958339189717744 0.7049560848315441 0  0.3163068688486237 0.7039435719785058 0  0.3152771921393367 0.7049560848315441 0  0.3152943559955858 0.7049820554753349 0  0.4402783634162188 0.5394883596129003 0  0.4402611995599696 0.5394623889691117 0  0.5597216365837812 0.5394883596129002 0  0.4392486867048468 0.5405008724680237 0  0.5597388004400302 0.5394623889691096 0  0.4392486877998708 0.4594991286270004 0  0.5607513122089726 0.540500871381843 0  0.4402611995599696 0.4605376110308884 0  0.6585291002591651 0.5 0  0.4402783634162188 0.4605116403870998 0  0.5607513121946796 0.45949912863245 0  0.5597216365837812 0.4605116403870998 0  0.5597388004400302 0.4605376110308904 0  0.78494531690701 0.5607513132896949 0  0.8017213405679641 0.6012522041356455 0  0.7839068334135535 0.5597388004400315 0  0.7039435730626069 0.5607513122089671 0  0.7839328040573448 0.5597216365837812 0  0.7049820554753355 0.5597388004400314 0  0.7839328040573448 0.4402783634162188 0  0.7049560848315441 0.5597216365837812 0  0.7839068334135545 0.4402611995599696 0  0.7291075844940784 0.5 0  0.784945315826279 0.4392486877910359 0  0.7049560848315444 0.4402783634162188 0  0.8017213405679641 0.3987477958643545 0  0.7049820554753344 0.4402611995599696 0  0.7039435719764182 0.4392486867048443 0  0.5405008724625655 0.8051957577341393 0  0.5572768961235196 0.84569664858009 0  0.539462388969109 0.804183244884476 0  0.4594991286181648 0.8051957566534091 0  0.5394883596129003 0.8041660810282256 0  0.4605376110308911 0.804183244884476 0  0.5394883596129003 0.6847228078606633 0  0.4605116403870998 0.8041660810282256 0  0.53946238896911 0.6847056440044139 0  0.4846631400496339 0.7444444444444445 0  0.5405008713818347 0.6836931322354802 0  0.4605116403870998 0.6847228078606633 0  0.5572768961235196 0.643192240308799 0  0.46053761103089 0.6847056440044139 0  0.4594991275353449 0.6836931311526599 0  0.6847228078606633 0.7839328040573448 0  0.684705644004414 0.7839068334135562 0  0.8041660810282256 0.7839328040573447 0  0.6836931311493016 0.7849453169124578 0  0.8041832448844747 0.783906833413554 0  0.68369313223548 0.7039435730626096 0  0.805195756653417 0.7849453158262875 0  0.6847056440044141 0.7049820554753328 0  0.9029735447036096 0.7444444444444445 0  0.6847228078606633 0.7049560848315441 0  0.805195757738809 0.7039435719772094 0  0.8041660810282256 0.7049560848315441 0  0.8041832448844747 0.7049820554753349 0  0.9578164230213342 0.6948838683471341 0  0.9645772892192558 0.7062137009141434 0  0.9695236884064815 0.7184451175460498 0  0.972538971146615 0.7312896684428197 0  0.9725389711466151 0.7575992204460691 0  0.9695236884064815 0.7704437713428391 0  0.9645772892192558 0.7826751879747456 0  0.9578164230213342 0.7940050205417549 0  0.01437766570919127 0.09711967848259151 0  0.02854851642641832 0.09974531144948819 0  0.04161535472570586 0.1058251712658871 0  0.05275088139110013 0.1149743244732108 0  0.06125007411586489 0.1266135117968212 0  0.06657482449792251 0.1400058227212122 0  0.06643634307317195 0.1691277076584997 0  0.06071435336153361 0.1829418078690686 0  0.04134737123322858 0.3039103077764334 0  0.03416190609801732 0.2911362521989113 0  0.02925217947541549 0.2773267630846004 0  0.02676106927623143 0.2628837102534819 0  0.02676106927623143 0.2482274008576293 0  0.02925217947541547 0.2337843480265108 0  0.03416190609801727 0.2199748589121999 0  0.04134737123322851 0.2072008033346779 0  0.06071435387356935 0.328169304128914 0  0.06643634320569657 0.3419834039471998 0  0.06657482449792249 0.371105288389899 0  0.06125007411586481 0.3844975993142901 0  0.05275088139109994 0.3961367866379005 0  0.04161535472570563 0.4052859398452242 0  0.02854851642641818 0.411365799661623 0  0.01437766570919127 0.4139914326285196 0  0 0.4697526254167924 0  0 0.455563619650285 0  0 0.4413746138837777 0  0 0.4271856081172704 0  0.06095233986089402 0.4687284952262988 0  0.04995687430503332 0.4753797281664747 0  0.03809234373417287 0.4803165365228644 0  0.02562418374773841 0.4834284730529493 0  0.01283133446055119 0.4846459169037758 0  0.08372485599813187 0.4503967593658507 0  0.09753895276796982 0.4446747697099958 0  0.1123633055586467 0.4427231038764812 0  0.1271876590095525 0.4446747646950606 0  0.1410017577150834 0.45039674967774 0  0.1528641934757506 0.4594991149204779 0  0.161966560724962 0.471361549141524 0  0.1676885480442292 0.4851756468792086 0  0.1676885480443665 0.514824353120279 0  0.1619665607254926 0.528638450857557 0  0.1528641934768762 0.5405008850783964 0  0.1410017577169217 0.5496032503211987 0  0.1271876590121153 0.5553252353042526 0  0.1123633055618306 0.5572768961235188 0  0.09753895277155772 0.5553252302909656 0  0.08372485600180817 0.5496032406362719 0  0.0128313344605512 0.5153540830962242 0  0.0256241837477384 0.5165715269470507 0  0.03809234373417282 0.5196834634771356 0  0.04995687430503334 0.5246202718335253 0  0.06095233986089401
[...]
<PointData  Vectors="$u$"> 
<DataArray  type="Float64"  Name="$u$"  NumberOfComponents="3" format="ascii">4.8320596626641307e-03 3.6243517135485792e-02 0.0000000000000000e+00  4.7174794559400541e-03 3.6284892634909256e-02 0.0000000000000000e+00  4.7157570301567227e-03 3.6283721459437292e-02 0.0000000000000000e+00  3.8019868840559164e-04 3.6875661773317102e-02 0.0000000000000000e+00  -6.7823747339618233e-04 3.5714441438731676e-02 0.0000000000000000e+00  -6.7827247122864373e-04 3.5715072442478568e-02 0.0000000000000000e+00  -6.6780116424647979e-04 3.5683398778753907e-02 0.0000000000000000e+00  -4.2304435195739865e-05 2.7313532715257656e-05 0.0000000000000000e+00  1.9127842030617342e-05 4.6399499660190253e-04 0.0000000000000000e+00  3.6731367249879935e-04 5.7346824724357006e-04 0.0000000000000000e+00  3.7925144213871214e-04 5.4512579848397266e-04 0.0000000000000000e+00  3.7923864895575725e-04 5.4569234688251302e-04 0.0000000000000000e+00  -5.0401064064128755e-03 -4.2287515735200690e-05 0.0000000000000000e+00  -5.0418691117008248e-03 -4.3582334321235704e-05 0.0000000000000000e+00  -5.1601263257717474e-03 3.2153424633149835e-06 0.0000000000000000e+00  -9.9810150374063118e-03 1.5995302311580292e-03 0.0000000000000000e+00  -1.6598477592373057e-02 -6.4853185453033861e-03 0.0000000000000000e+00  -2.5027468615286104e-02 -6.4853533525075250e-03 0.0000000000000000e+00  -2.2244628281332654e-02 1.9300323696385252e-03 0.0000000000000000e+00  -2.2247707721660299e-02 1.9320691410561249e-03 0.0000000000000000e+00  -2.2124729275572925e-02 2.0523905239468619e-03 0.0000000000000000e+00  -2.1660091097966364e-02 1.8051511001267485e-02 0.0000000000000000e+00  -2.2238470360183442e-02 3.4201404725444522e-02 0.0000000000000000e+00  -2.2361563944613329e-02 3.4321141385789601e-02 0.0000000000000000e+00  -2.2358487156630261e-02 3.4323172971905833e-02 0.0000000000000000e+00  -2.5138026024375801e-02 4.2728008598527559e-02 0.0000000000000000e+00  -1.6719441186774223e-02 4.2727926288191422e-02 0.0000000000000000e+00  -1.0111534358034708e-02 3.4648864926996051e-02 0.0000000000000000e+00  -5.2919850162486716e-03 3.6227503998771712e-02 0.0000000000000000e+00  -5.1777050448749522e-03 3.6276506624210815e-02 0.0000000000000000e+00  -5.1760033026477525e-03 3.6275170218885655e-02 0.0000000000000000e+00  1.5627343955703792e-04 3.5696701751762934e-02 0.0000000000000000e+00  1.5626983207009620e-04 3.5697199801305278e-02 0.0000000000000000e+00  1.4431134669795742e-04 3.5670643938204162e-02 0.0000000000000000e+00  -2.0244812541708187e-04 3.5788614491576339e-02 0.0000000000000000e+00  -2.6642078317683801e-04 3.6222453556207623e-02 0.0000000000000000e+00  -2.1594253778574763e-04 3.6249999999999998e-02 0.0000000000000000e+00  -3.1131473005663064e-04 3.6249999999999998e-02 0.0000000000000000e+00  -2.6101463820148776e-04 3.6222348753355303e-02 0.0000000000000000e+00  1.6305398495836079e-02 4.2767246458442806e-02 0.0000000000000000e+00  2.4756727795690235e-02 4.2767306364371281e-02 0.0000000000000000e+00  2.1966749737731644e-02 3.4329398019340075e-02 0.0000000000000000e+00  2.1969845873839045e-02 3.4327352416408788e-02 0.0000000000000000e+00  2.1846066031568512e-02 3.4206697483564218e-02 0.0000000000000000e+00  2.1862987922299636e-02 2.0345885492973879e-03 0.0000000000000000e+00  2.1985319679868182e-02 1.9149035784288039e-03 0.0000000000000000e+00  2.1982256990896131e-02 1.9128777685450812e-03 0.0000000000000000e+00  2.4752208694728051e-02 -6.4631726023984303e-03 0.0000000000000000e+00  1.6362510060026716e-02 -6.4631241138134272e-03 0.0000000000000000e+00  4.9724041661535438e-03 2.7099933031556803e-05 0.0000000000000000e+00  4.8584548001846146e-03 -1.9541756668475217e-05 0.0000000000000000e+00  4.8567445886777598e-03 -1.8250273335732998e-05 0.0000000000000000e+00  5.7538128773211529e-04 -6.0191680904379656e-04 0.0000000000000000e+00  -4.6864532669890963e-04 5.4665032463381764e-04 0.0000000000000000e+00  -4.6863071693022866e-04 5.4595688012782034e-04 0.0000000000000000e+00  -4.5443155319322131e-04 5.7927633905686656e-04 0.0000000000000000e+00  -4.4647463119947652e-05 2.7733775276742134e-05 0.0000000000000000e+00  -9.5843643679199633e-05 0.0000000000000000e+00 0.0000000000000000e+00  0.0000000000000000e+00 0.0000000000000000e+00 0.0000000000000000e+00  -6.0758724769711158e-03 1.6357296157012490e-02 0.0000000000000000e+00  -6.0763681826359337e-03 1.6355300597463807e-02 0.0000000000000000e+00  -7.0599565392682039e-03 1.6519830101506851e-02 0.0000000000000000e+00  -6.0516756374243263e-03 1.6222554727416200e-02 0.0000000000000000e+00  -7.0602438639852686e-03 1.6518762264055790e-02 0.0000000000000000e+00  -9.8067912814568122e-05 5.9012897239997011e-05 0.0000000000000000e+00  -7.0566809799878054e-03 1.6444296496648057e-02 0.0000000000000000e+00  -1.0125775837036822e-04 5.9156991662463558e-05 0.0000000000000000e+00  -6.7631397738204856e-03 6.2368928717310580e-03 0.0000000000000000e+00  -1.0119753170122721e-04 5.9186151660614282e-05 0.0000000000000000e+00  -2.4458884450795186e-04 5.0373615162995847e-05 0.0000000000000000e+00  -2.4183550307047002e-04 5.1197618677492820e-05 0.0000000000000000e+00  -2.4177567870071415e-04 5.1164790342310708e-05 0.0000000000000000e+00  6.9939797827424984e-03 7.0238904638147944e-03 0.0000000000000000e+00  4.1368013420241493e-03 7.9926454367880723e-03 0.0000000000000000e+00  7.0527886938755516e-03 7.0487117190038669e-03 0.0000000000000000e+00  -7.2232355381772698e-03 7.0244600530693195e-03 0.0000000000000000e+00  7.0535707930079617e-03 7.0482340457488886e-03 0.0000000000000000e+00  -7.2802471610742287e-03 7.0562053394847514e-03 0.0000000000000000e+00  3.9633981463471071e-03 7.0769832688684069e-03 0.0000000000000000e+00  -7.2809835608300079e-03 7.0555225625516648e-03 0.0000000000000000e+00  3.9596441284516426e-03 7.0796526832548464e-03 0.0000000000000000e+00  -7.8327648781395427e-03 7.9418537970593513e-03 0.0000000000000000e+00  3.7440411308932850e-03 6.9977039633541058e-03 0.0000000000000000e+00  -4.0847723030983159e-03 7.0625828642502074e-03 0.0000000000000000e+00  4.9367886025082066e-04 1.2553579633974652e-03 0.0000000000000000e+00  -4.0809862369035558e-03 7.0660520509555520e-03 0.0000000000000000e+00  -3.8634850348310788e-03 6.9499470132174772e-03 0.0000000000000000e+00  6.8485107363206463e-03 1.6534320101955657e-02 0.0000000000000000e+00  6.8486077390731287e-03 1.6533203010356937e-02 0.0000000000000000e+00  5.8553636103198456e-03 1.6243050255485426e-02 0.0000000000000000e+00  6.8527485152252710e-03 1.6454178273496978e-02 0.0000000000000000e+00  5.8556739661698226e-03 1.6241116395063444e-02 0.0000000000000000e+00  1.5779173969849018e-04 4.8312830872107296e-05 0.0000000000000000e+00  5.8369573657031616e-03 1.6113929507173330e-02 0.0000000000000000e+00  1.5569959160361546e-04 5.0139782383627993e-05 0.0000000000000000e+00  1.2125902217429750e-03 2.3211471790669713e-03 0.0000000000000000e+00  1.5575490877265042e-04 5.0177363256931809e-05 0.0000000000000000e+00  1.1216027265291256e-05 5.6609434630262844e-05 0.0000000000000000e+00  1.3763153214498778e-05 5.8458517552986499e-05 0.0000000000000000e+00  1.3824772481471464e-05 5.8419131582547203e-05 0.0000000000000000e+00  1.3520817799851021e-03 1.8035418424054893e-02 0.0000000000000000e+00  -1.7723752808035420e-03 1.9518637490918672e-02 0.0000000000000000e+00  1.4418489217014226e-03 1.8010215648477660e-02 0.0000000000000000e+00  -2.0088586669437542e-02 1.7405169185383013e-02 0.0000000000000000e+00  1.4431345582630835e-03 1.8010993246910422e-02 0.0000000000000000e+00  -2.0207545094319841e-02 1.7361036421647019e-02 0.0000000000000000e+00  1.4749714281014638e-03 1.8360809396549171e-02 0.0000000000000000e+00  -2.0209318525052328e-02 1.7362248252580991e-02 0.0000000000000000e+00  1.4737449318365831e-03 1.8361766720121447e-02 0.0000000000000000e+00  -2.3700295872952012e-02 1.8209141542954718e-02 0.0000000000000000e+00  1.3890303893047220e-03 1.8328538766463308e-02 0.0000000000000000e+00  -2.0073798436026441e-02 1.8864821914982184e-02 0.0000000000000000e+00  -1.7268317922851653e-03 1.6843595725023572e-02 0.0000000000000000e+00  -2.0072283193605794e-02 1.8865343042851816e-02 0.0000000000000000e+00  -1.9968877909476844e-02 1.8849828893172361e-02 0.0000000000000000e+00  -3.2597819299526635e-04 3.6192712439295983e-02 0.0000000000000000e+00  -3.2605991998078905e-04 3.6192755787177441e-02 0.0000000000000000e+00  -4.6886725882203578e-04 3.6201678748217010e-02 0.0000000000000000e+00  -3.2205955589781088e-04 3.6193920224640935e-02 0.0000000000000000e+00  -4.6880776815120759e-04 3.6201719711668467e-02 0.0000000000000000e+00  -6.1742174670121009e-03 2.0047144000329507e-02 0.0000000000000000e+00  -4.7106433502037433e-04 3.6203649754300314e-02 0.0000000000000000e+00  -6.1860181320964273e-03 1.9903125946719585e-02 0.0000000000000000e+00  -6.6418773356493235e-03 3.0261831695070591e-02 0.0000000000000000e+00  -6.1858480620381514e-03 1.9900935677428785e-02 0.0000000000000000e+00  -7.1753508301894038e-03 1.9918298991290259e-02 0.0000000000000000e+00  -7.1800260026647737e-03 1.9838445452641885e-02 0.0000000000000000e+00  -7.1803565411266545e-03 1.9839560276865304e-02 0.0000000000000000e+00  2.3291990000471618e-04 2.8041996139654808e-02 0.0000000000000000e+00  2.3321198014976559e-04 2.8040823017036001e-02 0.0000000000000000e+00  -5.8854837165897285e-04 2.7968565570387557e-02 0.0000000000000000e+00  2.2862457693841672e-04 2.7959315009009843e-02 0.0000000000000000e+00  -5.8890830616009561e-04 2.7967372611009279e-02 0.0000000000000000e+00  3.0235332154588768e-04 8.4547056958223094e-03 0.0000000000000000e+00  -5.8118311440974858e-04 2.7885903443137287e-02 0.0000000000000000e+00  3.0289015053340258e-04 8.3863069350662289e-03 0.0000000000000000e+00  -2.4216505398499811e-03 1.8131819970345239e-02 0.0000000000000000e+00  3.0271068117348408e-04 8.3853595166253642e-03 0.0000000000000000e+00  -5.0195314407073198e-04 8.4310612570915114e-03 0.0000000000000000e+00  -5.0787795671431812e-04 8.3557228930992052e-03 0.0000000000000000e+00  -5.0820146538576162e-04 8.3567697197496470e-03 0.0000000000000000e+00  1.9693500734436546e-02 1.7337292733043026e-02 0.0000000000000000e+00  1.4661865116537378e-02 1.9159816486486635e-02 0.0000000000000000e+00  1.9824134443391869e-02 1.7292522735513374e-02 0.0000000000000000e+00  -1.6710416979931822e-03 1.8056731502905564e-02 0.0000000000000000e+00  1.9826105123181347e-02 1.7293790783678951e-02 0.0000000000000000e+00  -1.7583362716295425e-03 1.8029140590429198e-02 0.0000000000000000e+00  1.9843656720306944e-02 1.8813064332292528e-02 0.0000000000000000e+00  -1.7595737232591882e-03 1.8029909867894191e-02 0.0000000000000000e+00  1.9841971110668388e-02 1.8814358829813752e-02 0.0000000000000000e+00  -3.9692281369137052e-03 1.8208080433329252e-02 0.0000000000000000e+00  1.9729285426045219e-02 1.8767170307021443e-02 0.0000000000000000e+00  -1.6748468277147494e-03 1.8344344553252699e-02 0.0000000000000000e+00  1.4735821975439534e-02 1.6959884422457678e-02 0.0000000000000000e+00  -1.6738864244471346e-03 1.8344978613875542e-02 0.0000000000000000e+00  -1.6046195842467487e-03 1.8324896608509944e-02 0.0000000000000000e+00  3.4150136548266987e-03 2.9465521352226895e-02 0.0000000000000000e+00  2.2332892228199981e-04 3.5022270608253851e-02 0.0000000000000000e+00  3.6229906073080523e-03 2.9335309985109182e-02 0.0000000000000000e+00  -3.8001799112648577e-03 2.9497752926523072e-02 0.0000000000000000e+00  3.6265981120736273e-03 2.9339099606130358e-02 0.0000000000000000e+00  -3.9985912652957751e-03 2.9402080598895399e-02 0.0000000000000000e+00  6.9626127118220778e-03 2.9298573738094004e-02 0.0000000000000000e+00  -4.0019846715389495e-03 2.9404944904263437e-02 0.0000000000000000e+00  6.9618137346935949e-03 2.9298123744962282e-02 0.0000000000000000e+00  -7.9170790588735298e-03 2.8460192107089988e-02 0.0000000000000000e+00  6.9000632036211040e-03 2.9319913931352980e-02 0.0000000000000000e+00  -7.3610806955067944e-03 2.9372176262145198e-02 0.0000000000000000e+00  4.0375083935193868e-03 2.8343109454417280e-02 0.0000000000000000e+00  -7.3601045186313819e-03 2.9371732835380884e-02 0.0000000000000000e+00  -7.2905079649491084e-03 2.9393930510173052e-02 0.0000000000000000e+00  -5.8057526309327144e-05 3.6200194352489980e-02 0.0000000000000000e+00  -5.8108575268572748e-05 3.6200229632119663e-02 0.0000000000000000e+00  -2.0182660547114471e-04 3.6192572351884313e-02 0.0000000000000000e+00  -5.6227256568493795e-05 3.6202101318551595e-02 0.0000000000000000e+00  -2.0178885648602032e-04 3.6192581630648597e-02 0.0000000000000000e+00  6.7922196156566094e-03 1.9917352765575116e-02 0.0000000000000000e+00  -2.0444249323713589e-04 3.6191279840774200e-02 0.0000000000000000e+00  6.7968663050078267e-03 1.9840013701506242e-02 0.0000000000000000e+00  1.0528473172973498e-03 3.3864382885614476e-02 0.0000000000000000e+00  6.7965405994751624e-03 1.9838916928900587e-02 0.0000000000000000e+00  5.8017629040932970e-03 2.0014918186005485e-02 0.0000000000000000e+00  5.8184656901636945e-03 1.9880852218214885e-02 0.0000000000000000e+00  5.8188012335989268e-03 1.9882829976812282e-02 0.0000000000000000e+00  3.6606303576561085e-03 3.6793898801793103e-02 0.0000000000000000e+00  2.6718137557527762e-03 3.7064449482291234e-02 0.0000000000000000e+00  1.7657814850713226e-03 3.7150521897662894e-02 0.0000000000000000e+00  9.9455269537244225e-04 3.7057269860242076e-02 0.0000000000000000e+00  -8.9036234338584012e-05 3.6633117768940245e-02 0.0000000000000000e+00  -4.1125859282872487e-04 3.6368109436072958e-02 0.0000000000000000e+00  -6.0703576641683811e-04 3.6114560551049210e-02 0.0000000000000000e+00  -6.8893786561963352e-04 3.5881115111053595e-02 0.0000000000000000e+00  -4.0856793117565055e-05 4.5879524304777449e-05 0.0000000000000000e+00  -4.8412765999788552e-05 7.1042094090993476e-05 0.0000000000000000e+00  -5.2421040565406399e-05 1.1324148762583830e-04 0.0000000000000000e+00  -5.8537734481017143e-05 1.6824883035689421e-04 0.0000000000000000e+00  -5.5543195513078776e-05 2.4863832225696029e-04 0.0000000000000000e+00  -2.8784096131296006e-05 3.5068274029051314e-04 0.0000000000000000e+00  1.1575984307542436e-04 5.9046266076966255e-04 0.0000000000000000e+00  2.5030212424346409e-04 6.4025460647758878e-04 0.0000000000000000e+00  -3.8730652831134448e-03 -5.7233069397789080e-04 0.0000000000000000e+00  -2.7831301085035690e-03 -8.6202487732027705e-04 0.0000000000000000e+00  -1.8096979681825375e-03 -8.9243150438440052e-04 0.0000000000000000e+00  -1.0197531057614547e-03 -7.4874942859930519e-04 0.0000000000000000e+00  -4.0638512072819675e-04 -5.0028088996529859e-04 0.0000000000000000e+00  2.1225296182005504e-05 -2.1185116573155377e-04 0.0000000000000000e+00  2.7465101018680420e-04 8.6070744931950117e-05 0.0000000000000000e+00  3.8729612027216714e-04 3.4938771991947776e-04 0.0000000000000000e+00  -6.5377532676900978e-03 7.7475101295113827e-04 0.0000000000000000e+00  -8.2157361709053814e-03 1.3552453553227219e-03 0.0000000000000000e+00  -1.1662394049290392e-02 1.4138593596287980e-03 0.0000000000000000e+00  -1.3228074788718959e-02 7.9060513665109051e-04 0.0000000000000000e+00  -1.4600101626627917e-02 -2.1592576655506755e-04 0.0000000000000000e+00  -1.5683341814419629e-02 -1.5397216803777322e-03 0.0000000000000000e+00  -1.6404528028613700e-02 -3.0931196370425772e-03 0.0000000000000000e+00  -1.6716671647023354e-02 -4.7770188840038589e-03 0.0000000000000000e+00  -2.3341736709203330e-02 -6.4853882701789043e-03 0.0000000000000000e+00  -2.1655905529258272e-02 -6.4853699277957139e-03 0.0000000000000000e+00  -1.9970172928488638e-02 -6.4853182720819753e-03 0.0000000000000000e+00  -1.8284294858731981e-02 -6.4853605202868196e-03 0.0000000000000000e+00  -2.3220454195990919e-02 7.5605739756686612e-04 0.0000000000000000e+00  -2.4010323015862544e-02 -5.5037296819344928e-04 0.0000000000000000e+00  -2.4596815686241502e-02 -1.9597598004249153e-03 0.0000000000000000e+00  -2.4966513246585116e-02 -3.4410650027075053e-03 0.0000000000000000e+00  -2.5111143131658624e-02 -4.9609267874315636e-03 0.0000000000000000e+00  -2.1043927099887737e-02 3.4627432390172412e-03 0.0000000000000000e+00  -2.0370676467055909e-02 5.1128026739291543e-03 0.0000000000000000e+00  -2.0132011680235914e-02 6.8997110434841219e-03 0.0000000000000000e+00  -2.0368851164931701e-02 8.7108430646552701e-03 0.0000000000000000e+00  -2.1028692868679266e-02 1.0468816834524712e-02 0.0000000000000000e+00  -2.1937840900668620e-02 1.2000433172609607e-02 0.0000000000000000e+00  -2.2558608787776165e-02 1.3426794505274267e-02 0.0000000000000000e+00  -2.1929310254724690e-02 1.5542280485295946e-02 0.0000000000000000e+00  -2.2097578504830177e-02 2.0690453678194460e-02 0.0000000000000000e+00  -2.2444937558748997e-02 2.2853496259503388e-02 0.0000000000000000e+00  -2.2083013950191192e-02 2.4271205723104320e-02 0.0000000000000000e+00  -2.1137317226631720e-02 2.5793462642998307e-02 0.0000000000000000e+00  -2.0489810316841738e-02 2.7550774549425585e-02 0.0000000000000000e+00  -2.0249651268107034e-02 2.9361209665568423e-02 0.0000000000000000e+00  -2.0485676726874593e-02 3.1143793595459938e-02 0.0000000000000000e+00  -2.1160729277896580e-02 3.2791861931947018e-02 0.0000000000000000e+00  -2.5221608917171085e-02 4.1205444851661645e-02 0.0000000000000000e+00  -2.5077095110165100e-02 3.9687493088649772e-02 0.0000000000000000e+00  -2.4707963372458015e-02 3.8208027422528441e-02 0.0000000000000000e+00  -2.4122062656054731e-02 3.6800342500955527e-02 0.0000000000000000e+00  -2.3333257989768708e-02 3.5495618637502654e-02 0.0000000000000000e+00  -1.8403297065538813e-02 4.2727955726024912e-02 0.0000000000000000e+00  -2.0086950914520486e-02 4.2727984885756930e-02 0.0000000000000000e+00  -2.1770668156738660e-02 4.2728002536050941e-02 0.0000000000000000e+00  -2.3454369104036542e-02 4.2728026444457598e-02 0.0000000000000000e+00  -1.6837733453173638e-02 4.1021774369130015e-02 0.0000000000000000e+00  -1.6525596893525906e-02 3.9340125628033989e-02 0.0000000000000000e+00  -1.5805539394911861e-02 3.7788148940389621e-02 0.0000000000000000e+00  -1.4723337353174604e-02 3.6466527425509820e-02 0.0000000000000000e+00  -1.3353122821992039e-02 3.5461086961103117e-02 0.0000000000000000e+00  -1.1787587479763911e-02 3.4838584914179509e-02 0.0000000000000000e+00  -8.3455717549192395e-03 3.4898103331039071e-02 0.0000000000000000e+00  -6.6759139706152491e-03 3.5474217750224767e-02 0.0000000000000000e+00  1.6693201188415415e-04 3.5883441333492055e-02 0.0000000000000000e+00  6.0715181806159107e-05 3.6138923995566508e-02 0.0000000000000000e+00  -1.8199714118260737e-04 3.6430377084747660e-02 0.0000000000000000e+00  -5.9372760370577054e-04 3.6711432017247789e-02 0.0000000000000000e+00  -1.1931477308070705e-03 3.6960275195331113e-02 0.0000000000000000e+00  -1.9622705943056823e-03 3.7099097903021752e-02 0.0000000000000000e+00  -2.9330230851093561e-03 3.7077098534140929e-02 0.0000000000000000e+00  -4.0128762458669651e-03 3.6813654895522172e-02 0.0000000000000000e+00  2.6756207150080234e-05 3.5601529399588994e-02 0.0000000000000000e+00  -1.1095447208364839e-04 3.5658497758807695e-02 0.0000000000000000e+00  -2.5554547654553202e-04 3.5898537963145301e-02 0.0000000000000000e+00  -2.7710958355856046e-04 3.6003798277455527e-02 0.0000000000000000e+00  -2.8079480110027727e-04 3.6076806747486742e-02 0.0000000000000000e+00  -2.8067455310342847e-04 3.6139620668290517e-02 0.0000000000000000e+00  -2.6961258628432065e-04 3.6177455456383387e-02 0.0000000000000000e+00  -2.6623397073376144e-04 3.6203806934483135e-02 0.0000000000000000e+00  -2.1614618578848514e-04 3.6240875182704815e-02 0.0000000000000000e+00  -2.1747799030021715e-04 3.6232977113171069e-02 0.0000000000000000e+00  -2.2012527846586188e-04 3.6226114579091549e-02 0.0000000000000000e+00  -2.2502110832389163e-04 3.6222284016580744e-02 0.0000000000000000e+00  -2.3391406621595952e-04 3.6220898949863412e-02 0.0000000000000000e+00  -2.4827847596087704e-04 3.6222115935034604e-02 0.0000000000000000e+00  -3.0823544743103029e-04 3.6249999999999998e-02 0.0000000000000000e+00  -3.0362457