<?xml version="1.0"?>
<VTKFile type="UnstructuredGrid"  version="0.1"  >
<UnstructuredGrid>
<Piece  NumberOfPoints="4855" NumberOfCells="8780">
<Points>
<DataArray  type="Float64"  NumberOfComponents="3"  format="ascii">0.9483880164242298 0.6836931311526558 0  0.9494264999197789 0.6847056440044139 0  0.9494005292759887 0.6847228078606633 0  0.9735520289385229 0.7444444444444445 0  0.9494005292759886 0.8041660810282256 0  0.94942649991978 0.8041832448844759 0  0.9483880175070514 0.8051957566534116 0  3.131175874138137e-16 0.09811450876034808 0  0.06838800723463068 0.1543033514199101 0  0.05161198249294494 0.1948042433465922 0  0.0505735000802211 0.1958167551155251 0  0.05059947072401128 0.1958339189717744 0  0.0505994707240113 0.3152771921393367 0  0.05057350008021998 0.315294355995587 0  0.05161198357913653 0.3163068688507105 0  0.06838800723463068 0.356807759691201 0  3.252606517456513e-16 0.4129966023507631 0  -1.795438797635995e-16 0.4839416311832997 0  0.07083274769489223 0.4605116403870998 0  0.07084991155114129 0.4605376110308903 0  0.07186242331670639 0.4594991286215342 0  0.1696402113702762 0.5 0  0.07186242332008326 0.5405008713818427 0  0.0708499115511413 0.5394623889691096 0  0.07083274769489219 0.5394883596129002 0  -1.925543058334256e-16 0.5160583688167003 0  1.484923295436147e-15 0.5870033976492365 0  0.06838800723463068 0.643192240308799 0  0.05161198249294541 0.6836931322354806 0  0.05057350008022109 0.6847056440044139 0  0.0505994707240113 0.6847228078606633 0  0.0505994707240113 0.8041660810282256 0  0.05057350008021999 0.804183244884476 0  0.05161198249294764 0.8051957566534106 0  0.06838800723463068 0.84569664858009 0  1.485790657174135e-15 0.9018854912396524 0  0 1 0  1 1 0  0.9999999999999987 0.9018854912396523 0  1.000000000000001 0.5870033976492375 0  1 0.5160583688167003 0  0.9291672523051078 0.5394883596129003 0  0.9291500884488585 0.5394623889691117 0  0.9281375755937461 0.5405008724680134 0  0.9281375755937372 0.4594991275319777 0  0.9291500884488586 0.4605376110308884 0  0.9291672523051077 0.4605116403870997 0  1 0.4839416311832997 0  0.9999999999999987 0.4129966023507635 0  0.948388017507054 0.31630686776452 0  0.94942649991978 0.3152943559955871 0  0.9494005292759886 0.3152771921393367 0  0.9735520289385229 0.2555555555555555 0  0.9494005292759888 0.1958339189717744 0  0.9494264999197789 0.1958167551155251 0  0.9483880164208631 0.1948042422604003 0  1.000000000000001 0.09811450876034861 0  1 0 0  0 0 0  0.1958339189717744 0.2950439151684559 0  0.1958167551155252 0.2950179445246672 0  0.3152771921393367 0.2950439151684557 0  0.1948042433481841 0.2960564269357975 0  0.3152943559955858 0.2950179445246651 0  0.1948042422604031 0.2150546830875326 0  0.3163068677645244 0.2960564269373949 0  0.1958167551155251 0.2160931665864439 0  0.4140846558147206 0.2555555555555555 0  0.1958339189717744 0.2160671959426553 0  0.3163068688489276 0.215054683089313 0  0.3152771921393367 0.2160671959426553 0  0.3152943559955858 0.2160931665864459 0  0.5405008724680257 0.3163068688507107 0  0.5572768961235196 0.356807759691201 0  0.5394623889691089 0.3152943559955871 0  0.459499128618165 0.3163068677645201 0  0.5394883596129003 0.3152771921393367 0  0.4605376110308911 0.3152943559955871 0  0.5394883596129001 0.1958339189717744 0  0.4605116403870998 0.3152771921393367 0  0.53946238896911 0.1958167551155251 0  0.4846631400496339 0.2555555555555555 0  0.5405008724680251 0.1948042422604009 0  0.4605116403870998 0.1958339189717744 0  0.5572768961235196 0.1543033514199101 0  0.46053761103089 0.1958167551155251 0  0.4594991286269881 0.1948042433554141 0  0.6847228078606633 0.2950439151684559 0  0.684705644004414 0.2950179445246672 0  0.8041660810282256 0.2950439151684557 0  0.683693131164073 0.2960564280087975 0  0.8041832448844747 0.2950179445246651 0  0.6836931322354718 0.2150546841737125 0  0.8051957566534156 0.2960564269373971 0  0.6847056440044141 0.2160931665864439 0  0.9029735447036096 0.2555555555555555 0  0.6847228078606632 0.2160671959426553 0  0.8051957577274008 0.2150546830997286 0  0.8041660810282256 0.2160671959426553 0  0.8041832448844747 0.2160931665864459 0  0.2960564280235811 0.560751313295155 0  0.3128324516790751 0.6012522041356455 0  0.2950179445246645 0.5597388004400315 0  0.2150546830875235 0.5607513132951615 0  0.2950439151684557 0.5597216365837812 0  0.2160931665864466 0.5597388004400314 0  0.2950439151684558 0.4402783634162188 0  0.2160671959426553 0.5597216365837812 0  0.2950179445246656 0.4402611995599696 0  0.2402186956051895 0.5 0  0.29605642693739 0.439248687791036 0  0.2160671959426553 0.4402783634162189 0  0.3128324516790751 0.3987477958643545 0  0.2160931665864455 0.4402611995599696 0  0.2150546830875296 0.4392486867048446 0  0.1958339189717743 0.7839328040573448 0  0.1958167551155252 0.7839068334135562 0  0.3152771921393367 0.7839328040573447 0  0.1948042422604028 0.7849453169124678 0  0.3152943559955858 0.783906833413554 0  0.1948042433465913 0.7039435730626098 0  0.3163068677645284 0.7849453158262878 0  0.1958167551155251 0.7049820554753328 0  0.4140846558147206 0.7444444444444445 0  0.1958339189717744 0.7049560848315441 0  0.3163068688486237 0.7039435719785058 0  0.3152771921393367 0.7049560848315441 0  0.3152943559955858 0.7049820554753349 0  0.4402783634162188 0.5394883596129003 0  0.4402611995599696 0.5394623889691117 0  0.5597216365837812 0.5394883596129002 0  0.4392486867048468 0.5405008724680237 0  0.5597388004400302 0.5394623889691096 0  0.4392486877998708 0.4594991286270004 0  0.5607513122089726 0.540500871381843 0  0.4402611995599696 0.4605376110308884 0  0.6585291002591651 0.5 0  0.4402783634162188 0.4605116403870998 0  0.5607513121946796 0.45949912863245 0  0.5597216365837812 0.4605116403870998 0  0.5597388004400302 0.4605376110308904 0  0.78494531690701 0.5607513132896949 0  0.8017213405679641 0.6012522041356455 0  0.7839068334135535 0.5597388004400315 0  0.7039435730626069 0.5607513122089671 0  0.7839328040573448 0.5597216365837812 0  0.7049820554753355 0.5597388004400314 0  0.7839328040573448 0.4402783634162188 0  0.7049560848315441 0.5597216365837812 0  0.7839068334135545 0.4402611995599696 0  0.7291075844940784 0.5 0  0.784945315826279 0.4392486877910359 0  0.7049560848315444 0.4402783634162188 0  0.8017213405679641 0.3987477958643545 0  0.7049820554753344 0.4402611995599696 0  0.7039435719764182 0.4392486867048443 0  0.5405008724625655 0.8051957577341393 0  0.5572768961235196 0.84569664858009 0  0.539462388969109 0.804183244884476 0  0.4594991286181648 0.8051957566534091 0  0.5394883596129003 0.8041660810282256 0  0.4605376110308911 0.804183244884476 0  0.5394883596129003 0.6847228078606633 0  0.4605116403870998 0.8041660810282256 0  0.53946238896911 0.6847056440044139 0  0.4846631400496339 0.7444444444444445 0  0.5405008713818347 0.6836931322354802 0  0.4605116403870998 0.6847228078606633 0  0.5572768961235196 0.643192240308799 0  0.46053761103089 0.6847056440044139 0  0.4594991275353449 0.6836931311526599 0  0.6847228078606633 0.7839328040573448 0  0.684705644004414 0.7839068334135562 0  0.8041660810282256 0.7839328040573447 0  0.6836931311493016 0.7849453169124578 0  0.8041832448844747 0.783906833413554 0  0.68369313223548 0.7039435730626096 0  0.805195756653417 0.7849453158262875 0  0.6847056440044141 0.7049820554753328 0  0.9029735447036096 0.7444444444444445 0  0.6847228078606633 0.7049560848315441 0  0.805195757738809 0.7039435719772094 0  0.8041660810282256 0.7049560848315441 0  0.8041832448844747 0.7049820554753349 0  0.9578164230213342 0.6948838683471341 0  0.9645772892192558 0.7062137009141434 0  0.9695236884064815 0.7184451175460498 0  0.972538971146615 0.7312896684428197 0  0.9725389711466151 0.7575992204460691 0  0.9695236884064815 0.7704437713428391 0  0.9645772892192558 0.7826751879747456 0  0.9578164230213342 0.7940050205417549 0  0.01437766570919127 0.09711967848259151 0  0.02854851642641832 0.09974531144948819 0  0.04161535472570586 0.1058251712658871 0  0.05275088139110013 0.1149743244732108 0  0.06125007411586489 0.1266135117968212 0  0.06657482449792251 0.1400058227212122 0  0.06643634307317195 0.1691277076584997 0  0.06071435336153361 0.1829418078690686 0  0.04134737123322858 0.3039103077764334 0  0.03416190609801732 0.2911362521989113 0  0.02925217947541549 0.2773267630846004 0  0.02676106927623143 0.2628837102534819 0  0.02676106927623143 0.2482274008576293 0  0.02925217947541547 0.2337843480265108 0  0.03416190609801727 0.2199748589121999 0  0.04134737123322851 0.2072008033346779 0  0.06071435387356935 0.328169304128914 0  0.06643634320569657 0.3419834039471998 0  0.06657482449792249 0.371105288389899 0  0.06125007411586481 0.3844975993142901 0  0.05275088139109994 0.3961367866379005 0  0.04161535472570563 0.4052859398452242 0  0.02854851642641818 0.411365799661623 0  0.01437766570919127 0.4139914326285196 0  0 0.4697526254167924 0  0 0.455563619650285 0  0 0.4413746138837777 0  0 0.4271856081172704 0  0.06095233986089402 0.4687284952262988 0  0.04995687430503332 0.4753797281664747 0  0.03809234373417287 0.4803165365228644 0  0.02562418374773841 0.4834284730529493 0  0.01283133446055119 0.4846459169037758 0  0.08372485599813187 0.4503967593658507 0  0.09753895276796982 0.4446747697099958 0  0.1123633055586467 0.4427231038764812 0  0.1271876590095525 0.4446747646950606 0  0.1410017577150834 0.45039674967774 0  0.1528641934757506 0.4594991149204779 0  0.161966560724962 0.471361549141524 0  0.1676885480442292 0.4851756468792086 0  0.1676885480443665 0.514824353120279 0  0.1619665607254926 0.528638450857557 0  0.1528641934768762 0.5405008850783964 0  0.1410017577169217 0.5496032503211987 0  0.1271876590121153 0.5553252353042526 0  0.1123633055618306 0.5572768961235188 0  0.09753895277155772 0.5553252302909656 0  0.08372485600180817 0.5496032406362719 0  0.0128313344605512 0.5153540830962242 0  0.0256241837477384 0.5165715269470507 0  0.03809234373417282 0.5196834634771356 0  0.04995687430503334 0.5246202718335253 0  0.06095233986089401
[...]
<PointData  Vectors="$u$"> 
<DataArray  type="Float64"  Name="$u$"  NumberOfComponents="3" format="ascii">4.9980493678213707e-03 3.7522855904095792e-02 0.0000000000000000e+00  4.8785909425695896e-03 3.7565926674667009e-02 0.0000000000000000e+00  4.8767887790788873e-03 3.7564712096110023e-02 0.0000000000000000e+00  3.8465321608253364e-04 3.8155727603552729e-02 0.0000000000000000e+00  -7.0226753587463494e-04 3.6967573418168413e-02 0.0000000000000000e+00  -7.0230115937729132e-04 3.6968226219245663e-02 0.0000000000000000e+00  -6.9172268132608353e-04 3.6935757593575411e-02 0.0000000000000000e+00  -4.2395956742130077e-05 2.7419164174890333e-05 0.0000000000000000e+00  1.9319780098209617e-05 4.6507235007286612e-04 0.0000000000000000e+00  3.6893675837653745e-04 5.7248117309097320e-04 0.0000000000000000e+00  3.8103572494741552e-04 5.4356129778757695e-04 0.0000000000000000e+00  3.8102492735584770e-04 5.4414546528193115e-04 0.0000000000000000e+00  -5.2224433850986155e-03 -7.2231758476380830e-05 0.0000000000000000e+00  -5.2242769622185799e-03 -7.3547623911240291e-05 0.0000000000000000e+00  -5.3469778687906273e-03 -2.5912976879627150e-05 0.0000000000000000e+00  -1.0342006448091873e-02 1.6343904803597271e-03 0.0000000000000000e+00  -1.7200754779647037e-02 -6.7440106628739787e-03 0.0000000000000000e+00  -2.5934268137876026e-02 -6.7440451956130507e-03 0.0000000000000000e+00  -2.3050854891236570e-02 1.9753868169011387e-03 0.0000000000000000e+00  -2.3054045363233657e-02 1.9774971854031372e-03 0.0000000000000000e+00  -2.2926642557694613e-02 2.1021810822702859e-03 0.0000000000000000e+00  -2.2428180659844556e-02 1.8675340458859272e-02 0.0000000000000000e+00  -2.3046653532986738e-02 3.5404948808837218e-02 0.0000000000000000e+00  -2.3174169004564114e-02 3.5528998094946397e-02 0.0000000000000000e+00  -2.3170981600760889e-02 3.5531102795625991e-02 0.0000000000000000e+00  -2.6050641347839257e-02 4.4238587484627584e-02 0.0000000000000000e+00  -1.7328927676081081e-02 4.4238502329699128e-02 0.0000000000000000e+00  -1.0480888480775117e-02 3.5867019591145230e-02 0.0000000000000000e+00  -5.4889106150118935e-03 3.7503329669814463e-02 0.0000000000000000e+00  -5.3706804540453916e-03 3.7552192521210226e-02 0.0000000000000000e+00  -5.3689156982651282e-03 3.7550860211105666e-02 0.0000000000000000e+00  1.3847869369962737e-04 3.6947175641949506e-02 0.0000000000000000e+00  1.3847254082713633e-04 3.6947685364714600e-02 0.0000000000000000e+00  1.2636180153778910e-04 3.6920730036623009e-02 0.0000000000000000e+00  -2.2206454291994864e-04 3.7037250278211080e-02 0.0000000000000000e+00  -2.8648461414859633e-04 3.7472331158862629e-02 0.0000000000000000e+00  -2.3588753042057202e-04 3.7499999999999999e-02 0.0000000000000000e+00  -3.3379063327033725e-04 3.7499999999999999e-02 0.0000000000000000e+00  -2.8339118558590328e-04 3.7472252966148298e-02 0.0000000000000000e+00  1.6890052024136640e-02 4.4282602188151374e-02 0.0000000000000000e+00  2.5648930961536344e-02 4.4282663799732433e-02 0.0000000000000000e+00  2.2757401322058151e-02 3.5537676247873351e-02 0.0000000000000000e+00  2.2760610208008906e-02 3.5535556141621696e-02 0.0000000000000000e+00  2.2632321675613572e-02 3.5410507618249022e-02 0.0000000000000000e+00  2.2648562411849694e-02 2.0812734803765708e-03 0.0000000000000000e+00  2.2775273653527217e-02 1.9573082626271761e-03 0.0000000000000000e+00  2.2772101361929593e-02 1.9552099691509933e-03 0.0000000000000000e+00  2.5641176731745957e-02 -6.7204650288925430e-03 0.0000000000000000e+00  1.6951368824409289e-02 -6.7204185570836931e-03 0.0000000000000000e+00  5.1518215929832068e-03 1.2561380921891664e-06 0.0000000000000000e+00  5.0331351937087116e-03 -4.6307717556247936e-05 0.0000000000000000e+00  5.0313475302541533e-03 -4.4992522858214609e-05 0.0000000000000000e+00  5.9892430063424767e-04 -6.3078801659764217e-04 0.0000000000000000e+00  -4.7292199282422703e-04 5.4351047683915625e-04 0.0000000000000000e+00  -4.7290514966819833e-04 5.4278854616575823e-04 0.0000000000000000e+00  -4.5851970259767861e-04 5.7714729956465007e-04 0.0000000000000000e+00  -4.7076164057492751e-05 2.7839370782003661e-05 0.0000000000000000e+00  -9.8386202923920021e-05 0.0000000000000000e+00 0.0000000000000000e+00  0.0000000000000000e+00 0.0000000000000000e+00 0.0000000000000000e+00  -6.2921854949944591e-03 1.6919662576518956e-02 0.0000000000000000e+00  -6.2927218857490958e-03 1.6917583243805653e-02 0.0000000000000000e+00  -7.3045165489787067e-03 1.7090958394161596e-02 0.0000000000000000e+00  -6.2665818712883542e-03 1.6779689956197070e-02 0.0000000000000000e+00  -7.3047867925415191e-03 1.7089850297862794e-02 0.0000000000000000e+00  -9.8461724392093962e-05 5.9523800136697702e-05 0.0000000000000000e+00  -7.3019160113554785e-03 1.7012949336178574e-02 0.0000000000000000e+00  -1.0168989401799616e-04 5.9669715170791058e-05 0.0000000000000000e+00  -7.0064374762512267e-03 6.4938052343551178e-03 0.0000000000000000e+00  -1.0162893324658240e-04 5.9699229206392099e-05 0.0000000000000000e+00  -2.4534362836902188e-04 5.0979131998116397e-05 0.0000000000000000e+00  -2.4266681463949917e-04 5.1760343914330126e-05 0.0000000000000000e+00  -2.4260861392784070e-04 5.1728405950264842e-05 0.0000000000000000e+00  7.2330714638221792e-03 7.2935944852558334e-03 0.0000000000000000e+00  4.2790344796418394e-03 8.3022122443656213e-03 0.0000000000000000e+00  7.2938824035125686e-03 7.3202639134895501e-03 0.0000000000000000e+00  -7.4740508484702111e-03 7.2894566263474970e-03 0.0000000000000000e+00  7.2946949972874566e-03 7.3197405917211694e-03 0.0000000000000000e+00  -7.5329289353378405e-03 7.3238814123822256e-03 0.0000000000000000e+00  4.1388230836087387e-03 7.3482144424271336e-03 0.0000000000000000e+00  -7.5336926957693092e-03 7.3231312571097312e-03 0.0000000000000000e+00  4.1348474093447643e-03 7.3509628412209366e-03 0.0000000000000000e+00  -8.1184622838971088e-03 8.2340653573753034e-03 0.0000000000000000e+00  3.9076773938777395e-03 7.2669280022166216e-03 0.0000000000000000e+00  -4.2640006203426249e-03 7.3320145366516177e-03 0.0000000000000000e+00  5.0589147885689561e-04 1.2681834421129769e-03 0.0000000000000000e+00  -4.2599918697681458e-03 7.3356032233688065e-03 0.0000000000000000e+00  -4.0312233399397998e-03 7.2159485564226456e-03 0.0000000000000000e+00  7.0789734933231529e-03 1.7107161435229275e-02 0.0000000000000000e+00  7.0790299397090160e-03 1.7105999930904801e-02 0.0000000000000000e+00  6.0601726514526730e-03 1.6794622508913351e-02 0.0000000000000000e+00  7.0848170982955316e-03 1.7024113401817260e-02 0.0000000000000000e+00  6.0605240960746667e-03 1.6792601319107852e-02 0.0000000000000000e+00  1.5615914279525723e-04 4.8949817873565221e-05 0.0000000000000000e+00  6.0401745772475151e-03 1.6659967688483979e-02 0.0000000000000000e+00  1.5407209469340324e-04 5.0785347358336826e-05 0.0000000000000000e+00  1.2791473796051503e-03 2.3756302981643518e-03 0.0000000000000000e+00  1.5412741565580320e-04 5.0823005767465354e-05 0.0000000000000000e+00  9.1824300094950165e-06 5.7154603629923351e-05 0.0000000000000000e+00  1.1706904406602785e-05 5.9044311243950473e-05 0.0000000000000000e+00  1.1768375913899519e-05 5.9004747063843194e-05 0.0000000000000000e+00  1.3859383254193835e-03 1.8665969907607629e-02 0.0000000000000000e+00  -1.8408698462932921e-03 2.0203459168935376e-02 0.0000000000000000e+00  1.4787231458737592e-03 1.8641064248349937e-02 0.0000000000000000e+00  -2.0812188824983348e-02 1.7997535118406443e-02 0.0000000000000000e+00  1.4800567266803834e-03 1.8641829400964611e-02 0.0000000000000000e+00  -2.0935909697292067e-02 1.7950839166931999e-02 0.0000000000000000e+00  1.5166680574480390e-03 1.9000015272733938e-02 0.0000000000000000e+00  -2.0937762931737311e-02 1.7952114796095375e-02 0.0000000000000000e+00  1.5153964146051942e-03 1.9001000501047936e-02 0.0000000000000000e+00  -2.4570217550661560e-02 1.8841200936291429e-02 0.0000000000000000e+00  1.4278497442452461e-03 1.8966427794575864e-02 0.0000000000000000e+00  -2.0794173427681407e-02 1.9529553278363330e-02 0.0000000000000000e+00  -1.7908322465333059e-03 1.7424828561747721e-02 0.0000000000000000e+00  -2.0792592424642944e-02 1.9530114563575906e-02 0.0000000000000000e+00  -2.0685246573729357e-02 1.9513036720614482e-02 0.0000000000000000e+00  -3.4634338544720767e-04 3.7442269962196482e-02 0.0000000000000000e+00  -3.4642634973421467e-04 3.7442313968711650e-02 0.0000000000000000e+00  -4.8970533039320325e-04 3.7451104662762587e-02 0.0000000000000000e+00  -3.4236570654706035e-04 3.7443502889405782e-02 0.0000000000000000e+00  -4.8964625964787736e-04 3.7451145533721523e-02 0.0000000000000000e+00  -6.3993316386702810e-03 2.0746047035617311e-02 0.0000000000000000e+00  -4.9187194553078611e-04 3.7453083448690555e-02 0.0000000000000000e+00  -6.4129387201443530e-03 2.0595931389699052e-02 0.0000000000000000e+00  -6.8802607751422889e-03 3.1274461696069199e-02 0.0000000000000000e+00  -6.4127196286858897e-03 2.0593642906539415e-02 0.0000000000000000e+00  -7.4277573343556691e-03 2.0616386358511485e-02 0.0000000000000000e+00  -7.4320000047132274e-03 2.0533940457274850e-02 0.0000000000000000e+00  -7.4323206723819818e-03 2.0535094943513642e-02 0.0000000000000000e+00  2.2328448457248026e-04 2.8988532184499240e-02 0.0000000000000000e+00  2.2354744593304705e-04 2.8987304485219186e-02 0.0000000000000000e+00  -6.0436545284238289e-04 2.8904053461764143e-02 0.0000000000000000e+00  2.2006052026265187e-04 2.8902477302858845e-02 0.0000000000000000e+00  -6.0471466707475081e-04 2.8902809325551820e-02 0.0000000000000000e+00  3.0231829579274424e-04 8.7811270076574161e-03 0.0000000000000000e+00  -5.9734705201802457e-04 2.8818353458514499e-02 0.0000000000000000e+00  3.0142704215917724e-04 8.7103046345605034e-03 0.0000000000000000e+00  -2.4765300606062620e-03 1.8763151839858206e-02 0.0000000000000000e+00  3.0128602288291936e-04 8.7093173462469854e-03 0.0000000000000000e+00  -5.0992604336925400e-04 8.7568691549792747e-03 0.0000000000000000e+00  -5.1529963589478365e-04 8.6786230493921361e-03 0.0000000000000000e+00  -5.1560703572489349e-04 8.6797170001915516e-03 0.0000000000000000e+00  2.0394354980600177e-02 1.7919555189336071e-02 0.0000000000000000e+00  1.5185597170566287e-02 1.9815528982888880e-02 0.0000000000000000e+00  2.0530916194342264e-02 1.7872498948612304e-02 0.0000000000000000e+00  -1.7224557488574785e-03 1.8686557455813428e-02 0.0000000000000000e+00  2.0532985598712694e-02 1.7873826088694131e-02 0.0000000000000000e+00  -1.8120277741498114e-03 1.8658464965838843e-02 0.0000000000000000e+00  2.0550267168168802e-02 1.9466283265514531e-02 0.0000000000000000e+00  -1.8132984851966440e-03 1.8659236981841992e-02 0.0000000000000000e+00  2.0548514088998077e-02 1.9467627147132689e-02 0.0000000000000000e+00  -4.0995945335590925e-03 1.8844789276752084e-02 0.0000000000000000e+00  2.0431742359006987e-02 1.9418384024894431e-02 0.0000000000000000e+00  -1.7240971054924485e-03 1.8981779904168529e-02 0.0000000000000000e+00  1.5265338757818792e-02 1.7540851647529939e-02 0.0000000000000000e+00  -1.7231106871336980e-03 1.8982400817503547e-02 0.0000000000000000e+00  -1.6521224000447135e-03 1.8962614542242618e-02 0.0000000000000000e+00  3.5509385988418277e-03 3.0460706964738165e-02 0.0000000000000000e+00  2.1279931998187545e-04 3.6262468763829922e-02 0.0000000000000000e+00  3.7707826784817320e-03 3.0324097149598380e-02 0.0000000000000000e+00  -3.9656490730275440e-03 3.0500195374822261e-02 0.0000000000000000e+00  3.7746207355254234e-03 3.0328076936988926e-02 0.0000000000000000e+00  -4.1746634875303645e-03 3.0401070455577432e-02 0.0000000000000000e+00  7.1938890460918718e-03 3.0281374775524599e-02 0.0000000000000000e+00  -4.1782636849707015e-03 3.0404046696311495e-02 0.0000000000000000e+00  7.1930613009403904e-03 3.0280858295060296e-02 0.0000000000000000e+00  -8.2099853710331672e-03 2.9434659904793888e-02 0.0000000000000000e+00  7.1294272402927031e-03 3.0305228230901784e-02 0.0000000000000000e+00  -7.6190052859227931e-03 3.0370469515985283e-02 0.0000000000000000e+00  4.1694317644114078e-03 2.9291899435133224e-02 0.0000000000000000e+00  -7.6179785258569700e-03 3.0370001489924896e-02 0.0000000000000000e+00  -7.5451810141396927e-03 3.0393118899226006e-02 0.0000000000000000e+00  -7.9536544187082134e-05 3.7449491510537190e-02 0.0000000000000000e+00  -7.9585324560755717e-05 3.7449525497286890e-02 0.0000000000000000e+00  -2.2377082772915524e-04 3.7442003796808017e-02 0.0000000000000000e+00  -7.7806195637950725e-05 3.7451339526443028e-02 0.0000000000000000e+00  -2.2373246190911207e-04 3.7442013189365193e-02 0.0000000000000000e+00  7.0213792770479318e-03 2.0611827283126622e-02 0.0000000000000000e+00  -2.2643029210287134e-04 3.7440694096798205e-02 0.0000000000000000e+00  7.0248232628234266e-03 2.0531846776599683e-02 0.0000000000000000e+00  1.1000865951234021e-03 3.5056260446448537e-02 0.0000000000000000e+00  7.0245256322137824e-03 2.0530708724781816e-02 0.0000000000000000e+00  6.0028879870845028e-03 2.0710055801844908e-02 0.0000000000000000e+00  6.0202776955413633e-03 2.0570487798854568e-02 0.0000000000000000e+00  6.0206366469821955e-03 2.0572551442976709e-02 0.0000000000000000e+00  3.7816899773235528e-03 3.8089811089370471e-02 0.0000000000000000e+00  2.7571887062211079e-03 3.8361988531122583e-02 0.0000000000000000e+00  1.8174375706218556e-03 3.8448461342308581e-02 0.0000000000000000e+00  1.0166446001135976e-03 3.8345627268653058e-02 0.0000000000000000e+00  -9.7270375909048378e-05 3.7905112958046924e-02 0.0000000000000000e+00  -4.2733044154378717e-04 3.7632483958372029e-02 0.0000000000000000e+00  -6.2765820825384571e-04 3.7374410114410075e-02 0.0000000000000000e+00  -7.1189995709144711e-04 3.7136998959281152e-02 0.0000000000000000e+00  -4.0936710338709581e-05 4.6033784602535758e-05 0.0000000000000000e+00  -4.8554428533770538e-05 7.1255382133219634e-05 0.0000000000000000e+00  -5.2530248258812989e-05 1.1360724392177305e-04 0.0000000000000000e+00  -5.8642255168481273e-05 1.6873277151123234e-04 0.0000000000000000e+00  -5.5658295895965941e-05 2.4934688934461743e-04 0.0000000000000000e+00  -2.8684083082209269e-05 3.5163589397953606e-04 0.0000000000000000e+00  1.1644744953761641e-04 5.9196391841908908e-04 0.0000000000000000e+00  2.5162209338100959e-04 6.4067668748227192e-04 0.0000000000000000e+00  -4.0119539089626772e-03 -6.1290326175941063e-04 0.0000000000000000e+00  -2.8806419524341673e-03 -9.1144442203604508e-04 0.0000000000000000e+00  -1.8684045662269227e-03 -9.3492904110470485e-04 0.0000000000000000e+00  -1.0538561599529657e-03 -7.8248806388259910e-04 0.0000000000000000e+00  -4.2392829680836078e-04 -5.2362242262713962e-04 0.0000000000000000e+00  1.4687159769643159e-05 -2.2612248684729332e-04 0.0000000000000000e+00  2.7268610504201215e-04 7.8015630642335883e-05 0.0000000000000000e+00  3.8826264440809780e-04 3.4479763871918809e-04 0.0000000000000000e+00  -6.7750663555782523e-03 7.7748306487815117e-04 0.0000000000000000e+00  -8.5130083988706924e-03 1.3822866946905836e-03 0.0000000000000000e+00  -1.2084935795759153e-02 1.4411678727734919e-03 0.0000000000000000e+00  -1.3707928508794643e-02 7.9477634764331189e-04 0.0000000000000000e+00  -1.5130018397474158e-02 -2.4819720526033528e-04 0.0000000000000000e+00  -1.6252540259338321e-02 -1.6197694637153199e-03 0.0000000000000000e+00  -1.6999788086027284e-02 -3.2292712493261623e-03 0.0000000000000000e+00  -1.7323217677701779e-02 -4.9739978574762887e-03 0.0000000000000000e+00  -2.4187632088974113e-02 -6.7440810303448680e-03 0.0000000000000000e+00  -2.2440894961153830e-02 -6.7440614082589830e-03 0.0000000000000000e+00  -2.0694258959056817e-02 -6.7440114025002417e-03 0.0000000000000000e+00  -1.8947472016577201e-02 -6.7440532180284632e-03 0.0000000000000000e+00  -2.4061959157485255e-02 7.5899893495140068e-04 0.0000000000000000e+00  -2.4880367122534455e-02 -5.9463389320529056e-04 0.0000000000000000e+00  -2.5488058442708766e-02 -2.0549416418495585e-03 0.0000000000000000e+00  -2.5871109019117114e-02 -3.5897692467868653e-03 0.0000000000000000e+00  -2.6020966214258916e-02 -5.1645416947181675e-03 0.0000000000000000e+00  -2.1806661615548492e-02 3.5633898575601702e-03 0.0000000000000000e+00  -2.1109145323340427e-02 5.2728100870437751e-03 0.0000000000000000e+00  -2.0861633013117352e-02 7.1234437682156709e-03 0.0000000000000000e+00  -2.1106931197314951e-02 8.9979837770783333e-03 0.0000000000000000e+00  -2.1792456552673881e-02 1.0816081221276011e-02 0.0000000000000000e+00  -2.2734816080393475e-02 1.2397650842333137e-02 0.0000000000000000e+00  -2.3378305924751645e-02 1.3870026743907757e-02 0.0000000000000000e+00  -2.2718650493832454e-02 1.6064328562893995e-02 0.0000000000000000e+00  -2.2895668970782736e-02 2.1421284875924446e-02 0.0000000000000000e+00  -2.3266388614209439e-02 2.3666065189359660e-02 0.0000000000000000e+00  -2.2888725935001693e-02 2.5129455885477273e-02 0.0000000000000000e+00  -2.1906771367513057e-02 2.6700798147318530e-02 0.0000000000000000e+00  -2.1234880006779928e-02 2.8518041798289276e-02 0.0000000000000000e+00  -2.0985909136511618e-02 3.0391644408052407e-02 0.0000000000000000e+00  -2.1230639365862492e-02 3.2237588620111675e-02 0.0000000000000000e+00  -2.1930006340564644e-02 3.3944713341501218e-02 0.0000000000000000e+00  -2.6137236761354495e-02 4.2661196383813056e-02 0.0000000000000000e+00  -2.5987512847690627e-02 4.1088587727734958e-02 0.0000000000000000e+00  -2.5605099546218132e-02 3.9555844596287630e-02 0.0000000000000000e+00  -2.4998085027593223e-02 3.8097468800483911e-02 0.0000000000000000e+00  -2.4180879932227957e-02 3.6745762823380067e-02 0.0000000000000000e+00  -1.9073411227819921e-02 4.4238532308914218e-02 0.0000000000000000e+00  -2.0817688185477811e-02 4.4238563518260013e-02 0.0000000000000000e+00  -2.2562032719046353e-02 4.4238580043156991e-02 0.0000000000000000e+00  -2.4306359337937518e-02 4.4238604262457751e-02 0.0000000000000000e+00  -1.7451477020098881e-02 4.2470921122912730e-02 0.0000000000000000e+00  -1.7128103766198301e-02 4.0728726709764712e-02 0.0000000000000000e+00  -1.6382091576966400e-02 3.9120903310425559e-02 0.0000000000000000e+00  -1.5260797237701256e-02 3.7751712204977583e-02 0.0000000000000000e+00  -1.3840713743434527e-02 3.6710027178044960e-02 0.0000000000000000e+00  -1.2218099494722044e-02 3.6064440105426997e-02 0.0000000000000000e+00  -8.6513605649038462e-03 3.6124298286128571e-02 0.0000000000000000e+00  -6.9225340557495067e-03 3.6723739173569449e-02 0.0000000000000000e+00  1.4858392527300899e-04 3.7136153788595271e-02 0.0000000000000000e+00  4.0077378120467475e-05 3.7394435265923218e-02 0.0000000000000000e+00  -2.0593272016334048e-04 3.7691494762031298e-02 0.0000000000000000e+00  -6.2712084256989406e-04 3.7980285401799770e-02 0.0000000000000000e+00  -1.2429451540194307e-03 3.8239592009987729e-02 0.0000000000000000e+00  -2.0343143349508129e-03 3.8387238598851681e-02 0.0000000000000000e+00  -3.0426604695326463e-03 3.8371408638266838e-02 0.0000000000000000e+00  -4.1614865831477556e-03 3.8103616096922734e-02 0.0000000000000000e+00  8.2519889339995060e-06 3.6849988143777899e-02 0.0000000000000000e+00  -1.3025482708398827e-04 3.6906876098578074e-02 0.0000000000000000e+00  -2.7545525583893313e-04 3.7147349982046558e-02 0.0000000000000000e+00  -2.9718692987806112e-04 3.7253059340229176e-02 0.0000000000000000e+00  -3.0083595085401966e-04 3.7326177544033369e-02 0.0000000000000000e+00  -3.0083951024970209e-04 3.7389270729857101e-02 0.0000000000000000e+00  -2.8965814225019132e-04 3.7427188353808045e-02 0.0000000000000000e+00  -2.8631426784513683e-04 3.7453630861410923e-02 0.0000000000000000e+00  -2.3608883496193981e-04 3.7490835938710644e-02 0.0000000000000000e+00  -2.3742464266216694e-04 3.7482912828166598e-02 0.0000000000000000e+00  -2.4007472314295852e-04 3.7476007639346769e-02 0.0000000000000000e+00  -2.4497821560333919e-04 3.7472171604321737e-02 0.0000000000000000e+00  -2.5389156969741339e-04 3.7470767547341403e-02 0.0000000000000000e+00  -2.6829707834440835e-04 3.7471992877741590e-02 0.0000000000000000e+00  -3.3070121821875646e-04 3.7499999999999999e-02 0.0000000000000000e+00  -3.260764