<?xml version="1.0"?>
<VTKFile type="UnstructuredGrid"  version="0.1"  >
<UnstructuredGrid>
<Piece  NumberOfPoints="4855" NumberOfCells="8780">
<Points>
<DataArray  type="Float64"  NumberOfComponents="3"  format="ascii">0.9483880164242298 0.6836931311526558 0  0.9494264999197789 0.6847056440044139 0  0.9494005292759887 0.6847228078606633 0  0.9735520289385229 0.7444444444444445 0  0.9494005292759886 0.8041660810282256 0  0.94942649991978 0.8041832448844759 0  0.9483880175070514 0.8051957566534116 0  3.131175874138137e-16 0.09811450876034808 0  0.06838800723463068 0.1543033514199101 0  0.05161198249294494 0.1948042433465922 0  0.0505735000802211 0.1958167551155251 0  0.05059947072401128 0.1958339189717744 0  0.0505994707240113 0.3152771921393367 0  0.05057350008021998 0.315294355995587 0  0.05161198357913653 0.3163068688507105 0  0.06838800723463068 0.356807759691201 0  3.252606517456513e-16 0.4129966023507631 0  -1.795438797635995e-16 0.4839416311832997 0  0.07083274769489223 0.4605116403870998 0  0.07084991155114129 0.4605376110308903 0  0.07186242331670639 0.4594991286215342 0  0.1696402113702762 0.5 0  0.07186242332008326 0.5405008713818427 0  0.0708499115511413 0.5394623889691096 0  0.07083274769489219 0.5394883596129002 0  -1.925543058334256e-16 0.5160583688167003 0  1.484923295436147e-15 0.5870033976492365 0  0.06838800723463068 0.643192240308799 0  0.05161198249294541 0.6836931322354806 0  0.05057350008022109 0.6847056440044139 0  0.0505994707240113 0.6847228078606633 0  0.0505994707240113 0.8041660810282256 0  0.05057350008021999 0.804183244884476 0  0.05161198249294764 0.8051957566534106 0  0.06838800723463068 0.84569664858009 0  1.485790657174135e-15 0.9018854912396524 0  0 1 0  1 1 0  0.9999999999999987 0.9018854912396523 0  1.000000000000001 0.5870033976492375 0  1 0.5160583688167003 0  0.9291672523051078 0.5394883596129003 0  0.9291500884488585 0.5394623889691117 0  0.9281375755937461 0.5405008724680134 0  0.9281375755937372 0.4594991275319777 0  0.9291500884488586 0.4605376110308884 0  0.9291672523051077 0.4605116403870997 0  1 0.4839416311832997 0  0.9999999999999987 0.4129966023507635 0  0.948388017507054 0.31630686776452 0  0.94942649991978 0.3152943559955871 0  0.9494005292759886 0.3152771921393367 0  0.9735520289385229 0.2555555555555555 0  0.9494005292759888 0.1958339189717744 0  0.9494264999197789 0.1958167551155251 0  0.9483880164208631 0.1948042422604003 0  1.000000000000001 0.09811450876034861 0  1 0 0  0 0 0  0.1958339189717744 0.2950439151684559 0  0.1958167551155252 0.2950179445246672 0  0.3152771921393367 0.2950439151684557 0  0.1948042433481841 0.2960564269357975 0  0.3152943559955858 0.2950179445246651 0  0.1948042422604031 0.2150546830875326 0  0.3163068677645244 0.2960564269373949 0  0.1958167551155251 0.2160931665864439 0  0.4140846558147206 0.2555555555555555 0  0.1958339189717744 0.2160671959426553 0  0.3163068688489276 0.215054683089313 0  0.3152771921393367 0.2160671959426553 0  0.3152943559955858 0.2160931665864459 0  0.5405008724680257 0.3163068688507107 0  0.5572768961235196 0.356807759691201 0  0.5394623889691089 0.3152943559955871 0  0.459499128618165 0.3163068677645201 0  0.5394883596129003 0.3152771921393367 0  0.4605376110308911 0.3152943559955871 0  0.5394883596129001 0.1958339189717744 0  0.4605116403870998 0.3152771921393367 0  0.53946238896911 0.1958167551155251 0  0.4846631400496339 0.2555555555555555 0  0.5405008724680251 0.1948042422604009 0  0.4605116403870998 0.1958339189717744 0  0.5572768961235196 0.1543033514199101 0  0.46053761103089 0.1958167551155251 0  0.4594991286269881 0.1948042433554141 0  0.6847228078606633 0.2950439151684559 0  0.684705644004414 0.2950179445246672 0  0.8041660810282256 0.2950439151684557 0  0.683693131164073 0.2960564280087975 0  0.8041832448844747 0.2950179445246651 0  0.6836931322354718 0.2150546841737125 0  0.8051957566534156 0.2960564269373971 0  0.6847056440044141 0.2160931665864439 0  0.9029735447036096 0.2555555555555555 0  0.6847228078606632 0.2160671959426553 0  0.8051957577274008 0.2150546830997286 0  0.8041660810282256 0.2160671959426553 0  0.8041832448844747 0.2160931665864459 0  0.2960564280235811 0.560751313295155 0  0.3128324516790751 0.6012522041356455 0  0.2950179445246645 0.5597388004400315 0  0.2150546830875235 0.5607513132951615 0  0.2950439151684557 0.5597216365837812 0  0.2160931665864466 0.5597388004400314 0  0.2950439151684558 0.4402783634162188 0  0.2160671959426553 0.5597216365837812 0  0.2950179445246656 0.4402611995599696 0  0.2402186956051895 0.5 0  0.29605642693739 0.439248687791036 0  0.2160671959426553 0.4402783634162189 0  0.3128324516790751 0.3987477958643545 0  0.2160931665864455 0.4402611995599696 0  0.2150546830875296 0.4392486867048446 0  0.1958339189717743 0.7839328040573448 0  0.1958167551155252 0.7839068334135562 0  0.3152771921393367 0.7839328040573447 0  0.1948042422604028 0.7849453169124678 0  0.3152943559955858 0.783906833413554 0  0.1948042433465913 0.7039435730626098 0  0.3163068677645284 0.7849453158262878 0  0.1958167551155251 0.7049820554753328 0  0.4140846558147206 0.7444444444444445 0  0.1958339189717744 0.7049560848315441 0  0.3163068688486237 0.7039435719785058 0  0.3152771921393367 0.7049560848315441 0  0.3152943559955858 0.7049820554753349 0  0.4402783634162188 0.5394883596129003 0  0.4402611995599696 0.5394623889691117 0  0.5597216365837812 0.5394883596129002 0  0.4392486867048468 0.5405008724680237 0  0.5597388004400302 0.5394623889691096 0  0.4392486877998708 0.4594991286270004 0  0.5607513122089726 0.540500871381843 0  0.4402611995599696 0.4605376110308884 0  0.6585291002591651 0.5 0  0.4402783634162188 0.4605116403870998 0  0.5607513121946796 0.45949912863245 0  0.5597216365837812 0.4605116403870998 0  0.5597388004400302 0.4605376110308904 0  0.78494531690701 0.5607513132896949 0  0.8017213405679641 0.6012522041356455 0  0.7839068334135535 0.5597388004400315 0  0.7039435730626069 0.5607513122089671 0  0.7839328040573448 0.5597216365837812 0  0.7049820554753355 0.5597388004400314 0  0.7839328040573448 0.4402783634162188 0  0.7049560848315441 0.5597216365837812 0  0.7839068334135545 0.4402611995599696 0  0.7291075844940784 0.5 0  0.784945315826279 0.4392486877910359 0  0.7049560848315444 0.4402783634162188 0  0.8017213405679641 0.3987477958643545 0  0.7049820554753344 0.4402611995599696 0  0.7039435719764182 0.4392486867048443 0  0.5405008724625655 0.8051957577341393 0  0.5572768961235196 0.84569664858009 0  0.539462388969109 0.804183244884476 0  0.4594991286181648 0.8051957566534091 0  0.5394883596129003 0.8041660810282256 0  0.4605376110308911 0.804183244884476 0  0.5394883596129003 0.6847228078606633 0  0.4605116403870998 0.8041660810282256 0  0.53946238896911 0.6847056440044139 0  0.4846631400496339 0.7444444444444445 0  0.5405008713818347 0.6836931322354802 0  0.4605116403870998 0.6847228078606633 0  0.5572768961235196 0.643192240308799 0  0.46053761103089 0.6847056440044139 0  0.4594991275353449 0.6836931311526599 0  0.6847228078606633 0.7839328040573448 0  0.684705644004414 0.7839068334135562 0  0.8041660810282256 0.7839328040573447 0  0.6836931311493016 0.7849453169124578 0  0.8041832448844747 0.783906833413554 0  0.68369313223548 0.7039435730626096 0  0.805195756653417 0.7849453158262875 0  0.6847056440044141 0.7049820554753328 0  0.9029735447036096 0.7444444444444445 0  0.6847228078606633 0.7049560848315441 0  0.805195757738809 0.7039435719772094 0  0.8041660810282256 0.7049560848315441 0  0.8041832448844747 0.7049820554753349 0  0.9578164230213342 0.6948838683471341 0  0.9645772892192558 0.7062137009141434 0  0.9695236884064815 0.7184451175460498 0  0.972538971146615 0.7312896684428197 0  0.9725389711466151 0.7575992204460691 0  0.9695236884064815 0.7704437713428391 0  0.9645772892192558 0.7826751879747456 0  0.9578164230213342 0.7940050205417549 0  0.01437766570919127 0.09711967848259151 0  0.02854851642641832 0.09974531144948819 0  0.04161535472570586 0.1058251712658871 0  0.05275088139110013 0.1149743244732108 0  0.06125007411586489 0.1266135117968212 0  0.06657482449792251 0.1400058227212122 0  0.06643634307317195 0.1691277076584997 0  0.06071435336153361 0.1829418078690686 0  0.04134737123322858 0.3039103077764334 0  0.03416190609801732 0.2911362521989113 0  0.02925217947541549 0.2773267630846004 0  0.02676106927623143 0.2628837102534819 0  0.02676106927623143 0.2482274008576293 0  0.02925217947541547 0.2337843480265108 0  0.03416190609801727 0.2199748589121999 0  0.04134737123322851 0.2072008033346779 0  0.06071435387356935 0.328169304128914 0  0.06643634320569657 0.3419834039471998 0  0.06657482449792249 0.371105288389899 0  0.06125007411586481 0.3844975993142901 0  0.05275088139109994 0.3961367866379005 0  0.04161535472570563 0.4052859398452242 0  0.02854851642641818 0.411365799661623 0  0.01437766570919127 0.4139914326285196 0  0 0.4697526254167924 0  0 0.455563619650285 0  0 0.4413746138837777 0  0 0.4271856081172704 0  0.06095233986089402 0.4687284952262988 0  0.04995687430503332 0.4753797281664747 0  0.03809234373417287 0.4803165365228644 0  0.02562418374773841 0.4834284730529493 0  0.01283133446055119 0.4846459169037758 0  0.08372485599813187 0.4503967593658507 0  0.09753895276796982 0.4446747697099958 0  0.1123633055586467 0.4427231038764812 0  0.1271876590095525 0.4446747646950606 0  0.1410017577150834 0.45039674967774 0  0.1528641934757506 0.4594991149204779 0  0.161966560724962 0.471361549141524 0  0.1676885480442292 0.4851756468792086 0  0.1676885480443665 0.514824353120279 0  0.1619665607254926 0.528638450857557 0  0.1528641934768762 0.5405008850783964 0  0.1410017577169217 0.5496032503211987 0  0.1271876590121153 0.5553252353042526 0  0.1123633055618306 0.5572768961235188 0  0.09753895277155772 0.5553252302909656 0  0.08372485600180817 0.5496032406362719 0  0.0128313344605512 0.5153540830962242 0  0.0256241837477384 0.5165715269470507 0  0.03809234373417282 0.5196834634771356 0  0.04995687430503334 0.5246202718335253 0  0.06095233986089401
[...]
<PointData  Vectors="$u$"> 
<DataArray  type="Float64"  Name="$u$"  NumberOfComponents="3" format="ascii">3.6804138644045224e-03 2.7310886285003059e-02 0.0000000000000000e+00  3.5948891755773200e-03 2.7348238535734416e-02 0.0000000000000000e+00  3.5936331334409520e-03 2.7347166781279297e-02 0.0000000000000000e+00  3.3486029954583321e-04 2.7898178407364849e-02 0.0000000000000000e+00  -5.0223422450663220e-04 2.6940833439886847e-02 0.0000000000000000e+00  -5.0227793157804081e-04 2.6941280546642719e-02 0.0000000000000000e+00  -4.9288001594446939e-04 2.6916352995856142e-02 0.0000000000000000e+00  -4.1243698523003774e-05 2.5877504704188903e-05 0.0000000000000000e+00  1.5804815228231543e-05 4.4966267295876551e-04 0.0000000000000000e+00  3.4588148172849610e-04 5.8283278521996677e-04 0.0000000000000000e+00  3.5617904921798812e-04 5.6042363975041323e-04 0.0000000000000000e+00  3.5615086657399752e-04 5.6082056985952986e-04 0.0000000000000000e+00  -3.7454378433817411e-03 1.4584269310732951e-04 0.0000000000000000e+00  -3.7467564347767818e-03 1.4466720979977853e-04 0.0000000000000000e+00  -3.8369834237469732e-03 1.8585655887110833e-04 0.0000000000000000e+00  -7.4548794984851214e-03 1.3691125231424068e-03 0.0000000000000000e+00  -1.2388527964963428e-02 -4.6658141432710173e-03 0.0000000000000000e+00  -1.8694438461001581e-02 -4.6658589509342248e-03 0.0000000000000000e+00  -1.6612778712958649e-02 1.6297877125236587e-03 0.0000000000000000e+00  -1.6615083238065612e-02 1.6313113921413399e-03 0.0000000000000000e+00  -1.6523014925103774e-02 1.7212691892276200e-03 0.0000000000000000e+00  -1.6292208389325869e-02 1.3708850352617262e-02 0.0000000000000000e+00  -1.6579719640259363e-02 2.5790623306003589e-02 0.0000000000000000e+00  -1.6671922836199976e-02 2.5880275352367733e-02 0.0000000000000000e+00  -1.6669618488998308e-02 2.5881796592565457e-02 0.0000000000000000e+00  -1.8750599971644123e-02 3.2175000212885170e-02 0.0000000000000000e+00  -1.2447019945245871e-02 3.2174933443026035e-02 0.0000000000000000e+00  -7.5155011593867754e-03 2.6138160634916880e-02 0.0000000000000000e+00  -3.8964673665667772e-03 2.7313285517005650e-02 0.0000000000000000e+00  -3.8104945810217765e-03 2.7355560589264645e-02 0.0000000000000000e+00  -3.8092444540858278e-03 2.7354376384367725e-02 0.0000000000000000e+00  2.5809410042715704e-04 2.6936347415610538e-02 0.0000000000000000e+00  2.5811147326363590e-04 2.6936716292847829e-02 0.0000000000000000e+00  2.4766380476673211e-04 2.6914855458511220e-02 0.0000000000000000e+00  -8.1567426499651744e-05 2.7053773028659488e-02 0.0000000000000000e+00  -1.4033159762666275e-04 2.7473892123353834e-02 0.0000000000000000e+00  -9.1261657675095284e-05 2.7500000000000000e-02 0.0000000000000000e+00  -1.5329419158126111e-04 2.7500000000000000e-02 0.0000000000000000e+00  -1.0423268502873940e-04 2.7473566916862278e-02 0.0000000000000000e+00  1.2244936030424066e-02 3.2179270077444602e-02 0.0000000000000000e+00  1.8559276835806000e-02 3.2179326108734051e-02 0.0000000000000000e+00  1.6474939083021518e-02 2.5875100568105311e-02 0.0000000000000000e+00  1.6477251378398020e-02 2.5873572861504764e-02 0.0000000000000000e+00  1.6384816789229109e-02 2.5783458259886330e-02 0.0000000000000000e+00  1.6423157708065933e-02 1.7056155241003512e-03 0.0000000000000000e+00  1.6514928657340583e-02 1.6158263819973766e-03 0.0000000000000000e+00  1.6512631028617619e-02 1.6143066711798849e-03 0.0000000000000000e+00  1.8590619590624569e-02 -4.6701114538094312e-03 0.0000000000000000e+00  1.2295950588041669e-02 -4.6700476482776010e-03 0.0000000000000000e+00  3.7598184745488393e-03 1.8597930251031781e-04 0.0000000000000000e+00  3.6746307572145440e-03 1.4473504333183687e-04 0.0000000000000000e+00  3.6733870923973972e-03 1.4589909112008064e-04 0.0000000000000000e+00  4.3386256757985353e-04 -4.0179575685265589e-04 0.0000000000000000e+00  -4.1137881331255012e-04 5.6027753250985997e-04 0.0000000000000000e+00  -4.1138236920525704e-04 5.5980532471166199e-04 0.0000000000000000e+00  -3.9887367606192682e-04 5.8515456353571186e-04 0.0000000000000000e+00  -1.2240167184936925e-05 2.6253670665193764e-05 0.0000000000000000e+00  -6.1943374064669742e-05 0.0000000000000000e+00 0.0000000000000000e+00  0.0000000000000000e+00 0.0000000000000000e+00 0.0000000000000000e+00  -4.5457677832311380e-03 1.2448455332090980e-02 0.0000000000000000e+00  -4.5458815203163472e-03 1.2446983735780653e-02 0.0000000000000000e+00  -5.3681769611044839e-03 1.2513897434506181e-02 0.0000000000000000e+00  -4.5347952006696279e-03 1.2346293206190061e-02 0.0000000000000000e+00  -5.3685279235511215e-03 1.2513177575531598e-02 0.0000000000000000e+00  -9.4136059038699014e-05 5.2448773526720260e-05 0.0000000000000000e+00  -5.3616712095686907e-03 1.2459680778422560e-02 0.0000000000000000e+00  -9.7068603374727758e-05 5.2563933766284507e-05 0.0000000000000000e+00  -5.0640282327894855e-03 4.3800692396801727e-03 0.0000000000000000e+00  -9.7013491464492639e-05 5.2590433478801102e-05 0.0000000000000000e+00  -2.3650270675078350e-04 4.2745318105220562e-05 0.0000000000000000e+00  -2.3350322301595423e-04 4.3864070585912189e-05 0.0000000000000000e+00  -2.3343712519742539e-04 4.3827011839219003e-05 0.0000000000000000e+00  5.3679578115320842e-03 5.1407872057895555e-03 0.0000000000000000e+00  3.1797790651037971e-03 5.8292307011419010e-03 0.0000000000000000e+00  5.4159689245809380e-03 5.1518665051039974e-03 0.0000000000000000e+00  -5.4847928758878992e-03 5.1334979149715776e-03 0.0000000000000000e+00  5.4165931177647822e-03 5.1517319258633293e-03 0.0000000000000000e+00  -5.5316428781547380e-03 5.1495756277293329e-03 0.0000000000000000e+00  2.7474286065201246e-03 5.1757195231191240e-03 0.0000000000000000e+00  -5.5322368262108795e-03 5.1492969907360161e-03 0.0000000000000000e+00  2.7451678241992277e-03 5.1779429998915303e-03 0.0000000000000000e+00  -5.8095253866542176e-03 5.8802293262462451e-03 0.0000000000000000e+00  2.6069295896401106e-03 5.1059568118685490e-03 0.0000000000000000e+00  -2.8134871753693960e-03 5.1468253485302028e-03 0.0000000000000000e+00  4.2276962155950919e-04 1.1633114445046709e-03 0.0000000000000000e+00  -2.8111533147293253e-03 5.1495182580920734e-03 0.0000000000000000e+00  -2.6686020548654182e-03 5.0564649110287846e-03 0.0000000000000000e+00  5.2588832927087841e-03 1.2524482699986898e-02 0.0000000000000000e+00  5.2591238754051426e-03 1.2523762336050546e-02 0.0000000000000000e+00  4.4355177461607529e-03 1.2394314513264592e-02 0.0000000000000000e+00  5.2565350091019628e-03 1.2469830642582998e-02 0.0000000000000000e+00  4.4354851800653605e-03 1.2392902370187059e-02 0.0000000000000000e+00  1.8365493738536979e-04 4.1035649046152424e-05 0.0000000000000000e+00  4.4300217368775704e-03 1.2297538582436894e-02 0.0000000000000000e+00  1.8139177973119011e-04 4.2708150606106123e-05 0.0000000000000000e+00  7.7414255239750937e-04 1.9278395157948786e-03 0.0000000000000000e+00  1.8144906373927919e-04 4.2745482385360136e-05 0.0000000000000000e+00  4.1058568069148937e-05 5.0751163224609524e-05 0.0000000000000000e+00  4.3736920719513254e-05 5.2227654698371342e-05 0.0000000000000000e+00  4.3798538538128347e-05 5.2190462288368746e-05 0.0000000000000000e+00  1.1233287629670164e-03 1.3664520035082011e-02 0.0000000000000000e+00  -1.2833041009635616e-03 1.4777842691087836e-02 0.0000000000000000e+00  1.1925877423110849e-03 1.3640240894228977e-02 0.0000000000000000e+00  -1.5016165739587866e-02 1.3269583259316027e-02 0.0000000000000000e+00  1.1935351824327168e-03 1.3641019968395007e-02 0.0000000000000000e+00  -1.5101833097541081e-02 1.3245526222886153e-02 0.0000000000000000e+00  1.2158372625834643e-03 1.3900337564339000e-02 0.0000000000000000e+00  -1.5103052781803647e-02 1.3246243479776966e-02 0.0000000000000000e+00  1.2149427978499494e-03 1.3901126960864435e-02 0.0000000000000000e+00  -1.7620038361724575e-02 1.3797956569963162e-02 0.0000000000000000e+00  1.1497953884517598e-03 1.3875734611539811e-02 0.0000000000000000e+00  -1.5035412508833425e-02 1.4235051059957132e-02 0.0000000000000000e+00  -1.2557099058138320e-03 1.2764327657372020e-02 0.0000000000000000e+00  -1.5034362828853745e-02 1.4235301634675063e-02 0.0000000000000000e+00  -1.4959039810142481e-02 1.4230425239857663e-02 0.0000000000000000e+00  -1.9700876592206856e-04 2.7448925324540716e-02 0.0000000000000000e+00  -1.9708114181831950e-04 2.7448963300537598e-02 0.0000000000000000e+00  -3.3544614141416612e-04 2.7459095929442647e-02 0.0000000000000000e+00  -1.9351388369529731e-04 2.7449886004360425e-02 0.0000000000000000e+00  -3.3538246613365377e-04 2.7459137383704632e-02 0.0000000000000000e+00  -4.5935778238812511e-03 1.5167520436835290e-02 0.0000000000000000e+00  -3.3795387351110763e-04 2.7460917722710081e-02 0.0000000000000000e+00  -4.5952215098828799e-03 1.5063992106938113e-02 0.0000000000000000e+00  -4.9681050803886571e-03 2.3243211610978719e-02 0.0000000000000000e+00  -4.5953352452285543e-03 1.5062471738708059e-02 0.0000000000000000e+00  -5.4170488420033185e-03 1.5085054243382332e-02 0.0000000000000000e+00  -5.4232428077337037e-03 1.5029684249081909e-02 0.0000000000000000e+00  -5.4235850392404155e-03 1.5030414790053631e-02 0.0000000000000000e+00  2.9366201008271557e-04 2.1438464486999837e-02 0.0000000000000000e+00  2.9402136214705718e-04 2.1437802919419678e-02 0.0000000000000000e+00  -4.6592830608797734e-04 2.1437090137308712e-02 0.0000000000000000e+00  2.8680813022881227e-04 2.1387242538684181e-02 0.0000000000000000e+00  -4.6627131582652957e-04 2.1436427398896892e-02 0.0000000000000000e+00  3.1845237419286863e-04 6.1717064733985859e-03 0.0000000000000000e+00  -4.5962211291202416e-04 2.1385739985750336e-02 0.0000000000000000e+00  3.2465068149687163e-04 6.1276620114846031e-03 0.0000000000000000e+00  -2.0235151453585854e-03 1.3748616541063382e-02 0.0000000000000000e+00  3.2432060097800018e-04 6.1271130385221282e-03 0.0000000000000000e+00  -4.2629803325358210e-04 6.1710182263035760e-03 0.0000000000000000e+00  -4.3363394283860613e-04 6.1229428018503163e-03 0.0000000000000000e+00  -4.3400159574364359e-04 6.1235463984473963e-03 0.0000000000000000e+00  1.4817163052602025e-02 1.3242891072797369e-02 0.0000000000000000e+00  1.1025374744129067e-02 1.4545941343084833e-02 0.0000000000000000e+00  1.4909734711511547e-02 1.3213927087055056e-02 0.0000000000000000e+00  -1.3015121277648570e-03 1.3686327901274794e-02 0.0000000000000000e+00  1.4911074603249497e-02 1.3214789300972158e-02 0.0000000000000000e+00  -1.3709888287270853e-03 1.3664097827594507e-02 0.0000000000000000e+00  1.4950165671176083e-02 1.4235118634775886e-02 0.0000000000000000e+00  -1.3719498049557198e-03 1.3664793900448145e-02 0.0000000000000000e+00  1.4948943974900505e-02 1.4236035948661442e-02 0.0000000000000000e+00  -3.0651889477342140e-03 1.3795666077650901e-02 0.0000000000000000e+00  1.4864405910759299e-02 1.4204437722100258e-02 0.0000000000000000e+00  -1.3209201055870705e-03 1.3906263023617603e-02 0.0000000000000000e+00  1.1083454681330936e-02 1.2899692863495720e-02 0.0000000000000000e+00  -1.3201749057010349e-03 1.3906892047907514e-02 0.0000000000000000e+00  -1.2642666023970036e-03 1.3888020636715730e-02 0.0000000000000000e+00  2.4406393435217623e-03 2.2525392414829870e-02 0.0000000000000000e+00  2.9184076806528284e-04 2.6347282524410365e-02 0.0000000000000000e+00  2.5698182921265423e-03 2.2434384510336924e-02 0.0000000000000000e+00  -2.6211459680691497e-03 2.2526765266593137e-02 0.0000000000000000e+00  2.5719174961858419e-03 2.2436978578007315e-02 0.0000000000000000e+00  -2.7497689305254190e-03 2.2452787457394558e-02 0.0000000000000000e+00  5.3775256525270248e-03 2.2427182401479204e-02 0.0000000000000000e+00  -2.7518338269023369e-03 2.2454957065350823e-02 0.0000000000000000e+00  5.3769324702987124e-03 2.2427030824655657e-02 0.0000000000000000e+00  -5.8395757414326059e-03 2.1680469721649189e-02 0.0000000000000000e+00  5.3286892369990672e-03 2.2437526263398958e-02 0.0000000000000000e+00  -5.5768156414255235e-03 2.2430505821115006e-02 0.0000000000000000e+00  3.1335303352330178e-03 2.1739966471143093e-02 0.0000000000000000e+00  -5.5761113912790004e-03 2.2430226024728581e-02 0.0000000000000000e+00  -5.5239905922646647e-03 2.2446704879624482e-02 0.0000000000000000e+00  9.0853799734307795e-05 2.7458493638085484e-02 0.0000000000000000e+00  9.0787332762646265e-05 2.7458536957132195e-02 0.0000000000000000e+00  -4.8652712955131098e-05 2.7449145726659754e-02 0.0000000000000000e+00  9.3410658200373940e-05 2.7460663228275131e-02 0.0000000000000000e+00  -4.8619305997691592e-05 2.7449154096575407e-02 0.0000000000000000e+00  5.2311323966767282e-03 1.5100591171474810e-02 0.0000000000000000e+00  -5.0968543407142306e-05 2.7447955249022479e-02 0.0000000000000000e+00  5.2381809632866799e-03 1.5048200427808994e-02 0.0000000000000000e+00  7.1017698717257738e-04 2.5530645876228188e-02 0.0000000000000000e+00  5.2378237273355745e-03 1.5047502485719346e-02 0.0000000000000000e+00  4.4131900268643007e-03 1.5137552148506962e-02 0.0000000000000000e+00  4.4222858621616977e-03 1.5038611026505453e-02 0.0000000000000000e+00  4.4223782704138825e-03 1.5040029254817460e-02 0.0000000000000000e+00  2.8162549450205300e-03 2.7752751109198434e-02 0.0000000000000000e+00  2.0852295862593771e-03 2.7983508231941154e-02 0.0000000000000000e+00  1.4112901543677421e-03 2.8073517502804849e-02 0.0000000000000000e+00  8.2184503070956161e-04 2.8027323024494517e-02 0.0000000000000000e+00  -3.8980197870340721e-05 2.7713112843155599e-02 0.0000000000000000e+00  -3.0190789811316182e-04 2.7493991957525433e-02 0.0000000000000000e+00  -4.6003934265411903e-04 2.7277855166208252e-02 0.0000000000000000e+00  -5.2202001560264536e-04 2.7080557131853956e-02 0.0000000000000000e+00  -3.9910118602636259e-05 4.3826351636232241e-05 0.0000000000000000e+00  -4.6849828296051422e-05 6.8195739274563678e-05 0.0000000000000000e+00  -5.1161930871673736e-05 1.0855980769813055e-04 0.0000000000000000e+00  -5.7314485185026182e-05 1.6193422960768250e-04 0.0000000000000000e+00  -5.4529869413382080e-05 2.3945078957210094e-04 0.0000000000000000e+00  -3.0232467219590668e-05 3.3836956645097758e-04 0.0000000000000000e+00  1.0686144048527867e-04 5.7255105507037591e-04 0.0000000000000000e+00  2.3383431285623965e-04 6.3194725548767062e-04 0.0000000000000000e+00  -2.8837978472582740e-03 -2.8579423203871894e-04 0.0000000000000000e+00  -2.0809522516474295e-03 -5.1946078862682066e-04 0.0000000000000000e+00  -1.3564656343047858e-03 -5.7162140624175076e-04 0.0000000000000000e+00  -7.4375189959691136e-04 -4.8304278573701407e-04 0.0000000000000000e+00  -2.6449751044159225e-04 -3.0461802383178528e-04 0.0000000000000000e+00  7.9577256378742238e-05 -7.1722936799307061e-05 0.0000000000000000e+00  2.8720776842354446e-04 1.7474228098306253e-04 0.0000000000000000e+00  3.7267771613437117e-04 3.9850041971070611e-04 0.0000000000000000e+00  -4.8736833177521173e-03 7.4607143298992338e-04 0.0000000000000000e+00  -6.1347386257442904e-03 1.1754859056751380e-03 0.0000000000000000e+00  -8.7064454684306989e-03 1.2384092718188528e-03 0.0000000000000000e+00  -9.8720896848984996e-03 7.7709827435788357e-04 0.0000000000000000e+00  -1.0894840864908478e-02 2.4997305611325097e-05 0.0000000000000000e+00  -1.1704054091860441e-02 -9.6568287027597806e-04 0.0000000000000000e+00  -1.2243501866632714e-02 -2.1279414174580295e-03 0.0000000000000000e+00  -1.2476955765498305e-02 -3.3877714650130709e-03 0.0000000000000000e+00  -1.7433317238940760e-02 -4.6658849241999426e-03 0.0000000000000000e+00  -1.6172114903098084e-02 -4.6658716298100056e-03 0.0000000000000000e+00  -1.4910986098559747e-02 -4.6658133252304810e-03 0.0000000000000000e+00  -1.3649756424000120e-02 -4.6658507957699318e-03 0.0000000000000000e+00  -1.7342666947845888e-02 7.5149962384502933e-04 0.0000000000000000e+00  -1.7933541518002350e-02 -2.2585204750772496e-04 0.0000000000000000e+00  -1.8372256452691863e-02 -1.2802243672356657e-03 0.0000000000000000e+00  -1.8648840071457003e-02 -2.3883867701780005e-03 0.0000000000000000e+00  -1.8757034655675849e-02 -3.5254150025364902e-03 0.0000000000000000e+00  -1.5715261940181295e-02 2.7770491025175042e-03 0.0000000000000000e+00  -1.5211206105739505e-02 4.0135779343330015e-03 0.0000000000000000e+00  -1.5034065576375519e-02 5.3565762598279092e-03 0.0000000000000000e+00  -1.5210170663687704e-02 6.7260858263533509e-03 0.0000000000000000e+00  -1.5690330555633097e-02 8.0640846330788229e-03 0.0000000000000000e+00  -1.6363042358136536e-02 9.2468687848267228e-03 0.0000000000000000e+00  -1.6821142282010031e-02 1.0351708415351992e-02 0.0000000000000000e+00  -1.6412084449360032e-02 1.1908793402221148e-02 0.0000000000000000e+00  -1.6518991819335999e-02 1.5585366542512660e-02 0.0000000000000000e+00  -1.6701245057643841e-02 1.7175734520353966e-02 0.0000000000000000e+00  -1.6440152582874918e-02 1.8270600808199994e-02 0.0000000000000000e+00  -1.5745840914508147e-02 1.9449796570645932e-02 0.0000000000000000e+00  -1.5270744501574243e-02 2.0787864345283312e-02 0.0000000000000000e+00  -1.5092676790695425e-02 2.2158066140247890e-02 0.0000000000000000e+00  -1.5267886935067190e-02 2.3498599910477220e-02 0.0000000000000000e+00  -1.5773405909646116e-02 2.4734751666055259e-02 0.0000000000000000e+00  -1.8813171453841971e-02 3.1034971606813240e-02 0.0000000000000000e+00  -1.8704992408724141e-02 2.9898380961421885e-02 0.0000000000000000e+00  -1.8428558211790975e-02 2.8790638090951386e-02 0.0000000000000000e+00  -1.7989944081018738e-02 2.7736631861772526e-02 0.0000000000000000e+00  -1.7399322445614686e-02 2.6759712659780645e-02 0.0000000000000000e+00  -1.3707853533007861e-02 3.2174953956382625e-02 0.0000000000000000e+00  -1.4968528188766459e-02 3.2174975332406569e-02 0.0000000000000000e+00  -1.6229236383418017e-02 3.2175001056107294e-02 0.0000000000000000e+00  -1.7489939840683630e-02 3.2175019529343624e-02 0.0000000000000000e+00  -1.2535594367666015e-02 3.0897385833887864e-02 0.0000000000000000e+00  -1.2301876645740638e-02 2.9638172160607348e-02 0.0000000000000000e+00  -1.1762922103855718e-02 2.8475850878227030e-02 0.0000000000000000e+00  -1.0953621362917996e-02 2.7486102230368733e-02 0.0000000000000000e+00  -9.9313532349128621e-03 2.6733946880170126e-02 0.0000000000000000e+00  -8.7644052767858645e-03 2.6272556660764460e-02 0.0000000000000000e+00  -6.1938257364617961e-03 2.6333549956900983e-02 0.0000000000000000e+00  -4.9388652078194671e-03 2.6759649846900348e-02 0.0000000000000000e+00  2.7648181495889786e-04 2.7094675502303787e-02 0.0000000000000000e+00  1.9350558826493618e-04 2.7315679245837887e-02 0.0000000000000000e+00  -1.0568998963456587e-05 2.7560877430624915e-02 0.0000000000000000e+00  -3.4702603145658604e-04 2.7791524462693302e-02 0.0000000000000000e+00  -8.2495515133897688e-04 2.7973772486829238e-02 0.0000000000000000e+00  -1.4268203263397697e-03 2.8055415827230014e-02 0.0000000000000000e+00  -2.1510966268869069e-03 2.8012331426285980e-02 0.0000000000000000e+00  -2.9505056138353631e-03 2.7782293897854200e-02 0.0000000000000000e+00  1.3577919575662482e-04 2.6864879741767118e-02 0.0000000000000000e+00  6.1605925832041585e-06 2.6925901380239151e-02 0.0000000000000000e+00  -1.3120780944604314e-04 2.7161781646225618e-02 0.0000000000000000e+00  -1.5113224403814777e-04 2.7262543799566056e-02 0.0000000000000000e+00  -1.5481822891725858e-04 2.7333931903066572e-02 0.0000000000000000e+00  -1.5365542263902045e-04 2.7393818797517733e-02 0.0000000000000000e+00  -1.4360452105681738e-04 2.7430539532843055e-02 0.0000000000000000e+00  -1.4002861573792299e-04 2.7455866243402120e-02 0.0000000000000000e+00  -9.1489241425209933e-05 2.7491330834766826e-02 0.0000000000000000e+00  -9.2779952120163446e-05 2.7483755921749297e-02 0.0000000000000000e+00  -9.5397857043303156e-05 2.7477345558074236e-02 0.0000000000000000e+00  -1.0019426577262697e-04 2.7473618434439150e-02 0.0000000000000000e+00  -1.0884979228875519e-04 2.7472423035177735e-02 0.0000000000000000e+00  -1.2275065627183698e-04 2.7473555523930375e-02 0.0000000000000000e+00  -1.5033466864274801e-04 2.7500000000000000e-02 0.0000000000000000e+00  -1.4589679949393418