<?xml version="1.0"?>
<VTKFile type="UnstructuredGrid"  version="0.1"  >
<UnstructuredGrid>
<Piece  NumberOfPoints="4855" NumberOfCells="8780">
<Points>
<DataArray  type="Float64"  NumberOfComponents="3"  format="ascii">0.9483880164242298 0.6836931311526558 0  0.9494264999197789 0.6847056440044139 0  0.9494005292759887 0.6847228078606633 0  0.9735520289385229 0.7444444444444445 0  0.9494005292759886 0.8041660810282256 0  0.94942649991978 0.8041832448844759 0  0.9483880175070514 0.8051957566534116 0  3.131175874138137e-16 0.09811450876034808 0  0.06838800723463068 0.1543033514199101 0  0.05161198249294494 0.1948042433465922 0  0.0505735000802211 0.1958167551155251 0  0.05059947072401128 0.1958339189717744 0  0.0505994707240113 0.3152771921393367 0  0.05057350008021998 0.315294355995587 0  0.05161198357913653 0.3163068688507105 0  0.06838800723463068 0.356807759691201 0  3.252606517456513e-16 0.4129966023507631 0  -1.795438797635995e-16 0.4839416311832997 0  0.07083274769489223 0.4605116403870998 0  0.07084991155114129 0.4605376110308903 0  0.07186242331670639 0.4594991286215342 0  0.1696402113702762 0.5 0  0.07186242332008326 0.5405008713818427 0  0.0708499115511413 0.5394623889691096 0  0.07083274769489219 0.5394883596129002 0  -1.925543058334256e-16 0.5160583688167003 0  1.484923295436147e-15 0.5870033976492365 0  0.06838800723463068 0.643192240308799 0  0.05161198249294541 0.6836931322354806 0  0.05057350008022109 0.6847056440044139 0  0.0505994707240113 0.6847228078606633 0  0.0505994707240113 0.8041660810282256 0  0.05057350008021999 0.804183244884476 0  0.05161198249294764 0.8051957566534106 0  0.06838800723463068 0.84569664858009 0  1.485790657174135e-15 0.9018854912396524 0  0 1 0  1 1 0  0.9999999999999987 0.9018854912396523 0  1.000000000000001 0.5870033976492375 0  1 0.5160583688167003 0  0.9291672523051078 0.5394883596129003 0  0.9291500884488585 0.5394623889691117 0  0.9281375755937461 0.5405008724680134 0  0.9281375755937372 0.4594991275319777 0  0.9291500884488586 0.4605376110308884 0  0.9291672523051077 0.4605116403870997 0  1 0.4839416311832997 0  0.9999999999999987 0.4129966023507635 0  0.948388017507054 0.31630686776452 0  0.94942649991978 0.3152943559955871 0  0.9494005292759886 0.3152771921393367 0  0.9735520289385229 0.2555555555555555 0  0.9494005292759888 0.1958339189717744 0  0.9494264999197789 0.1958167551155251 0  0.9483880164208631 0.1948042422604003 0  1.000000000000001 0.09811450876034861 0  1 0 0  0 0 0  0.1958339189717744 0.2950439151684559 0  0.1958167551155252 0.2950179445246672 0  0.3152771921393367 0.2950439151684557 0  0.1948042433481841 0.2960564269357975 0  0.3152943559955858 0.2950179445246651 0  0.1948042422604031 0.2150546830875326 0  0.3163068677645244 0.2960564269373949 0  0.1958167551155251 0.2160931665864439 0  0.4140846558147206 0.2555555555555555 0  0.1958339189717744 0.2160671959426553 0  0.3163068688489276 0.215054683089313 0  0.3152771921393367 0.2160671959426553 0  0.3152943559955858 0.2160931665864459 0  0.5405008724680257 0.3163068688507107 0  0.5572768961235196 0.356807759691201 0  0.5394623889691089 0.3152943559955871 0  0.459499128618165 0.3163068677645201 0  0.5394883596129003 0.3152771921393367 0  0.4605376110308911 0.3152943559955871 0  0.5394883596129001 0.1958339189717744 0  0.4605116403870998 0.3152771921393367 0  0.53946238896911 0.1958167551155251 0  0.4846631400496339 0.2555555555555555 0  0.5405008724680251 0.1948042422604009 0  0.4605116403870998 0.1958339189717744 0  0.5572768961235196 0.1543033514199101 0  0.46053761103089 0.1958167551155251 0  0.4594991286269881 0.1948042433554141 0  0.6847228078606633 0.2950439151684559 0  0.684705644004414 0.2950179445246672 0  0.8041660810282256 0.2950439151684557 0  0.683693131164073 0.2960564280087975 0  0.8041832448844747 0.2950179445246651 0  0.6836931322354718 0.2150546841737125 0  0.8051957566534156 0.2960564269373971 0  0.6847056440044141 0.2160931665864439 0  0.9029735447036096 0.2555555555555555 0  0.6847228078606632 0.2160671959426553 0  0.8051957577274008 0.2150546830997286 0  0.8041660810282256 0.2160671959426553 0  0.8041832448844747 0.2160931665864459 0  0.2960564280235811 0.560751313295155 0  0.3128324516790751 0.6012522041356455 0  0.2950179445246645 0.5597388004400315 0  0.2150546830875235 0.5607513132951615 0  0.2950439151684557 0.5597216365837812 0  0.2160931665864466 0.5597388004400314 0  0.2950439151684558 0.4402783634162188 0  0.2160671959426553 0.5597216365837812 0  0.2950179445246656 0.4402611995599696 0  0.2402186956051895 0.5 0  0.29605642693739 0.439248687791036 0  0.2160671959426553 0.4402783634162189 0  0.3128324516790751 0.3987477958643545 0  0.2160931665864455 0.4402611995599696 0  0.2150546830875296 0.4392486867048446 0  0.1958339189717743 0.7839328040573448 0  0.1958167551155252 0.7839068334135562 0  0.3152771921393367 0.7839328040573447 0  0.1948042422604028 0.7849453169124678 0  0.3152943559955858 0.783906833413554 0  0.1948042433465913 0.7039435730626098 0  0.3163068677645284 0.7849453158262878 0  0.1958167551155251 0.7049820554753328 0  0.4140846558147206 0.7444444444444445 0  0.1958339189717744 0.7049560848315441 0  0.3163068688486237 0.7039435719785058 0  0.3152771921393367 0.7049560848315441 0  0.3152943559955858 0.7049820554753349 0  0.4402783634162188 0.5394883596129003 0  0.4402611995599696 0.5394623889691117 0  0.5597216365837812 0.5394883596129002 0  0.4392486867048468 0.5405008724680237 0  0.5597388004400302 0.5394623889691096 0  0.4392486877998708 0.4594991286270004 0  0.5607513122089726 0.540500871381843 0  0.4402611995599696 0.4605376110308884 0  0.6585291002591651 0.5 0  0.4402783634162188 0.4605116403870998 0  0.5607513121946796 0.45949912863245 0  0.5597216365837812 0.4605116403870998 0  0.5597388004400302 0.4605376110308904 0  0.78494531690701 0.5607513132896949 0  0.8017213405679641 0.6012522041356455 0  0.7839068334135535 0.5597388004400315 0  0.7039435730626069 0.5607513122089671 0  0.7839328040573448 0.5597216365837812 0  0.7049820554753355 0.5597388004400314 0  0.7839328040573448 0.4402783634162188 0  0.7049560848315441 0.5597216365837812 0  0.7839068334135545 0.4402611995599696 0  0.7291075844940784 0.5 0  0.784945315826279 0.4392486877910359 0  0.7049560848315444 0.4402783634162188 0  0.8017213405679641 0.3987477958643545 0  0.7049820554753344 0.4402611995599696 0  0.7039435719764182 0.4392486867048443 0  0.5405008724625655 0.8051957577341393 0  0.5572768961235196 0.84569664858009 0  0.539462388969109 0.804183244884476 0  0.4594991286181648 0.8051957566534091 0  0.5394883596129003 0.8041660810282256 0  0.4605376110308911 0.804183244884476 0  0.5394883596129003 0.6847228078606633 0  0.4605116403870998 0.8041660810282256 0  0.53946238896911 0.6847056440044139 0  0.4846631400496339 0.7444444444444445 0  0.5405008713818347 0.6836931322354802 0  0.4605116403870998 0.6847228078606633 0  0.5572768961235196 0.643192240308799 0  0.46053761103089 0.6847056440044139 0  0.4594991275353449 0.6836931311526599 0  0.6847228078606633 0.7839328040573448 0  0.684705644004414 0.7839068334135562 0  0.8041660810282256 0.7839328040573447 0  0.6836931311493016 0.7849453169124578 0  0.8041832448844747 0.783906833413554 0  0.68369313223548 0.7039435730626096 0  0.805195756653417 0.7849453158262875 0  0.6847056440044141 0.7049820554753328 0  0.9029735447036096 0.7444444444444445 0  0.6847228078606633 0.7049560848315441 0  0.805195757738809 0.7039435719772094 0  0.8041660810282256 0.7049560848315441 0  0.8041832448844747 0.7049820554753349 0  0.9578164230213342 0.6948838683471341 0  0.9645772892192558 0.7062137009141434 0  0.9695236884064815 0.7184451175460498 0  0.972538971146615 0.7312896684428197 0  0.9725389711466151 0.7575992204460691 0  0.9695236884064815 0.7704437713428391 0  0.9645772892192558 0.7826751879747456 0  0.9578164230213342 0.7940050205417549 0  0.01437766570919127 0.09711967848259151 0  0.02854851642641832 0.09974531144948819 0  0.04161535472570586 0.1058251712658871 0  0.05275088139110013 0.1149743244732108 0  0.06125007411586489 0.1266135117968212 0  0.06657482449792251 0.1400058227212122 0  0.06643634307317195 0.1691277076584997 0  0.06071435336153361 0.1829418078690686 0  0.04134737123322858 0.3039103077764334 0  0.03416190609801732 0.2911362521989113 0  0.02925217947541549 0.2773267630846004 0  0.02676106927623143 0.2628837102534819 0  0.02676106927623143 0.2482274008576293 0  0.02925217947541547 0.2337843480265108 0  0.03416190609801727 0.2199748589121999 0  0.04134737123322851 0.2072008033346779 0  0.06071435387356935 0.328169304128914 0  0.06643634320569657 0.3419834039471998 0  0.06657482449792249 0.371105288389899 0  0.06125007411586481 0.3844975993142901 0  0.05275088139109994 0.3961367866379005 0  0.04161535472570563 0.4052859398452242 0  0.02854851642641818 0.411365799661623 0  0.01437766570919127 0.4139914326285196 0  0 0.4697526254167924 0  0 0.455563619650285 0  0 0.4413746138837777 0  0 0.4271856081172704 0  0.06095233986089402 0.4687284952262988 0  0.04995687430503332 0.4753797281664747 0  0.03809234373417287 0.4803165365228644 0  0.02562418374773841 0.4834284730529493 0  0.01283133446055119 0.4846459169037758 0  0.08372485599813187 0.4503967593658507 0  0.09753895276796982 0.4446747697099958 0  0.1123633055586467 0.4427231038764812 0  0.1271876590095525 0.4446747646950606 0  0.1410017577150834 0.45039674967774 0  0.1528641934757506 0.4594991149204779 0  0.161966560724962 0.471361549141524 0  0.1676885480442292 0.4851756468792086 0  0.1676885480443665 0.514824353120279 0  0.1619665607254926 0.528638450857557 0  0.1528641934768762 0.5405008850783964 0  0.1410017577169217 0.5496032503211987 0  0.1271876590121153 0.5553252353042526 0  0.1123633055618306 0.5572768961235188 0  0.09753895277155772 0.5553252302909656 0  0.08372485600180817 0.5496032406362719 0  0.0128313344605512 0.5153540830962242 0  0.0256241837477384 0.5165715269470507 0  0.03809234373417282 0.5196834634771356 0  0.04995687430503334 0.5246202718335253 0  0.06095233986089401
[...]
<PointData  Vectors="$u$"> 
<DataArray  type="Float64"  Name="$u$"  NumberOfComponents="3" format="ascii">1.9137290369001787e-03 1.3479731091569150e-02 0.0000000000000000e+00  1.8711712904535447e-03 1.3502562776102690e-02 0.0000000000000000e+00  1.8706093058365970e-03 1.3501845798114245e-02 0.0000000000000000e+00  2.4507608311408137e-04 1.3789925242471255e-02 0.0000000000000000e+00  -1.8937143335388205e-04 1.3278556485856385e-02 0.0000000000000000e+00  -1.8939750965193071e-04 1.3278707174349549e-02 0.0000000000000000e+00  -1.8340414423265048e-04 1.3267698866541326e-02 0.0000000000000000e+00  -3.3367133748656872e-05 1.8061288979616941e-05 0.0000000000000000e+00  3.8780383676418213e-06 3.4508661947135988e-04 0.0000000000000000e+00  2.3691125394079989e-04 4.8017793040577730e-04 0.0000000000000000e+00  2.4302894787312150e-04 4.6979215933196241e-04 0.0000000000000000e+00  2.4300758635492002e-04 4.6993271708720868e-04 0.0000000000000000e+00  -1.8214932352726128e-03 2.4576157133563857e-04 0.0000000000000000e+00  -1.8220656543873493e-03 2.4502102416450628e-04 0.0000000000000000e+00  -1.8649349912012506e-03 2.6896061876984862e-04 0.0000000000000000e+00  -3.6330222972463101e-03 8.9244996407874459e-04 0.0000000000000000e+00  -6.0085033300837616e-03 -2.0210895482698612e-03 0.0000000000000000e+00  -9.0802796510958839e-03 -2.0211575580408397e-03 0.0000000000000000e+00  -8.0666678816590197e-03 1.0455585705065708e-03 0.0000000000000000e+00  -8.0677896889407782e-03 1.0463003065198759e-03 0.0000000000000000e+00  -8.0229678075482962e-03 1.0900995519163455e-03 0.0000000000000000e+00  -8.2008569959541311e-03 6.8580754784152006e-03 0.0000000000000000e+00  -8.0507068945644238e-03 1.2657703262556930e-02 0.0000000000000000e+00  -8.0957166586172399e-03 1.2701548611484129e-02 0.0000000000000000e+00  -8.0945912611576892e-03 1.2702291799100044e-02 0.0000000000000000e+00  -9.1114205636323685e-03 1.5778675097152656e-02 0.0000000000000000e+00  -6.0299297722143600e-03 1.5778605740760114e-02 0.0000000000000000e+00  -3.6473937194691363e-03 1.2855635122571468e-02 0.0000000000000000e+00  -1.8699507642235289e-03 1.3482291566559066e-02 0.0000000000000000e+00  -1.8273884377792067e-03 1.3506510232990548e-02 0.0000000000000000e+00  -1.8268186514283486e-03 1.3505771617353349e-02 0.0000000000000000e+00  2.2963919486842192e-04 1.3281322896401116e-02 0.0000000000000000e+00  2.2965869072234609e-04 1.3281458833888152e-02 0.0000000000000000e+00  2.2353939127480477e-04 1.3271236793047233e-02 0.0000000000000000e+00  -7.4070180759957237e-06 1.3407785390544477e-02 0.0000000000000000e+00  -4.3456356475357864e-05 1.3731833752342113e-02 0.0000000000000000e+00  -4.0970802998405183e-06 1.3750000000000000e-02 0.0000000000000000e+00  4.7381607884013369e-05 1.3750000000000000e-02 0.0000000000000000e+00  8.6763807322631201e-05 1.3731543217205409e-02 0.0000000000000000e+00  6.0650576390935034e-03 1.5775566565677510e-02 0.0000000000000000e+00  9.1422354195160767e-03 1.5775640300765437e-02 0.0000000000000000e+00  8.1268421316509649e-03 1.2703445823966807e-02 0.0000000000000000e+00  8.1279668661359116e-03 1.2702702398197022e-02 0.0000000000000000e+00  8.0830300546292869e-03 1.2658812801958777e-02 0.0000000000000000e+00  8.0774442157979798e-03 1.0835219715586188e-03 0.0000000000000000e+00  8.1222864717366249e-03 1.0396584082240090e-03 0.0000000000000000e+00  8.1211639176045885e-03 1.0389160798380309e-03 0.0000000000000000e+00  9.1364771313107562e-03 -2.0329571683106434e-03 0.0000000000000000e+00  6.0595695183793844e-03 -2.0328752488470792e-03 0.0000000000000000e+00  1.9080059383496419e-03 2.6511260840900668e-04 0.0000000000000000e+00  1.8657765189666606e-03 2.4179695704719821e-04 0.0000000000000000e+00  1.8652145236977228e-03 2.4251945951899557e-04 0.0000000000000000e+00  2.5203470549286421e-04 -3.6968981256882216e-05 0.0000000000000000e+00  -1.7323319134050853e-04 4.6669108280283450e-04 0.0000000000000000e+00  -1.7324829205558163e-04 4.6654981864199563e-04 0.0000000000000000e+00  -1.6599931232432101e-04 4.7734007094650549e-04 0.0000000000000000e+00  9.8954173465132437e-05 1.8056155147797683e-05 0.0000000000000000e+00  5.9448433918039206e-05 0.0000000000000000e+00 0.0000000000000000e+00  0.0000000000000000e+00 0.0000000000000000e+00 0.0000000000000000e+00  -2.2039618348759739e-03 6.2673174462448628e-03 0.0000000000000000e+00  -2.2038972506064959e-03 6.2670644956192142e-03 0.0000000000000000e+00  -2.7797459047836921e-03 6.1884481742857716e-03 0.0000000000000000e+00  -2.2003530078522539e-03 6.2405414527736567e-03 0.0000000000000000e+00  -2.7798548630960100e-03 6.1882879433487817e-03 0.0000000000000000e+00  -8.1078811906169031e-05 2.9576289713174904e-05 0.0000000000000000e+00  -2.7813134973884981e-03 6.1681366371297138e-03 0.0000000000000000e+00  -8.3351216362892780e-05 2.9460727439562382e-05 0.0000000000000000e+00  -2.5007139232117843e-03 1.5784117355668612e-03 0.0000000000000000e+00  -8.3310297082886747e-05 2.9478791969923189e-05 0.0000000000000000e+00  -1.9956451389383054e-04 1.8028445572814292e-05 0.0000000000000000e+00  -1.9673576845826197e-04 1.9180165259016987e-05 0.0000000000000000e+00  -1.9667173931389129e-04 1.9143597138324738e-05 0.0000000000000000e+00  2.8248964617014170e-03 2.1997547839712386e-03 0.0000000000000000e+00  1.6844413278390834e-03 2.4615518009923165e-03 0.0000000000000000e+00  2.8470143632985784e-03 2.2059081729522093e-03 0.0000000000000000e+00  -2.7847849613298753e-03 2.1903104403062528e-03 0.0000000000000000e+00  2.8471888750307771e-03 2.2059345420531373e-03 0.0000000000000000e+00  -2.8056985628393356e-03 2.1984160531824102e-03 0.0000000000000000e+00  1.1190688224250989e-03 2.2319277217883234e-03 0.0000000000000000e+00  -2.8058519153249871e-03 2.1983891824802816e-03 0.0000000000000000e+00  1.1184070223491820e-03 2.2328883564246170e-03 0.0000000000000000e+00  -2.6467345811730767e-03 2.7269643874911309e-03 0.0000000000000000e+00  1.0783339264774452e-03 2.1963390834338200e-03 0.0000000000000000e+00  -1.0434654459027754e-03 2.2236183035894614e-03 0.0000000000000000e+00  3.1511645261427895e-04 9.1587317791049698e-04 0.0000000000000000e+00  -1.0427914470877225e-03 2.2245938568137701e-03 0.0000000000000000e+00  -1.0022264070362631e-03 2.1877212975360489e-03 0.0000000000000000e+00  2.8241838323302361e-03 6.1936314137203529e-03 0.0000000000000000e+00  2.8242804514977170e-03 6.1934695799664499e-03 0.0000000000000000e+00  2.2491596203282347e-03 6.2693766493541287e-03 0.0000000000000000e+00  2.8267164826639951e-03 6.1725868273157488e-03 0.0000000000000000e+00  2.2490744161210207e-03 6.2691495480553068e-03 0.0000000000000000e+00  2.6617719841674959e-04 1.8165528516908016e-05 0.0000000000000000e+00  2.2461960541438797e-03 6.2443111824811697e-03 0.0000000000000000e+00  2.6332974438799702e-04 1.9172730139402347e-05 0.0000000000000000e+00  2.4424722940554887e-04 1.1523645924023491e-03 0.0000000000000000e+00  2.6339320383426761e-04 1.9208385115887409e-05 0.0000000000000000e+00  1.4740550190519224e-04 2.9183687072515213e-05 0.0000000000000000e+00  1.4981321885004694e-04 2.9755270967488951e-05 0.0000000000000000e+00  1.4986406006012776e-04 2.9728176292801237e-05 0.0000000000000000e+00  8.3273187491763635e-04 6.7757660934967389e-03 0.0000000000000000e+00  -5.0269248332975036e-04 7.3838297383475721e-03 0.0000000000000000e+00  8.6795782199639547e-04 6.7622722310985194e-03 0.0000000000000000e+00  -7.3418072790052144e-03 6.6521477237176767e-03 0.0000000000000000e+00  8.6838522177050902e-04 6.7627728255510704e-03 0.0000000000000000e+00  -7.3818548493294906e-03 6.6444076194726882e-03 0.0000000000000000e+00  8.7678247021372754e-04 6.9770496356809236e-03 0.0000000000000000e+00  -7.3823282371486155e-03 6.6447654158126998e-03 0.0000000000000000e+00  8.7635839521178370e-04 6.9775517733832552e-03 0.0000000000000000e+00  -8.4450685183145406e-03 6.8758536495346105e-03 0.0000000000000000e+00  8.4166524472424847e-04 6.9634747727348525e-03 0.0000000000000000e+00  -7.3564214137054364e-03 7.0839479721519572e-03 0.0000000000000000e+00  -4.9917437879730788e-04 6.3491581726083874e-03 0.0000000000000000e+00  -7.3560127680152403e-03 7.0842428595128152e-03 0.0000000000000000e+00  -7.3199705976541201e-03 7.0788348851187136e-03 0.0000000000000000e+00  -9.3711714773573403e-05 1.3720032938497191e-02 0.0000000000000000e+00  -9.3761467826903924e-05 1.3720056798562500e-02 0.0000000000000000e+00  -2.0684906676258187e-04 1.3730659536452357e-02 0.0000000000000000e+00  -9.1185859446073190e-05 1.3720285503913944e-02 0.0000000000000000e+00  -2.0678322789235444e-04 1.3730696092640505e-02 0.0000000000000000e+00  -2.2094847131831278e-03 7.4874397462606820e-03 0.0000000000000000e+00  -2.0980731355224852e-04 1.3731685389064474e-02 0.0000000000000000e+00  -2.2122205698122100e-03 7.4599097696620544e-03 0.0000000000000000e+00  -2.4547203093484710e-03 1.2131321680531460e-02 0.0000000000000000e+00  -2.2123063736907088e-03 7.4596419471075065e-03 0.0000000000000000e+00  -2.7883895924936380e-03 7.5667888054083083e-03 0.0000000000000000e+00  -2.7866609253266940e-03 7.5460409299889473e-03 0.0000000000000000e+00  -2.7867702129869653e-03 7.5462037257014924e-03 0.0000000000000000e+00  2.8773659381807622e-04 1.1057963277733522e-02 0.0000000000000000e+00  2.8768726706008277e-04 1.1057915422944936e-02 0.0000000000000000e+00  -2.3956492782482494e-04 1.1064825185544429e-02 0.0000000000000000e+00  2.9487405244107208e-04 1.1044985848185803e-02 0.0000000000000000e+00  -2.3950110563390937e-04 1.1064792906383502e-02 0.0000000000000000e+00  2.9146147984390183e-04 2.6906382093300468e-03 0.0000000000000000e+00  -2.4692898432866550e-04 1.1053272700522761e-02 0.0000000000000000e+00  2.8466570009875580e-04 2.6787157317342178e-03 0.0000000000000000e+00  -1.4610287984242647e-03 6.8761602072456999e-03 0.0000000000000000e+00  2.8471695917171494e-04 2.6786764520306482e-03 0.0000000000000000e+00  -2.4905355171942172e-04 2.6986698388854016e-03 0.0000000000000000e+00  -2.4247686487145835e-04 2.6860876669491970e-03 0.0000000000000000e+00  -2.4243331846931032e-04 2.6861341336788941e-03 0.0000000000000000e+00  7.3740320407043600e-03 6.6584743960172816e-03 0.0000000000000000e+00  5.4873082549717423e-03 7.1989080337504308e-03 0.0000000000000000e+00  7.4176425229477202e-03 6.6477372105968420e-03 0.0000000000000000e+00  -7.8797609833444000e-04 6.7822037609331625e-03 0.0000000000000000e+00  7.4181782822189705e-03 6.6481770040648005e-03 0.0000000000000000e+00  -8.2409747388389771e-04 6.7694118208656692e-03 0.0000000000000000e+00  7.4133363797351925e-03 7.0969456081999421e-03 0.0000000000000000e+00  -8.2453404901691523e-04 6.7698980069643326e-03 0.0000000000000000e+00  7.4128163212213620e-03 7.0973915534653358e-03 0.0000000000000000e+00  -1.7270877491187167e-03 6.8719999884979599e-03 0.0000000000000000e+00  7.3704329401822572e-03 7.0864756265662564e-03 0.0000000000000000e+00  -8.2872294214996302e-04 6.9747607115624626e-03 0.0000000000000000e+00  5.4804567365768679e-03 6.5381164135825069e-03 0.0000000000000000e+00  -8.2838100253979573e-04 6.9751372276084540e-03 0.0000000000000000e+00  -7.9833561785871445e-04 6.9660190674056127e-03 0.0000000000000000e+00  1.0595005008997374e-03 1.1555321471331172e-02 0.0000000000000000e+00  2.7640617612433857e-04 1.2842482605829876e-02 0.0000000000000000e+00  1.0986720635040789e-03 1.1518748620967146e-02 0.0000000000000000e+00  -1.0133078862716088e-03 1.1542502164621311e-02 0.0000000000000000e+00  1.0993291449561998e-03 1.1519706899162074e-02 0.0000000000000000e+00  -1.0545262327039738e-03 1.1508128367924008e-02 0.0000000000000000e+00  2.8561739845959573e-03 1.1546564932567135e-02 0.0000000000000000e+00  -1.0551878657867853e-03 1.1509059396145377e-02 0.0000000000000000e+00  2.8560107004464404e-03 1.1546556206695055e-02 0.0000000000000000e+00  -2.6611523945911019e-03 1.1013024053814468e-02 0.0000000000000000e+00  2.8340261118446836e-03 1.1553672495711653e-02 0.0000000000000000e+00  -2.8123525059195235e-03 1.1536029657677166e-02 0.0000000000000000e+00  1.6885002733242247e-03 1.1289899569973812e-02 0.0000000000000000e+00  -2.8121753256411422e-03 1.1535980665179794e-02 0.0000000000000000e+00  -2.7900708543305204e-03 1.1545370505066857e-02 0.0000000000000000e+00  2.5025036830078222e-04 1.3730549163488596e-02 0.0000000000000000e+00  2.5017633584301720e-04 1.3730592207921000e-02 0.0000000000000000e+00  1.3607470927731521e-04 1.3720421405425088e-02 0.0000000000000000e+00  2.5343604582858616e-04 1.3732105040761031e-02 0.0000000000000000e+00  1.3609949825636118e-04 1.3720427277556530e-02 0.0000000000000000e+00  2.8313716077577782e-03 7.5739577868808982e-03 0.0000000000000000e+00  1.3432303168834690e-04 1.3719411566006912e-02 0.0000000000000000e+00  2.8299835254094554e-03 7.5533524966381240e-03 0.0000000000000000e+00  2.3977052678490863e-04 1.2573141356753713e-02 0.0000000000000000e+00  2.8298689904020357e-03 7.5531873156101693e-03 0.0000000000000000e+00  2.2517826092577943e-03 7.4987244276079465e-03 0.0000000000000000e+00  2.2553622059280393e-03 7.4712453697254860e-03 0.0000000000000000e+00  2.2553002126546240e-03 7.4715046012451929e-03 0.0000000000000000e+00  1.4911809155843012e-03 1.3704736244546798e-02 0.0000000000000000e+00  1.1289268945009294e-03 1.3821254685933629e-02 0.0000000000000000e+00  7.9312233505590224e-04 1.3868908420890780e-02 0.0000000000000000e+00  4.9564633462859900e-04 1.3852496220131004e-02 0.0000000000000000e+00  4.7964916249650150e-05 1.3694508579730074e-02 0.0000000000000000e+00  -9.2768464161925411e-05 1.3579758623152584e-02 0.0000000000000000e+00  -1.7724855824010138e-04 1.3462570954836058e-02 0.0000000000000000e+00  -2.0928384527016337e-04 1.3356111643890620e-02 0.0000000000000000e+00  -3.2464549506358012e-05 3.1948448312650207e-05 0.0000000000000000e+00  -3.7186572390363479e-05 5.0847208580091000e-05 0.0000000000000000e+00  -4.1475247699798239e-05 8.0978569208681298e-05 0.0000000000000000e+00  -4.6915021917809385e-05 1.2251564389065972e-04 0.0000000000000000e+00  -4.5456476305989523e-05 1.8157624161261498e-04 0.0000000000000000e+00  -3.0460273541081187e-05 2.5802481271918994e-04 0.0000000000000000e+00  6.9172826178619896e-05 4.3988122093960714e-04 0.0000000000000000e+00  1.5946136644877688e-04 4.9671435341783112e-04 0.0000000000000000e+00  -1.4008561103311353e-03 2.6728761272473827e-05 0.0000000000000000e+00  -1.0014421976509329e-03 -9.1614472727694996e-05 0.0000000000000000e+00  -6.3820587527575550e-04 -1.2314238697580458e-04 0.0000000000000000e+00  -3.2539084176165918e-04 -8.2995719037936154e-05 0.0000000000000000e+00  -7.5347326648394445e-05 7.0868080922036604e-06 0.0000000000000000e+00  1.0590638574681145e-04 1.2914422995714063e-04 0.0000000000000000e+00  2.1719586709913229e-04 2.6051082028727375e-04 0.0000000000000000e+00  2.6106191930050002e-04 3.8213132588557852e-04 0.0000000000000000e+00  -2.3765620605477396e-03 5.4966551740484647e-04 0.0000000000000000e+00  -2.9937816210457778e-03 7.7704063926251911e-04 0.0000000000000000e+00  -4.2326698179135352e-03 8.4441120842019353e-04 0.0000000000000000e+00  -4.7912057190366173e-03 6.2880772202135752e-04 0.0000000000000000e+00  -5.2833813241217218e-03 2.6461753369775155e-04 0.0000000000000000e+00  -5.6754893046282780e-03 -2.1821124841992431e-04 0.0000000000000000e+00  -5.9379502046846408e-03 -7.8465297861621817e-04 0.0000000000000000e+00  -6.0515822404177402e-03 -1.3984886650852571e-03 0.0000000000000000e+00  -8.4659648415518554e-03 -2.0211663957834885e-03 0.0000000000000000e+00  -7.8516124747675942e-03 -2.0211526588633992e-03 0.0000000000000000e+00  -7.2372766936507071e-03 -2.0211073956784430e-03 0.0000000000000000e+00  -6.6229172564172129e-03 -2.0211090653142615e-03 0.0000000000000000e+00  -8.4219795860007371e-03 6.1763543626521065e-04 0.0000000000000000e+00  -8.7097052236309400e-03 1.4157602065641175e-04 0.0000000000000000e+00  -8.9233549015706251e-03 -3.7201039083139712e-04 0.0000000000000000e+00  -9.0580644550677866e-03 -9.1178004774857089e-04 0.0000000000000000e+00  -9.1107683901014147e-03 -1.4656302160939712e-03 0.0000000000000000e+00  -7.6304201258040544e-03 1.6054146166253730e-03 0.0000000000000000e+00  -7.3847063614410520e-03 2.2115910166237377e-03 0.0000000000000000e+00  -7.2995813294090620e-03 2.8767174106862524e-03 0.0000000000000000e+00  -7.3790502432377154e-03 3.5660383058504475e-03 0.0000000000000000e+00  -7.5917428033457504e-03 4.2529348361709345e-03 0.0000000000000000e+00  -7.9135718149472116e-03 4.8946663009400574e-03 0.0000000000000000e+00  -8.2077584495813573e-03 5.4701201794211569e-03 0.0000000000000000e+00  -8.1616235190087091e-03 6.1337539970220366e-03 0.0000000000000000e+00  -8.2220329430941590e-03 7.5900122095592694e-03 0.0000000000000000e+00  -8.1583863295341327e-03 8.2707063213774742e-03 0.0000000000000000e+00  -7.9392037387618214e-03 8.8414023650162550e-03 0.0000000000000000e+00  -7.6174405467308148e-03 9.4850106848029456e-03 0.0000000000000000e+00  -7.4050471431650984e-03 1.0172836702947967e-02 0.0000000000000000e+00  -7.3252770644433298e-03 1.0865673535996462e-02 0.0000000000000000e+00  -7.4103348540388789e-03 1.1532295060076610e-02 0.0000000000000000e+00  -7.6573217928930792e-03 1.2140526063830840e-02 0.0000000000000000e+00  -9.1420037050884261e-03 1.5221389208829169e-02 0.0000000000000000e+00  -9.0891310798254816e-03 1.4665789417027947e-02 0.0000000000000000e+00  -8.9539963635038317e-03 1.4124317857249625e-02 0.0000000000000000e+00  -8.7396765929082763e-03 1.3609097316012354e-02 0.0000000000000000e+00  -8.4510285228147040e-03 1.3131547871111818e-02 0.0000000000000000e+00  -6.6462840836054339e-03 1.5778608353502425e-02 0.0000000000000000e+00  -7.2625759170176461e-03 1.5778632691398842e-02 0.0000000000000000e+00  -7.8788656363365100e-03 1.5778674912405227e-02 0.0000000000000000e+00  -8.4951625580118369e-03 1.5778682767227856e-02 0.0000000000000000e+00  -6.0731846769808383e-03 1.5154027601585830e-02 0.0000000000000000e+00  -5.9590311184345018e-03 1.4538331130628300e-02 0.0000000000000000e+00  -5.6960051113218949e-03 1.3969729723819435e-02 0.0000000000000000e+00  -5.3024838109230494e-03 1.3485870133124123e-02 0.0000000000000000e+00  -4.8089132919672877e-03 1.3120663809003751e-02 0.0000000000000000e+00  -4.2479036508801275e-03 1.2903999799663982e-02 0.0000000000000000e+00  -3.0049623583562825e-03 1.2973387194126020e-02 0.0000000000000000e+00  -2.3856364011008106e-03 1.3201819434607095e-02 0.0000000000000000e+00  2.4809892656881623e-04 1.3368023865982475e-02 0.0000000000000000e+00  2.0470018539581078e-04 1.3488074617110584e-02 0.0000000000000000e+00  9.5278965441814267e-05 1.3618522235781499e-02 0.0000000000000000e+00  -8.2715482956892709e-05 1.3738889816428731e-02 0.0000000000000000e+00  -3.3152000746220823e-04 1.3831543650319543e-02 0.0000000000000000e+00  -6.4055413698039989e-04 1.3869894990668485e-02 0.0000000000000000e+00  -1.0047813940115646e-03 1.3841841826460057e-02 0.0000000000000000e+00  -1.4034832271864375e-03 1.3725263118313635e-02 0.0000000000000000e+00  1.4819130574479064e-04 1.3255056070877675e-02 0.0000000000000000e+00  5.7746180006654350e-05 1.3309482419761744e-02 0.0000000000000000e+00  -4.0551326005815630e-05 1.3493327267692130e-02 0.0000000000000000e+00  -5.4361435425702320e-05 1.3569139170627204e-02 0.0000000000000000e+00  -5.6181372556979688e-05 1.3625392149741797e-02 0.0000000000000000e+00  -5.3273634679321119e-05 1.3670037626871030e-02 0.0000000000000000e+00  -4.6212785086804253e-05 1.3698483956174169e-02 0.0000000000000000e+00  -4.3092412872212622e-05 1.3717774335236740e-02 0.0000000000000000e+00  -4.3668912315547224e-06 1.3743854719918683e-02 0.0000000000000000e+00  -5.4713673899331872e-06 1.3738389372158301e-02 0.0000000000000000e+00  -7.7665410771409555e-06 1.3734023774638589e-02 0.0000000000000000e+00  -1.1778744259900874e-05 1.3731291767445966e-02 0.0000000000000000e+00  -1.8775772897226826e-05 1.3730699485088893e-02 0.0000000000000000e+00  -2.9739721860049021e-05 1.3731521154561100e-02 0.0000000000000000e+00  4.9546824981297295e-05 1.3750000000000000e-02 0.0000000000000000e+00  5.2811352320789540e-05 1.37500000