<?xml version="1.0"?>
<VTKFile type="UnstructuredGrid"  version="0.1"  >
<UnstructuredGrid>
<Piece  NumberOfPoints="4855" NumberOfCells="8780">
<Points>
<DataArray  type="Float64"  NumberOfComponents="3"  format="ascii">0.9483880164242298 0.6836931311526558 0  0.9494264999197789 0.6847056440044139 0  0.9494005292759887 0.6847228078606633 0  0.9735520289385229 0.7444444444444445 0  0.9494005292759886 0.8041660810282256 0  0.94942649991978 0.8041832448844759 0  0.9483880175070514 0.8051957566534116 0  3.131175874138137e-16 0.09811450876034808 0  0.06838800723463068 0.1543033514199101 0  0.05161198249294494 0.1948042433465922 0  0.0505735000802211 0.1958167551155251 0  0.05059947072401128 0.1958339189717744 0  0.0505994707240113 0.3152771921393367 0  0.05057350008021998 0.315294355995587 0  0.05161198357913653 0.3163068688507105 0  0.06838800723463068 0.356807759691201 0  3.252606517456513e-16 0.4129966023507631 0  -1.795438797635995e-16 0.4839416311832997 0  0.07083274769489223 0.4605116403870998 0  0.07084991155114129 0.4605376110308903 0  0.07186242331670639 0.4594991286215342 0  0.1696402113702762 0.5 0  0.07186242332008326 0.5405008713818427 0  0.0708499115511413 0.5394623889691096 0  0.07083274769489219 0.5394883596129002 0  -1.925543058334256e-16 0.5160583688167003 0  1.484923295436147e-15 0.5870033976492365 0  0.06838800723463068 0.643192240308799 0  0.05161198249294541 0.6836931322354806 0  0.05057350008022109 0.6847056440044139 0  0.0505994707240113 0.6847228078606633 0  0.0505994707240113 0.8041660810282256 0  0.05057350008021999 0.804183244884476 0  0.05161198249294764 0.8051957566534106 0  0.06838800723463068 0.84569664858009 0  1.485790657174135e-15 0.9018854912396524 0  0 1 0  1 1 0  0.9999999999999987 0.9018854912396523 0  1.000000000000001 0.5870033976492375 0  1 0.5160583688167003 0  0.9291672523051078 0.5394883596129003 0  0.9291500884488585 0.5394623889691117 0  0.9281375755937461 0.5405008724680134 0  0.9281375755937372 0.4594991275319777 0  0.9291500884488586 0.4605376110308884 0  0.9291672523051077 0.4605116403870997 0  1 0.4839416311832997 0  0.9999999999999987 0.4129966023507635 0  0.948388017507054 0.31630686776452 0  0.94942649991978 0.3152943559955871 0  0.9494005292759886 0.3152771921393367 0  0.9735520289385229 0.2555555555555555 0  0.9494005292759888 0.1958339189717744 0  0.9494264999197789 0.1958167551155251 0  0.9483880164208631 0.1948042422604003 0  1.000000000000001 0.09811450876034861 0  1 0 0  0 0 0  0.1958339189717744 0.2950439151684559 0  0.1958167551155252 0.2950179445246672 0  0.3152771921393367 0.2950439151684557 0  0.1948042433481841 0.2960564269357975 0  0.3152943559955858 0.2950179445246651 0  0.1948042422604031 0.2150546830875326 0  0.3163068677645244 0.2960564269373949 0  0.1958167551155251 0.2160931665864439 0  0.4140846558147206 0.2555555555555555 0  0.1958339189717744 0.2160671959426553 0  0.3163068688489276 0.215054683089313 0  0.3152771921393367 0.2160671959426553 0  0.3152943559955858 0.2160931665864459 0  0.5405008724680257 0.3163068688507107 0  0.5572768961235196 0.356807759691201 0  0.5394623889691089 0.3152943559955871 0  0.459499128618165 0.3163068677645201 0  0.5394883596129003 0.3152771921393367 0  0.4605376110308911 0.3152943559955871 0  0.5394883596129001 0.1958339189717744 0  0.4605116403870998 0.3152771921393367 0  0.53946238896911 0.1958167551155251 0  0.4846631400496339 0.2555555555555555 0  0.5405008724680251 0.1948042422604009 0  0.4605116403870998 0.1958339189717744 0  0.5572768961235196 0.1543033514199101 0  0.46053761103089 0.1958167551155251 0  0.4594991286269881 0.1948042433554141 0  0.6847228078606633 0.2950439151684559 0  0.684705644004414 0.2950179445246672 0  0.8041660810282256 0.2950439151684557 0  0.683693131164073 0.2960564280087975 0  0.8041832448844747 0.2950179445246651 0  0.6836931322354718 0.2150546841737125 0  0.8051957566534156 0.2960564269373971 0  0.6847056440044141 0.2160931665864439 0  0.9029735447036096 0.2555555555555555 0  0.6847228078606632 0.2160671959426553 0  0.8051957577274008 0.2150546830997286 0  0.8041660810282256 0.2160671959426553 0  0.8041832448844747 0.2160931665864459 0  0.2960564280235811 0.560751313295155 0  0.3128324516790751 0.6012522041356455 0  0.2950179445246645 0.5597388004400315 0  0.2150546830875235 0.5607513132951615 0  0.2950439151684557 0.5597216365837812 0  0.2160931665864466 0.5597388004400314 0  0.2950439151684558 0.4402783634162188 0  0.2160671959426553 0.5597216365837812 0  0.2950179445246656 0.4402611995599696 0  0.2402186956051895 0.5 0  0.29605642693739 0.439248687791036 0  0.2160671959426553 0.4402783634162189 0  0.3128324516790751 0.3987477958643545 0  0.2160931665864455 0.4402611995599696 0  0.2150546830875296 0.4392486867048446 0  0.1958339189717743 0.7839328040573448 0  0.1958167551155252 0.7839068334135562 0  0.3152771921393367 0.7839328040573447 0  0.1948042422604028 0.7849453169124678 0  0.3152943559955858 0.783906833413554 0  0.1948042433465913 0.7039435730626098 0  0.3163068677645284 0.7849453158262878 0  0.1958167551155251 0.7049820554753328 0  0.4140846558147206 0.7444444444444445 0  0.1958339189717744 0.7049560848315441 0  0.3163068688486237 0.7039435719785058 0  0.3152771921393367 0.7049560848315441 0  0.3152943559955858 0.7049820554753349 0  0.4402783634162188 0.5394883596129003 0  0.4402611995599696 0.5394623889691117 0  0.5597216365837812 0.5394883596129002 0  0.4392486867048468 0.5405008724680237 0  0.5597388004400302 0.5394623889691096 0  0.4392486877998708 0.4594991286270004 0  0.5607513122089726 0.540500871381843 0  0.4402611995599696 0.4605376110308884 0  0.6585291002591651 0.5 0  0.4402783634162188 0.4605116403870998 0  0.5607513121946796 0.45949912863245 0  0.5597216365837812 0.4605116403870998 0  0.5597388004400302 0.4605376110308904 0  0.78494531690701 0.5607513132896949 0  0.8017213405679641 0.6012522041356455 0  0.7839068334135535 0.5597388004400315 0  0.7039435730626069 0.5607513122089671 0  0.7839328040573448 0.5597216365837812 0  0.7049820554753355 0.5597388004400314 0  0.7839328040573448 0.4402783634162188 0  0.7049560848315441 0.5597216365837812 0  0.7839068334135545 0.4402611995599696 0  0.7291075844940784 0.5 0  0.784945315826279 0.4392486877910359 0  0.7049560848315444 0.4402783634162188 0  0.8017213405679641 0.3987477958643545 0  0.7049820554753344 0.4402611995599696 0  0.7039435719764182 0.4392486867048443 0  0.5405008724625655 0.8051957577341393 0  0.5572768961235196 0.84569664858009 0  0.539462388969109 0.804183244884476 0  0.4594991286181648 0.8051957566534091 0  0.5394883596129003 0.8041660810282256 0  0.4605376110308911 0.804183244884476 0  0.5394883596129003 0.6847228078606633 0  0.4605116403870998 0.8041660810282256 0  0.53946238896911 0.6847056440044139 0  0.4846631400496339 0.7444444444444445 0  0.5405008713818347 0.6836931322354802 0  0.4605116403870998 0.6847228078606633 0  0.5572768961235196 0.643192240308799 0  0.46053761103089 0.6847056440044139 0  0.4594991275353449 0.6836931311526599 0  0.6847228078606633 0.7839328040573448 0  0.684705644004414 0.7839068334135562 0  0.8041660810282256 0.7839328040573447 0  0.6836931311493016 0.7849453169124578 0  0.8041832448844747 0.783906833413554 0  0.68369313223548 0.7039435730626096 0  0.805195756653417 0.7849453158262875 0  0.6847056440044141 0.7049820554753328 0  0.9029735447036096 0.7444444444444445 0  0.6847228078606633 0.7049560848315441 0  0.805195757738809 0.7039435719772094 0  0.8041660810282256 0.7049560848315441 0  0.8041832448844747 0.7049820554753349 0  0.9578164230213342 0.6948838683471341 0  0.9645772892192558 0.7062137009141434 0  0.9695236884064815 0.7184451175460498 0  0.972538971146615 0.7312896684428197 0  0.9725389711466151 0.7575992204460691 0  0.9695236884064815 0.7704437713428391 0  0.9645772892192558 0.7826751879747456 0  0.9578164230213342 0.7940050205417549 0  0.01437766570919127 0.09711967848259151 0  0.02854851642641832 0.09974531144948819 0  0.04161535472570586 0.1058251712658871 0  0.05275088139110013 0.1149743244732108 0  0.06125007411586489 0.1266135117968212 0  0.06657482449792251 0.1400058227212122 0  0.06643634307317195 0.1691277076584997 0  0.06071435336153361 0.1829418078690686 0  0.04134737123322858 0.3039103077764334 0  0.03416190609801732 0.2911362521989113 0  0.02925217947541549 0.2773267630846004 0  0.02676106927623143 0.2628837102534819 0  0.02676106927623143 0.2482274008576293 0  0.02925217947541547 0.2337843480265108 0  0.03416190609801727 0.2199748589121999 0  0.04134737123322851 0.2072008033346779 0  0.06071435387356935 0.328169304128914 0  0.06643634320569657 0.3419834039471998 0  0.06657482449792249 0.371105288389899 0  0.06125007411586481 0.3844975993142901 0  0.05275088139109994 0.3961367866379005 0  0.04161535472570563 0.4052859398452242 0  0.02854851642641818 0.411365799661623 0  0.01437766570919127 0.4139914326285196 0  0 0.4697526254167924 0  0 0.455563619650285 0  0 0.4413746138837777 0  0 0.4271856081172704 0  0.06095233986089402 0.4687284952262988 0  0.04995687430503332 0.4753797281664747 0  0.03809234373417287 0.4803165365228644 0  0.02562418374773841 0.4834284730529493 0  0.01283133446055119 0.4846459169037758 0  0.08372485599813187 0.4503967593658507 0  0.09753895276796982 0.4446747697099958 0  0.1123633055586467 0.4427231038764812 0  0.1271876590095525 0.4446747646950606 0  0.1410017577150834 0.45039674967774 0  0.1528641934757506 0.4594991149204779 0  0.161966560724962 0.471361549141524 0  0.1676885480442292 0.4851756468792086 0  0.1676885480443665 0.514824353120279 0  0.1619665607254926 0.528638450857557 0  0.1528641934768762 0.5405008850783964 0  0.1410017577169217 0.5496032503211987 0  0.1271876590121153 0.5553252353042526 0  0.1123633055618306 0.5572768961235188 0  0.09753895277155772 0.5553252302909656 0  0.08372485600180817 0.5496032406362719 0  0.0128313344605512 0.5153540830962242 0  0.0256241837477384 0.5165715269470507 0  0.03809234373417282 0.5196834634771356 0  0.04995687430503334 0.5246202718335253 0  0.06095233986089401
[...]
<PointData  Vectors="$u$"> 
<DataArray  type="Float64"  Name="$u$"  NumberOfComponents="3" format="ascii">3.0193150247632815e-03 2.2245097955239230e-02 0.0000000000000000e+00  2.9489068396419352e-03 2.2280176705589044e-02 0.0000000000000000e+00  2.9479175779111920e-03 2.2279138157220612e-02 0.0000000000000000e+00  2.7099083751666261e-04 2.2748549449529427e-02 0.0000000000000000e+00  -4.1909350420508778e-04 2.1942260958259609e-02 0.0000000000000000e+00  -4.1913951281665488e-04 2.1942577598061747e-02 0.0000000000000000e+00  -4.1065180724222022e-04 2.1922826935704298e-02 0.0000000000000000e+00  -3.9841895182778335e-05 2.3719766950148180e-05 0.0000000000000000e+00  1.0765798265589309e-05 4.2649485518456333e-04 0.0000000000000000e+00  3.1584894377879950e-04 5.7111421552681738e-04 0.0000000000000000e+00  3.2482476237818427e-04 5.5307195614948633e-04 0.0000000000000000e+00  3.2478890054456899e-04 5.5335616894094930e-04 0.0000000000000000e+00  -3.0525048696351535e-03 2.1227586450338833e-04 0.0000000000000000e+00  -3.0535234590262088e-03 2.1116653802784788e-04 0.0000000000000000e+00  -3.1262471441167910e-03 2.4873191026156846e-04 0.0000000000000000e+00  -6.0642767450787456e-03 1.2381241831114303e-03 0.0000000000000000e+00  -1.0043075332429858e-02 -3.6321634007674187e-03 0.0000000000000000e+00  -1.5146223549124016e-02 -3.6322250261255967e-03 0.0000000000000000e+00  -1.3461813171249852e-02 1.4626024076161558e-03 0.0000000000000000e+00  -1.3463678040957505e-02 1.4638353513176880e-03 0.0000000000000000e+00  -1.3389167960991266e-02 1.5366231251430695e-03 0.0000000000000000e+00  -1.3296266464633813e-02 1.1229494561642643e-02 0.0000000000000000e+00  -1.3423129436784738e-02 2.0970726444818826e-02 0.0000000000000000e+00  -1.3497708314579450e-02 2.1043257143373330e-02 0.0000000000000000e+00  -1.3495844368411608e-02 2.1044487637884451e-02 0.0000000000000000e+00  -1.5179232055254854e-02 2.6135906286664585e-02 0.0000000000000000e+00  -1.0079403874188510e-02 2.6135838049492374e-02 0.0000000000000000e+00  -6.1032288201923086e-03 2.1264970802021679e-02 0.0000000000000000e+00  -3.1670044810939218e-03 2.2244737718913860e-02 0.0000000000000000e+00  -3.0969330131450385e-03 2.2281959995553088e-02 0.0000000000000000e+00  -3.0959564090556986e-03 2.2280873687774646e-02 0.0000000000000000e+00  2.4213095635898413e-04 2.1938992376325225e-02 0.0000000000000000e+00  2.4215782040353857e-04 2.1939255526384711e-02 0.0000000000000000e+00  2.3289901587171370e-04 2.1921704818278060e-02 0.0000000000000000e+00  -7.3395983054165128e-05 2.2075419004805624e-02 0.0000000000000000e+00  -1.2524103225703244e-04 2.2475948667967312e-02 0.0000000000000000e+00  -7.8009900464787998e-05 2.2499999999999999e-02 0.0000000000000000e+00  -9.8500334645701282e-05 2.2499999999999999e-02 0.0000000000000000e+00  -5.1303390965903688e-05 2.2475690988603237e-02 0.0000000000000000e+00  9.9473786775847797e-03 2.6144501654000018e-02 0.0000000000000000e+00  1.5059763637452988e-02 2.6144569128998669e-02 0.0000000000000000e+00  1.3372350773744619e-02 2.1040383452264898e-02 0.0000000000000000e+00  1.3374221918401791e-02 2.1039147109919522e-02 0.0000000000000000e+00  1.3299432711063656e-02 2.0966206601876217e-02 0.0000000000000000e+00  1.3342423006943861e-02 1.5276562782222023e-03 0.0000000000000000e+00  1.3416771248612330e-02 1.4549181040471107e-03 0.0000000000000000e+00  1.3414909876687442e-02 1.4536870201958868e-03 0.0000000000000000e+00  1.5098393491370430e-02 -3.6382884255909101e-03 0.0000000000000000e+00  9.9981294889219183e-03 -3.6382091306202484e-03 0.0000000000000000e+00  3.0870284561367212e-03 2.5096754923963912e-04 0.0000000000000000e+00  3.0167243559447911e-03 2.1430698036512417e-04 0.0000000000000000e+00  3.0157416884894731e-03 2.1538484054990515e-04 0.0000000000000000e+00  3.5187778185440181e-04 -2.4777692001030032e-04 0.0000000000000000e+00  -3.3575948497448574e-04 5.5378690559293789e-04 0.0000000000000000e+00  -3.3577488524579328e-04 5.5346137510432932e-04 0.0000000000000000e+00  -3.2483634389626157e-04 5.7322005543310086e-04 0.0000000000000000e+00  2.8572315573474223e-05 2.3986279211466675e-05 0.0000000000000000e+00  -1.9100715956028231e-05 0.0000000000000000e+00 0.0000000000000000e+00  0.0000000000000000e+00 0.0000000000000000e+00 0.0000000000000000e+00  -3.6967128914102321e-03 1.0228180637156838e-02 0.0000000000000000e+00  -3.6965826828252606e-03 1.0227045806869331e-02 0.0000000000000000e+00  -4.4454961349509846e-03 1.0225231322896060e-02 0.0000000000000000e+00  -3.6944905875110918e-03 1.0147374381279295e-02 0.0000000000000000e+00  -4.4457234911057129e-03 1.0224810835128148e-02 0.0000000000000000e+00  -9.2026245171799315e-05 4.5235273628167450e-05 0.0000000000000000e+00  -4.4430213954238405e-03 1.0188930844289498e-02 0.0000000000000000e+00  -9.4789042577996972e-05 4.5302425433506391e-05 0.0000000000000000e+00  -4.1175614393433512e-03 3.2828576762456260e-03 0.0000000000000000e+00  -9.4737549932268693e-05 4.5326822719919886e-05 0.0000000000000000e+00  -2.2964932254855737e-04 3.4674664725796962e-05 0.0000000000000000e+00  -2.2667353407217376e-04 3.5905617489806950e-05 0.0000000000000000e+00  -2.2660692005853928e-04 3.5867619821206256e-05 0.0000000000000000e+00  4.4678674671652886e-03 4.0388419093086783e-03 0.0000000000000000e+00  2.6430521835726934e-03 4.5706035043984140e-03 0.0000000000000000e+00  4.5089400431451848e-03 4.0473367368927824e-03 0.0000000000000000e+00  -4.5308848670469783e-03 4.0351396227122993e-03 0.0000000000000000e+00  4.5094526167357447e-03 4.0472731998929690e-03 0.0000000000000000e+00  -4.5702890313789437e-03 4.0481248419971900e-03 0.0000000000000000e+00  2.0803249834308395e-03 4.0640523214238184e-03 0.0000000000000000e+00  -4.5707677331004119e-03 4.0479374695303137e-03 0.0000000000000000e+00  2.0787939758197642e-03 4.0659937033581221e-03 0.0000000000000000e+00  -4.6515629364593048e-03 4.7246533634164789e-03 0.0000000000000000e+00  1.9805016641093170e-03 3.9993489602224300e-03 0.0000000000000000e+00  -2.0984617354631702e-03 4.0501152263254358e-03 0.0000000000000000e+00  4.0162613908028487e-04 1.1067862062861301e-03 0.0000000000000000e+00  -2.0968872892494334e-03 4.0522183693216061e-03 0.0000000000000000e+00  -1.9971103018126914e-03 3.9774225126028061e-03 0.0000000000000000e+00  4.3861913836087448e-03 1.0233044522543236e-02 0.0000000000000000e+00  4.3863383329743868e-03 1.0232615055434869e-02 0.0000000000000000e+00  3.6417196743753068e-03 1.0199389240809717e-02 0.0000000000000000e+00  4.3867056497960783e-03 1.0195992537807629e-02 0.0000000000000000e+00  3.6415159190792143e-03 1.0198308611814566e-02 0.0000000000000000e+00  2.1940053658334706e-04 3.3388719743758543e-05 0.0000000000000000e+00  3.6423457045261527e-03 1.0122662669449334e-02 0.0000000000000000e+00  2.1691790004015049e-04 3.4879153771793837e-05 0.0000000000000000e+00  5.6405930551454032e-04 1.6759321034232790e-03 0.0000000000000000e+00  2.1697802462743071e-04 3.4916513625781293e-05 0.0000000000000000e+00  8.1325652448612591e-05 4.3705134569571810e-05 0.0000000000000000e+00  8.4016802292515155e-05 4.4902774643512718e-05 0.0000000000000000e+00  8.4076869353026266e-05 4.4867887890763831e-05 0.0000000000000000e+00  1.0036397976369293e-03 1.1167457826473834e-02 0.0000000000000000e+00  -1.0172657741055382e-03 1.2091627502914823e-02 0.0000000000000000e+00  1.0604340155085463e-03 1.1146549781000537e-02 0.0000000000000000e+00  -1.2187949884630348e-02 1.0897766831856778e-02 0.0000000000000000e+00  1.0611770258019612e-03 1.1147254425563533e-02 0.0000000000000000e+00  -1.2255106125724296e-02 1.0883363410035542e-02 0.0000000000000000e+00  1.0817064302766932e-03 1.1385773397504503e-02 0.0000000000000000e+00  -1.2256026024349397e-02 1.0883846775910722e-02 0.0000000000000000e+00  1.0810058961280981e-03 1.1386463655499699e-02 0.0000000000000000e+00  -1.4220218321671056e-02 1.1278528968550076e-02 0.0000000000000000e+00  1.0274050565521689e-03 1.1365463263112998e-02 0.0000000000000000e+00  -1.2215216985537439e-02 1.1607448775200356e-02 0.0000000000000000e+00  -9.9153767219774779e-04 1.0445153418056234e-02 0.0000000000000000e+00  -1.2214416682662451e-02 1.1607637490101103e-02 0.0000000000000000e+00  -1.2154534572625468e-02 1.1605351242438455e-02 0.0000000000000000e+00  -1.8062324953332525e-04 2.2456169857732095e-02 0.0000000000000000e+00  -1.8068923719979856e-04 2.2456203844965553e-02 0.0000000000000000e+00  -3.1432509166163375e-04 2.2466876685994407e-02 0.0000000000000000e+00  -1.7740044215437212e-04 2.2456921178243425e-02 0.0000000000000000e+00  -3.1425839817028292e-04 2.2466917922685816e-02 0.0000000000000000e+00  -3.7426880237080916e-03 1.2366136161150015e-02 0.0000000000000000e+00  -3.1708131640877362e-04 2.2468501493473444e-02 0.0000000000000000e+00  -3.7401595912300019e-03 1.2286271570184561e-02 0.0000000000000000e+00  -4.0467592260141575e-03 1.9288015160166615e-02 0.0000000000000000e+00  -3.7403947725979888e-03 1.2285144423135835e-02 0.0000000000000000e+00  -4.4883515221855247e-03 1.2352916080759224e-02 0.0000000000000000e+00  -4.4903333643825779e-03 1.2315714376459345e-02 0.0000000000000000e+00  -4.4905459328069925e-03 1.2316144422187219e-02 0.0000000000000000e+00  2.8911286784226681e-04 1.7697147204100767e-02 0.0000000000000000e+00  2.8929018350698651e-04 1.7696832045879289e-02 0.0000000000000000e+00  -4.1412777380127655e-04 1.7697797423662752e-02 0.0000000000000000e+00  2.8897455269384376e-04 1.7666941904150461e-02 0.0000000000000000e+00  -4.1430940859918494e-04 1.7697503589809333e-02 0.0000000000000000e+00  3.1738985203669088e-04 4.8818977559354805e-03 0.0000000000000000e+00  -4.1388204430702248e-04 1.7668718255560708e-02 0.0000000000000000e+00  3.1800473357312243e-04 4.8553707622415020e-03 0.0000000000000000e+00  -1.8406578961535579e-03 1.1255951021629183e-02 0.0000000000000000e+00  3.1782211327119228e-04 4.8551121956257673e-03 0.0000000000000000e+00  -3.8230992719802745e-04 4.8824830147584332e-03 0.0000000000000000e+00  -3.8341315094076741e-04 4.8530486247332074e-03 0.0000000000000000e+00  -3.8361442386731354e-04 4.8533472638639811e-03 0.0000000000000000e+00  1.2054455547608712e-02 1.0876333608627492e-02 0.0000000000000000e+00  8.9673351660198176e-03 1.1874053015214306e-02 0.0000000000000000e+00  1.2128412109006583e-02 1.0856570875092271e-02 0.0000000000000000e+00  -1.1295489903887623e-03 1.1186506607100521e-02 0.0000000000000000e+00  1.2129450402605151e-02 1.0857201565512342e-02 0.0000000000000000e+00  -1.1872349040226934e-03 1.1167637968376547e-02 0.0000000000000000e+00  1.2176307658313649e-02 1.1621160097797453e-02 0.0000000000000000e+00  -1.1880043582102784e-03 1.1168271474554937e-02 0.0000000000000000e+00  1.2175343453206301e-02 1.1621843609682143e-02 0.0000000000000000e+00  -2.5994943665548927e-03 1.1293998448424596e-02 0.0000000000000000e+00  1.2106672053647505e-02 1.1599867661086465e-02 0.0000000000000000e+00  -1.1462358498935084e-03 1.1392941944553720e-02 0.0000000000000000e+00  9.0207881400221762e-03 1.0592017785043524e-02 0.0000000000000000e+00  -1.1456480835819590e-03 1.1393490542304940e-02 0.0000000000000000e+00  -1.0991876125526169e-03 1.1378101514479455e-02 0.0000000000000000e+00  1.8450195897442899e-03 1.8577212250721158e-02 0.0000000000000000e+00  2.8664347441582840e-04 2.1399497687377225e-02 0.0000000000000000e+00  1.9361892512992837e-03 1.8505054604357193e-02 0.0000000000000000e+00  -1.9910969349934710e-03 1.8573456886321067e-02 0.0000000000000000e+00  1.9376316150991023e-03 1.8507051140102392e-02 0.0000000000000000e+00  -2.0842589158202836e-03 1.8512106599785583e-02 0.0000000000000000e+00  4.4604217713768218e-03 1.8506020836749477e-02 0.0000000000000000e+00  -2.0857002882533216e-03 1.8513880920839824e-02 0.0000000000000000e+00  4.4599452532426420e-03 1.8505905602313272e-02 0.0000000000000000e+00  -4.6752551977754103e-03 1.7825746937498308e-02 0.0000000000000000e+00  4.4195024775597353e-03 1.8515487216329715e-02 0.0000000000000000e+00  -4.6036879154206112e-03 1.8506520329637240e-02 0.0000000000000000e+00  2.5986583111905770e-03 1.7982706970505920e-02 0.0000000000000000e+00  -4.6031376791525382e-03 1.8506303801147470e-02 0.0000000000000000e+00  -4.5604777217343150e-03 1.8520989168951989e-02 0.0000000000000000e+00  1.3784832929040995e-04 2.2466373565276278e-02 0.0000000000000000e+00  1.3777472917563850e-04 2.2466419806591441e-02 0.0000000000000000e+00  3.1806850338531974e-06 2.2456463010477972e-02 0.0000000000000000e+00  1.4079406406373448e-04 2.2468515040336392e-02 0.0000000000000000e+00  3.2115041197107452e-06 2.2456470769048199e-02 0.0000000000000000e+00  4.3574412810664705e-03 1.2366056953248218e-02 0.0000000000000000e+00  1.0402680923815272e-06 2.2455329235784912e-02 0.0000000000000000e+00  4.3600622993039762e-03 1.2330384375576627e-02 0.0000000000000000e+00  4.9889282917067030e-04 2.0778960174350547e-02 0.0000000000000000e+00  4.3598364019868541e-03 1.2329968954951566e-02 0.0000000000000000e+00  3.6176492207530722e-03 1.2332955563465519e-02 0.0000000000000000e+00  3.6205874143172465e-03 1.2255630590002165e-02 0.0000000000000000e+00  3.6204964067873793e-03 1.2256701425883428e-02 0.0000000000000000e+00  2.3202246505548726e-03 2.2617954264138467e-02 0.0000000000000000e+00  1.7185083033264136e-03 2.2808653582010868e-02 0.0000000000000000e+00  1.1642604031311986e-03 2.2886285829274558e-02 0.0000000000000000e+00  6.7635774309561297e-04 2.2854302546884930e-02 0.0000000000000000e+00  -4.2361759906226726e-05 2.2592714648566280e-02 0.0000000000000000e+00  -2.6244861288494113e-04 2.2408127079819606e-02 0.0000000000000000e+00  -3.9353333626477574e-04 2.2225047355702510e-02 0.0000000000000000e+00  -4.4250299240452677e-04 2.2059071677343684e-02 0.0000000000000000e+00  -3.8619112823543271e-05 4.0777282062685660e-05 0.0000000000000000e+00  -4.4989042876752867e-05 6.3903058268769775e-05 0.0000000000000000e+00  -4.9488232623641966e-05 1.0181453281009639e-04 0.0000000000000000e+00  -5.5698891216156599e-05 1.5251280498461853e-04 0.0000000000000000e+00  -5.3522980028824837e-05 2.2580847005170329e-04 0.0000000000000000e+00  -3.2041224172591074e-05 3.1985275942204031e-04 0.0000000000000000e+00  9.4875861508334264e-05 5.4396579016173128e-04 0.0000000000000000e+00  2.1227637702672707e-04 6.0684280810978364e-04 0.0000000000000000e+00  -2.3552062826539657e-03 -1.5126297416982238e-04 0.0000000000000000e+00  -1.6930315113585577e-03 -3.4518147605005508e-04 0.0000000000000000e+00  -1.0965186186790100e-03 -3.9317960196932515e-04 0.0000000000000000e+00  -5.8688804083323386e-04 -3.2393258196409451e-04 0.0000000000000000e+00  -1.8657839774690807e-04 -1.7564588108328705e-04 0.0000000000000000e+00  1.0099433072526951e-04 2.0751152493741740e-05 0.0000000000000000e+00  2.7475122343633248e-04 2.2841751519525293e-04 0.0000000000000000e+00  3.4423742042631248e-04 4.1759807368943052e-04 0.0000000000000000e+00  -3.9735480764931828e-03 7.0997037043464095e-04 0.0000000000000000e+00  -4.9973636731793121e-03 1.0690508792495575e-03 0.0000000000000000e+00  -7.0721244052045140e-03 1.1405579371672871e-03 0.0000000000000000e+00  -8.0108226843512188e-03 7.7183491094653164e-04 0.0000000000000000e+00  -8.8355056573049869e-03 1.6425276534335267e-04 0.0000000000000000e+00  -9.4893481932305946e-03 -6.3759289697722099e-04 0.0000000000000000e+00  -9.9257655446999601e-03 -1.5782745333947892e-03 0.0000000000000000e+00  -1.0114638560880376e-02 -2.5978726769247118e-03 0.0000000000000000e+00  -1.4125647937728941e-02 -3.6322444942875195e-03 0.0000000000000000e+00  -1.3105005610398056e-02 -3.6322300948554540e-03 0.0000000000000000e+00  -1.2084417661501342e-02 -3.6321706397623166e-03 0.0000000000000000e+00  -1.1063760835534387e-02 -3.6321955714117529e-03 0.0000000000000000e+00  -1.4052375021858420e-02 7.5179129017387573e-04 0.0000000000000000e+00  -1.4530497658406239e-02 -3.9138090920470070e-05 0.0000000000000000e+00  -1.4885501749610930e-02 -8.9239118662091086e-04 0.0000000000000000e+00  -1.5109321661012894e-02 -1.7891662239632850e-03 0.0000000000000000e+00  -1.5196878928203358e-02 -2.7093103606620544e-03 0.0000000000000000e+00  -1.2735967021997871e-02 2.3915567002416220e-03 0.0000000000000000e+00  -1.2327765630173505e-02 3.3941357703689556e-03 0.0000000000000000e+00  -1.2184923132457686e-02 4.4860025797557124e-03 0.0000000000000000e+00  -1.2324693591343092e-02 5.6052871306291755e-03 0.0000000000000000e+00  -1.2701709263504760e-02 6.7035947378027557e-03 0.0000000000000000e+00  -1.3239202138956914e-02 7.6887682043323873e-03 0.0000000000000000e+00  -1.3613050670402445e-02 8.6042786823452011e-03 0.0000000000000000e+00  -1.3340348520565195e-02 9.8310270232723242e-03 0.0000000000000000e+00  -1.3420330522854974e-02 1.2660388915185379e-02 0.0000000000000000e+00  -1.3515797607953576e-02 1.3920246469622068e-02 0.0000000000000000e+00  -1.3289818392042024e-02 1.4825295003617057e-02 0.0000000000000000e+00  -1.2735931914851810e-02 1.5807485899269332e-02 0.0000000000000000e+00  -1.2362073734976171e-02 1.6904814408508079e-02 0.0000000000000000e+00  -1.2220896020575715e-02 1.8024669192843429e-02 0.0000000000000000e+00  -1.2362160469134813e-02 1.9114052733324182e-02 0.0000000000000000e+00  -1.2771209882734953e-02 2.0116040045790873e-02 0.0000000000000000e+00  -1.5229850391856222e-02 2.5213590002782248e-02 0.0000000000000000e+00  -1.5142339147222725e-02 2.4294054345361828e-02 0.0000000000000000e+00  -1.4918685814832987e-02 2.3397872104913810e-02 0.0000000000000000e+00  -1.4563882730629335e-02 2.2545155542303002e-02 0.0000000000000000e+00  -1.4086078479899108e-02 2.1754799017510370e-02 0.0000000000000000e+00  -1.1099467123840735e-02 2.6135850606009398e-02 0.0000000000000000e+00  -1.2119403909405333e-02 2.6135873649693622e-02 0.0000000000000000e+00  -1.3139359823085865e-02 2.6135907914274295e-02 0.0000000000000000e+00  -1.4159318317699883e-02 2.6135922466374469e-02 0.0000000000000000e+00  -1.0151050860878022e-02 2.5102229236713673e-02 0.0000000000000000e+00  -9.9619887090673480e-03 2.4083431601060520e-02 0.0000000000000000e+00  -9.5261605277474296e-03 2.3142872500282935e-02 0.0000000000000000e+00  -8.8723774543704014e-03 2.2342083045696261e-02 0.0000000000000000e+00  -8.0482694857700911e-03 2.1734620142594935e-02 0.0000000000000000e+00  -7.1086604267280029e-03 2.1365498102757740e-02 0.0000000000000000e+00  -5.0356782412145770e-03 2.1434564282693653e-02 0.0000000000000000e+00  -4.0172978199912671e-03 2.1790338957567025e-02 0.0000000000000000e+00  2.6470981920786166e-04 2.2070316951005808e-02 0.0000000000000000e+00  1.9902652062819316e-04 2.2256232886359625e-02 0.0000000000000000e+00  2.9935036765785427e-05 2.2462568002241511e-02 0.0000000000000000e+00  -2.5004619436335101e-04 2.2656216800850875e-02 0.0000000000000000e+00  -6.4821542899489890e-04 2.2808732514737036e-02 0.0000000000000000e+00  -1.1479908026014517e-03 2.2874041362847965e-02 0.0000000000000000e+00  -1.7442090520889801e-03 2.2833005591221891e-02 0.0000000000000000e+00  -2.4005740569651604e-03 2.2642285399137360e-02 0.0000000000000000e+00  1.2900623666957286e-04 2.1888084868799521e-02 0.0000000000000000e+00  8.8657445980234102e-06 2.1951869999529871e-02 0.0000000000000000e+00  -1.1859801013542350e-04 2.2179748336860188e-02 0.0000000000000000e+00  -1.3663003500412018e-04 2.2275079027332802e-02 0.0000000000000000e+00  -1.3972960217436571e-04 2.2343501541671064e-02 0.0000000000000000e+00  -1.3775333916689548e-04 2.2399842261780593e-02 0.0000000000000000e+00  -1.2847270964283673e-04 2.2434795513421070e-02 0.0000000000000000e+00  -1.2488031368243247e-04 2.2458766828657818e-02 0.0000000000000000e+00  -7.8260789153508761e-05 2.2491969765500362e-02 0.0000000000000000e+00  -7.9529079250487917e-05 2.2484913848977221e-02 0.0000000000000000e+00  -8.2123470840941674e-05 2.2479053716885123e-02 0.0000000000000000e+00  -8.6804234639411529e-05 2.2475564971132522e-02 0.0000000000000000e+00  -9.5160118073511651e-05 2.2474563980691947e-02 0.0000000000000000e+00  -1.0846306247662473e-04 2.2475618544594990e-02 0.0000000000000000e+00  -9.5743331363268728e-05 2.2499999999999999e-02 0.0000000000000000e+00  -9.1594644911773253e-05 2