<?xml version="1.0"?>
<VTKFile type="UnstructuredGrid"  version="0.1"  >
<UnstructuredGrid>
<Piece  NumberOfPoints="4855" NumberOfCells="8780">
<Points>
<DataArray  type="Float64"  NumberOfComponents="3"  format="ascii">0.9483880164242298 0.6836931311526558 0  0.9494264999197789 0.6847056440044139 0  0.9494005292759887 0.6847228078606633 0  0.9735520289385229 0.7444444444444445 0  0.9494005292759886 0.8041660810282256 0  0.94942649991978 0.8041832448844759 0  0.9483880175070514 0.8051957566534116 0  3.131175874138137e-16 0.09811450876034808 0  0.06838800723463068 0.1543033514199101 0  0.05161198249294494 0.1948042433465922 0  0.0505735000802211 0.1958167551155251 0  0.05059947072401128 0.1958339189717744 0  0.0505994707240113 0.3152771921393367 0  0.05057350008021998 0.315294355995587 0  0.05161198357913653 0.3163068688507105 0  0.06838800723463068 0.356807759691201 0  3.252606517456513e-16 0.4129966023507631 0  -1.795438797635995e-16 0.4839416311832997 0  0.07083274769489223 0.4605116403870998 0  0.07084991155114129 0.4605376110308903 0  0.07186242331670639 0.4594991286215342 0  0.1696402113702762 0.5 0  0.07186242332008326 0.5405008713818427 0  0.0708499115511413 0.5394623889691096 0  0.07083274769489219 0.5394883596129002 0  -1.925543058334256e-16 0.5160583688167003 0  1.484923295436147e-15 0.5870033976492365 0  0.06838800723463068 0.643192240308799 0  0.05161198249294541 0.6836931322354806 0  0.05057350008022109 0.6847056440044139 0  0.0505994707240113 0.6847228078606633 0  0.0505994707240113 0.8041660810282256 0  0.05057350008021999 0.804183244884476 0  0.05161198249294764 0.8051957566534106 0  0.06838800723463068 0.84569664858009 0  1.485790657174135e-15 0.9018854912396524 0  0 1 0  1 1 0  0.9999999999999987 0.9018854912396523 0  1.000000000000001 0.5870033976492375 0  1 0.5160583688167003 0  0.9291672523051078 0.5394883596129003 0  0.9291500884488585 0.5394623889691117 0  0.9281375755937461 0.5405008724680134 0  0.9281375755937372 0.4594991275319777 0  0.9291500884488586 0.4605376110308884 0  0.9291672523051077 0.4605116403870997 0  1 0.4839416311832997 0  0.9999999999999987 0.4129966023507635 0  0.948388017507054 0.31630686776452 0  0.94942649991978 0.3152943559955871 0  0.9494005292759886 0.3152771921393367 0  0.9735520289385229 0.2555555555555555 0  0.9494005292759888 0.1958339189717744 0  0.9494264999197789 0.1958167551155251 0  0.9483880164208631 0.1948042422604003 0  1.000000000000001 0.09811450876034861 0  1 0 0  0 0 0  0.1958339189717744 0.2950439151684559 0  0.1958167551155252 0.2950179445246672 0  0.3152771921393367 0.2950439151684557 0  0.1948042433481841 0.2960564269357975 0  0.3152943559955858 0.2950179445246651 0  0.1948042422604031 0.2150546830875326 0  0.3163068677645244 0.2960564269373949 0  0.1958167551155251 0.2160931665864439 0  0.4140846558147206 0.2555555555555555 0  0.1958339189717744 0.2160671959426553 0  0.3163068688489276 0.215054683089313 0  0.3152771921393367 0.2160671959426553 0  0.3152943559955858 0.2160931665864459 0  0.5405008724680257 0.3163068688507107 0  0.5572768961235196 0.356807759691201 0  0.5394623889691089 0.3152943559955871 0  0.459499128618165 0.3163068677645201 0  0.5394883596129003 0.3152771921393367 0  0.4605376110308911 0.3152943559955871 0  0.5394883596129001 0.1958339189717744 0  0.4605116403870998 0.3152771921393367 0  0.53946238896911 0.1958167551155251 0  0.4846631400496339 0.2555555555555555 0  0.5405008724680251 0.1948042422604009 0  0.4605116403870998 0.1958339189717744 0  0.5572768961235196 0.1543033514199101 0  0.46053761103089 0.1958167551155251 0  0.4594991286269881 0.1948042433554141 0  0.6847228078606633 0.2950439151684559 0  0.684705644004414 0.2950179445246672 0  0.8041660810282256 0.2950439151684557 0  0.683693131164073 0.2960564280087975 0  0.8041832448844747 0.2950179445246651 0  0.6836931322354718 0.2150546841737125 0  0.8051957566534156 0.2960564269373971 0  0.6847056440044141 0.2160931665864439 0  0.9029735447036096 0.2555555555555555 0  0.6847228078606632 0.2160671959426553 0  0.8051957577274008 0.2150546830997286 0  0.8041660810282256 0.2160671959426553 0  0.8041832448844747 0.2160931665864459 0  0.2960564280235811 0.560751313295155 0  0.3128324516790751 0.6012522041356455 0  0.2950179445246645 0.5597388004400315 0  0.2150546830875235 0.5607513132951615 0  0.2950439151684557 0.5597216365837812 0  0.2160931665864466 0.5597388004400314 0  0.2950439151684558 0.4402783634162188 0  0.2160671959426553 0.5597216365837812 0  0.2950179445246656 0.4402611995599696 0  0.2402186956051895 0.5 0  0.29605642693739 0.439248687791036 0  0.2160671959426553 0.4402783634162189 0  0.3128324516790751 0.3987477958643545 0  0.2160931665864455 0.4402611995599696 0  0.2150546830875296 0.4392486867048446 0  0.1958339189717743 0.7839328040573448 0  0.1958167551155252 0.7839068334135562 0  0.3152771921393367 0.7839328040573447 0  0.1948042422604028 0.7849453169124678 0  0.3152943559955858 0.783906833413554 0  0.1948042433465913 0.7039435730626098 0  0.3163068677645284 0.7849453158262878 0  0.1958167551155251 0.7049820554753328 0  0.4140846558147206 0.7444444444444445 0  0.1958339189717744 0.7049560848315441 0  0.3163068688486237 0.7039435719785058 0  0.3152771921393367 0.7049560848315441 0  0.3152943559955858 0.7049820554753349 0  0.4402783634162188 0.5394883596129003 0  0.4402611995599696 0.5394623889691117 0  0.5597216365837812 0.5394883596129002 0  0.4392486867048468 0.5405008724680237 0  0.5597388004400302 0.5394623889691096 0  0.4392486877998708 0.4594991286270004 0  0.5607513122089726 0.540500871381843 0  0.4402611995599696 0.4605376110308884 0  0.6585291002591651 0.5 0  0.4402783634162188 0.4605116403870998 0  0.5607513121946796 0.45949912863245 0  0.5597216365837812 0.4605116403870998 0  0.5597388004400302 0.4605376110308904 0  0.78494531690701 0.5607513132896949 0  0.8017213405679641 0.6012522041356455 0  0.7839068334135535 0.5597388004400315 0  0.7039435730626069 0.5607513122089671 0  0.7839328040573448 0.5597216365837812 0  0.7049820554753355 0.5597388004400314 0  0.7839328040573448 0.4402783634162188 0  0.7049560848315441 0.5597216365837812 0  0.7839068334135545 0.4402611995599696 0  0.7291075844940784 0.5 0  0.784945315826279 0.4392486877910359 0  0.7049560848315444 0.4402783634162188 0  0.8017213405679641 0.3987477958643545 0  0.7049820554753344 0.4402611995599696 0  0.7039435719764182 0.4392486867048443 0  0.5405008724625655 0.8051957577341393 0  0.5572768961235196 0.84569664858009 0  0.539462388969109 0.804183244884476 0  0.4594991286181648 0.8051957566534091 0  0.5394883596129003 0.8041660810282256 0  0.4605376110308911 0.804183244884476 0  0.5394883596129003 0.6847228078606633 0  0.4605116403870998 0.8041660810282256 0  0.53946238896911 0.6847056440044139 0  0.4846631400496339 0.7444444444444445 0  0.5405008713818347 0.6836931322354802 0  0.4605116403870998 0.6847228078606633 0  0.5572768961235196 0.643192240308799 0  0.46053761103089 0.6847056440044139 0  0.4594991275353449 0.6836931311526599 0  0.6847228078606633 0.7839328040573448 0  0.684705644004414 0.7839068334135562 0  0.8041660810282256 0.7839328040573447 0  0.6836931311493016 0.7849453169124578 0  0.8041832448844747 0.783906833413554 0  0.68369313223548 0.7039435730626096 0  0.805195756653417 0.7849453158262875 0  0.6847056440044141 0.7049820554753328 0  0.9029735447036096 0.7444444444444445 0  0.6847228078606633 0.7049560848315441 0  0.805195757738809 0.7039435719772094 0  0.8041660810282256 0.7049560848315441 0  0.8041832448844747 0.7049820554753349 0  0.9578164230213342 0.6948838683471341 0  0.9645772892192558 0.7062137009141434 0  0.9695236884064815 0.7184451175460498 0  0.972538971146615 0.7312896684428197 0  0.9725389711466151 0.7575992204460691 0  0.9695236884064815 0.7704437713428391 0  0.9645772892192558 0.7826751879747456 0  0.9578164230213342 0.7940050205417549 0  0.01437766570919127 0.09711967848259151 0  0.02854851642641832 0.09974531144948819 0  0.04161535472570586 0.1058251712658871 0  0.05275088139110013 0.1149743244732108 0  0.06125007411586489 0.1266135117968212 0  0.06657482449792251 0.1400058227212122 0  0.06643634307317195 0.1691277076584997 0  0.06071435336153361 0.1829418078690686 0  0.04134737123322858 0.3039103077764334 0  0.03416190609801732 0.2911362521989113 0  0.02925217947541549 0.2773267630846004 0  0.02676106927623143 0.2628837102534819 0  0.02676106927623143 0.2482274008576293 0  0.02925217947541547 0.2337843480265108 0  0.03416190609801727 0.2199748589121999 0  0.04134737123322851 0.2072008033346779 0  0.06071435387356935 0.328169304128914 0  0.06643634320569657 0.3419834039471998 0  0.06657482449792249 0.371105288389899 0  0.06125007411586481 0.3844975993142901 0  0.05275088139109994 0.3961367866379005 0  0.04161535472570563 0.4052859398452242 0  0.02854851642641818 0.411365799661623 0  0.01437766570919127 0.4139914326285196 0  0 0.4697526254167924 0  0 0.455563619650285 0  0 0.4413746138837777 0  0 0.4271856081172704 0  0.06095233986089402 0.4687284952262988 0  0.04995687430503332 0.4753797281664747 0  0.03809234373417287 0.4803165365228644 0  0.02562418374773841 0.4834284730529493 0  0.01283133446055119 0.4846459169037758 0  0.08372485599813187 0.4503967593658507 0  0.09753895276796982 0.4446747697099958 0  0.1123633055586467 0.4427231038764812 0  0.1271876590095525 0.4446747646950606 0  0.1410017577150834 0.45039674967774 0  0.1528641934757506 0.4594991149204779 0  0.161966560724962 0.471361549141524 0  0.1676885480442292 0.4851756468792086 0  0.1676885480443665 0.514824353120279 0  0.1619665607254926 0.528638450857557 0  0.1528641934768762 0.5405008850783964 0  0.1410017577169217 0.5496032503211987 0  0.1271876590121153 0.5553252353042526 0  0.1123633055618306 0.5572768961235188 0  0.09753895277155772 0.5553252302909656 0  0.08372485600180817 0.5496032406362719 0  0.0128313344605512 0.5153540830962242 0  0.0256241837477384 0.5165715269470507 0  0.03809234373417282 0.5196834634771356 0  0.04995687430503334 0.5246202718335253 0  0.06095233986089401
[...]
<PointData  Vectors="$u$"> 
<DataArray  type="Float64"  Name="$u$"  NumberOfComponents="3" format="ascii">3.1765223633341139e-03 2.3508278661299131e-02 0.0000000000000000e+00  3.1021434972347797e-03 2.3544480187762010e-02 0.0000000000000000e+00  3.1010839109990667e-03 2.3543420346969563e-02 0.0000000000000000e+00  2.7983183794774973e-04 2.4036173334207156e-02 0.0000000000000000e+00  -4.4750251303665598e-04 2.3189657755826300e-02 0.0000000000000000e+00  -4.4754813441969660e-04 2.3190006663531031e-02 0.0000000000000000e+00  -4.3880422864991009e-04 2.3168929275627480e-02 0.0000000000000000e+00  -4.0277636107463010e-05 2.4361711105551111e-05 0.0000000000000000e+00  1.2188349989641702e-05 4.3360657224078423e-04 0.0000000000000000e+00  3.2457529518426057e-04 5.7607031406577201e-04 0.0000000000000000e+00  3.3389290551708907e-04 5.5691956131126961e-04 0.0000000000000000e+00  3.3385848673033825e-04 5.5723131947336632e-04 0.0000000000000000e+00  -3.2220045192355999e-03 1.9860540062081135e-04 0.0000000000000000e+00  -3.2231000859275936e-03 1.9747095913277615e-04 0.0000000000000000e+00  -3.3003121374469424e-03 2.3630013449712887e-04 0.0000000000000000e+00  -6.4090530977020587e-03 1.2731912157033279e-03 0.0000000000000000e+00  -1.0626353496612456e-02 -3.8881267987424689e-03 0.0000000000000000e+00  -1.6030053556588122e-02 -3.8881839179309755e-03 0.0000000000000000e+00  -1.4246377460197284e-02 1.5067070274503991e-03 0.0000000000000000e+00  -1.4248352228299604e-02 1.5080126290374358e-03 0.0000000000000000e+00  -1.4169452146842790e-02 1.5850897586403030e-03 0.0000000000000000e+00  -1.4039697446162588e-02 1.1853209726338994e-02 0.0000000000000000e+00  -1.4205991668392863e-02 2.2175103212079491e-02 0.0000000000000000e+00  -1.4284935876873883e-02 2.2251871586050284e-02 0.0000000000000000e+00  -1.4282962871743908e-02 2.2253174062744987e-02 0.0000000000000000e+00  -1.6064772679593116e-02 2.7642078804638291e-02 0.0000000000000000e+00  -1.0666967187143663e-02 2.7642012125956503e-02 0.0000000000000000e+00  -6.4542964086009447e-03 2.2482263284087919e-02 0.0000000000000000e+00  -3.3487698067984411e-03 2.3508146176818491e-02 0.0000000000000000e+00  -3.2746797138536320e-03 2.3546788611258369e-02 0.0000000000000000e+00  -3.2736335115483252e-03 2.3545674527231920e-02 0.0000000000000000e+00  2.4347187426658370e-04 2.3185806099919420e-02 0.0000000000000000e+00  2.4349660942784963e-04 2.3186095350391456e-02 0.0000000000000000e+00  2.3390190262349494e-04 2.3167430455389864e-02 0.0000000000000000e+00  -7.9545641174123030e-05 2.3318519254994913e-02 0.0000000000000000e+00  -1.3346554478673985e-04 2.3725309416054871e-02 0.0000000000000000e+00  -8.5663993790537597e-05 2.3750000000000000e-02 0.0000000000000000e+00  -1.1829452636139311e-04 2.3750000000000000e-02 0.0000000000000000e+00  -7.0527620366458952e-05 2.3725045259737773e-02 0.0000000000000000e+00  1.0511606565279477e-02 2.7650460483875604e-02 0.0000000000000000e+00  1.5922852244950471e-02 2.7650524261766229e-02 0.0000000000000000e+00  1.4136743904212632e-02 2.2247957542380885e-02 0.0000000000000000e+00  1.4138724739926486e-02 2.2246648760781713e-02 0.0000000000000000e+00  1.4059547777975979e-02 2.2169438992978539e-02 0.0000000000000000e+00  1.4108098459673687e-02 1.5753131617146890e-03 0.0000000000000000e+00  1.4186787638708728e-02 1.4983266252940176e-03 0.0000000000000000e+00  1.4184817569579608e-02 1.4970236277771212e-03 0.0000000000000000e+00  1.5966592405725066e-02 -3.8920536531045933e-03 0.0000000000000000e+00  1.0568737497000427e-02 -3.8919782848219832e-03 0.0000000000000000e+00  3.2524781547541054e-03 2.3919025403916844e-04 0.0000000000000000e+00  3.1782587355157488e-03 2.0106196435605103e-04 0.0000000000000000e+00  3.1772076965370208e-03 2.0216935081512709e-04 0.0000000000000000e+00  3.6936392005283605e-04 -2.8545358737234571e-04 0.0000000000000000e+00  -3.5773490216314835e-04 5.5791765062107514e-04 0.0000000000000000e+00  -3.5774708556626371e-04 5.5755663259839485e-04 0.0000000000000000e+00  -3.4636281109990931e-04 5.7870063347782773e-04 0.0000000000000000e+00  1.6862510410695170e-05 2.4659692186183183e-05 0.0000000000000000e+00  -3.1429647930069603e-05 0.0000000000000000e+00 0.0000000000000000e+00  0.0000000000000000e+00 0.0000000000000000e+00 0.0000000000000000e+00  -3.9097250867922697e-03 1.0786237730568160e-02 0.0000000000000000e+00  -3.9096540039130299e-03 1.0785010155657634e-02 0.0000000000000000e+00  -4.6760273513759163e-03 1.0799927602006713e-02 0.0000000000000000e+00  -3.9053092739122358e-03 1.0699558445669910e-02 0.0000000000000000e+00  -4.6762977911583327e-03 1.0799433711099569e-02 0.0000000000000000e+00  -9.2543036551903904e-05 4.7276095492780844e-05 0.0000000000000000e+00  -4.6720528519211008e-03 1.0759287190139834e-02 0.0000000000000000e+00  -9.5351620925248761e-05 4.7358757836517623e-05 0.0000000000000000e+00  -4.3550687478545345e-03 3.5605886896615158e-03 0.0000000000000000e+00  -9.5299133570006926e-05 4.7383746546404824e-05 0.0000000000000000e+00  -2.3154866551696211e-04 3.6975471164083007e-05 0.0000000000000000e+00  -2.2856263867639421e-04 3.8184192743631377e-05 0.0000000000000000e+00  -2.2849606950968161e-04 3.8146374508534079e-05 0.0000000000000000e+00  4.6911784624687584e-03 4.3164652075863971e-03 0.0000000000000000e+00  2.7758438042569276e-03 4.8875197271063871e-03 0.0000000000000000e+00  4.7343046310514740e-03 4.3252744592425585e-03 0.0000000000000000e+00  -4.7692284556448685e-03 4.3126013952840513e-03 0.0000000000000000e+00  4.7348516465305175e-03 4.3252009562223855e-03 0.0000000000000000e+00  -4.8107495657708022e-03 4.3261117151993690e-03 0.0000000000000000e+00  2.2428743899809839e-03 4.3428329277244507e-03 0.0000000000000000e+00  -4.8112621018927548e-03 4.3259076456124658e-03 0.0000000000000000e+00  2.2411736675364774e-03 4.3448643658767537e-03 0.0000000000000000e+00  -4.9437354869414033e-03 5.0140213385748873e-03 0.0000000000000000e+00  2.1331100813225313e-03 4.2763421427795103e-03 0.0000000000000000e+00  -2.2765258765195359e-03 4.3260966640438570e-03 0.0000000000000000e+00  4.0568812190727824e-04 1.1214803938910493e-03 0.0000000000000000e+00  -2.2747706225170897e-03 4.3283655180207693e-03 0.0000000000000000e+00  -2.1642636889598432e-03 4.2483867066406781e-03 0.0000000000000000e+00  4.6016859387165085e-03 1.0807803597485132e-02 0.0000000000000000e+00  4.6018660131573914e-03 1.0807305436089385e-02 0.0000000000000000e+00  3.8383916351832801e-03 1.0751600227031817e-02 0.0000000000000000e+00  4.6010703018879379e-03 1.0766680972437515e-02 0.0000000000000000e+00  3.8382215471245121e-03 1.0750425559622289e-02 0.0000000000000000e+00  2.0906109478048028e-04 3.5548443778324505e-05 0.0000000000000000e+00  3.8378148775059465e-03 1.0669199398664144e-02 0.0000000000000000e+00  2.0664269091085743e-04 3.7089945726739288e-05 0.0000000000000000e+00  6.1394607744852630e-04 1.7424689737311155e-03 0.0000000000000000e+00  2.0670196269817487e-04 3.7127265626390884e-05 0.0000000000000000e+00  6.9645702887613186e-05 4.5655234532806691e-05 0.0000000000000000e+00  7.2341149121612700e-05 4.6928268644490925e-05 0.0000000000000000e+00  7.2401772834588941e-05 4.6892701646179577e-05 0.0000000000000000e+00  1.0255031127082478e-03 1.1793531418376867e-02 0.0000000000000000e+00  -1.0893326396609207e-03 1.2762240608687728e-02 0.0000000000000000e+00  1.0853567382571811e-03 1.1771663976449345e-02 0.0000000000000000e+00  -1.2890033354151864e-02 1.1495809700141505e-02 0.0000000000000000e+00  1.0861486913098361e-03 1.1772390446680591e-02 0.0000000000000000e+00  -1.2961649984730537e-02 1.1479332040810445e-02 0.0000000000000000e+00  1.1109566903269752e-03 1.2013140160423081e-02 0.0000000000000000e+00  -1.2962641296543904e-02 1.1479865187424452e-02 0.0000000000000000e+00  1.1102111883554598e-03 1.2013854177470621e-02 0.0000000000000000e+00  -1.5064318271938585e-02 1.1910091217459222e-02 0.0000000000000000e+00  1.0538361088974755e-03 1.1991812817997995e-02 0.0000000000000000e+00  -1.2917157471559844e-02 1.2264960061361053e-02 0.0000000000000000e+00  -1.0598438209860003e-03 1.1026257824014637e-02 0.0000000000000000e+00  -1.2916297810793792e-02 1.2265150439976703e-02 0.0000000000000000e+00  -1.2852676883797487e-02 1.2262744142936361e-02 0.0000000000000000e+00  -1.8904542847361555e-04 2.3704149323469835e-02 0.0000000000000000e+00  -1.8911314515131480e-04 2.3704184406357284e-02 0.0000000000000000e+00  -3.2417204769156772e-04 2.3714704885070433e-02 0.0000000000000000e+00  -1.8574985756002169e-04 2.3704959202124534e-02 0.0000000000000000e+00  -3.2410610659453079e-04 2.3714746231622626e-02 0.0000000000000000e+00  -3.9573013675790383e-03 1.3070604526141359e-02 0.0000000000000000e+00  -3.2686338654360462e-04 2.3716387772719189e-02 0.0000000000000000e+00  -3.9555207130975390e-03 1.2984402921065917e-02 0.0000000000000000e+00  -4.2813712118673700e-03 2.0274602451219589e-02 0.0000000000000000e+00  -3.9557333677337058e-03 1.2983172362118775e-02 0.0000000000000000e+00  -4.7216830611484049e-03 1.3033958971556760e-02 0.0000000000000000e+00  -4.7250318518088823e-03 1.2992494620369468e-02 0.0000000000000000e+00  -4.7252840021893465e-03 1.2992996360728218e-02 0.0000000000000000e+00  2.8739463743786406e-04 1.8629548083230377e-02 0.0000000000000000e+00  2.8762816248571402e-04 1.8629150894545369e-02 0.0000000000000000e+00  -4.3272975706269598e-04 1.8630587474318117e-02 0.0000000000000000e+00  2.8517448037296451e-04 1.8594417283759278e-02 0.0000000000000000e+00  -4.3296208075652251e-04 1.8630208840615999e-02 0.0000000000000000e+00  3.1721378987267297e-04 5.2074568488961435e-03 0.0000000000000000e+00  -4.3059479236253438e-04 1.8596391404730555e-02 0.0000000000000000e+00  3.1973479033985076e-04 5.1767410340749533e-03 0.0000000000000000e+00  -1.8836838680998502e-03 1.1879229139239939e-02 0.0000000000000000e+00  3.1950169455750252e-04 5.1764121537353543e-03 0.0000000000000000e+00  -3.9540543787633392e-04 5.2073961503204744e-03 0.0000000000000000e+00  -3.9847786667901539e-04 5.1734317226697609e-03 0.0000000000000000e+00  -3.9873203824458795e-04 5.1738051347974675e-03 0.0000000000000000e+00  1.2733942613202430e-02 1.1470979699480074e-02 0.0000000000000000e+00  9.4721162302289028e-03 1.2543815918503754e-02 0.0000000000000000e+00  1.2812337479164985e-02 1.1449030117290379e-02 0.0000000000000000e+00  -1.1732231883412846e-03 1.1814020328523283e-02 0.0000000000000000e+00  1.2813446818137841e-02 1.1449714854864321e-02 0.0000000000000000e+00  -1.2338740302621949e-03 1.1794326192386949e-02 0.0000000000000000e+00  1.2865198661906517e-02 1.2274689695912550e-02 0.0000000000000000e+00  -1.2346914285308020e-03 1.1794975904126528e-02 0.0000000000000000e+00  1.2864173070766824e-02 1.2275428010408061e-02 0.0000000000000000e+00  -2.7149059016949935e-03 1.1922059704035402e-02 0.0000000000000000e+00  1.2791690583243920e-02 1.2251171812240010e-02 0.0000000000000000e+00  -1.1886080435380912e-03 1.2020551240345659e-02 0.0000000000000000e+00  9.5329615882547864e-03 1.1170361795833979e-02 0.0000000000000000e+00  -1.1879811764904395e-03 1.2021123488127353e-02 0.0000000000000000e+00  -1.1391633343374188e-03 1.2004738821447100e-02 0.0000000000000000e+00  1.9872881443693158e-03 1.9561968178560069e-02 0.0000000000000000e+00  2.8270518707469662e-04 2.2635266230147777e-02 0.0000000000000000e+00  2.0874576265166069e-03 1.9485025613074723e-02 0.0000000000000000e+00  -2.1520668437287221e-03 1.9561641368652530e-02 0.0000000000000000e+00  2.0890450847964107e-03 1.9487173630834402e-02 0.0000000000000000e+00  -2.2540320633015745e-03 1.9496808024462454e-02 0.0000000000000000e+00  4.6834932148727363e-03 1.9483621075534554e-02 0.0000000000000000e+00  -2.2556231424723317e-03 1.9498691796864233e-02 0.0000000000000000e+00  4.6829869535549035e-03 1.9483497996039777e-02 0.0000000000000000e+00  -4.9714507480439988e-03 1.8790535045938021e-02 0.0000000000000000e+00  4.6405561940291388e-03 1.9493240693036054e-02 0.0000000000000000e+00  -4.8510752700798385e-03 1.9485046988021316e-02 0.0000000000000000e+00  2.7279355089594509e-03 1.8919852787106818e-02 0.0000000000000000e+00  -4.8504823007941436e-03 1.9484811609442706e-02 0.0000000000000000e+00  -4.8052890510335757e-03 1.9500080726288102e-02 0.0000000000000000e+00  1.2024664777407012e-04 2.3714157213761411e-02 0.0000000000000000e+00  1.2017465216215271e-04 2.3714202875539808e-02 0.0000000000000000e+00  -1.5860555747639247e-05 2.3704421620995200e-02 0.0000000000000000e+00  1.2309963873665680e-04 2.3716320710077326e-02 0.0000000000000000e+00  -1.5829057579248315e-05 2.3704429555177813e-02 0.0000000000000000e+00  4.5694052280142302e-03 1.3048908628485454e-02 0.0000000000000000e+00  -1.8045970047219774e-05 2.3703274509450759e-02 0.0000000000000000e+00  4.5735208034225630e-03 1.3009485754096507e-02 0.0000000000000000e+00  5.4313107573638795e-04 2.1964684609043685e-02 0.0000000000000000e+00  4.5732533953899935e-03 1.3009005644986863e-02 0.0000000000000000e+00  3.8112672542604496e-03 1.3034793857868862e-02 0.0000000000000000e+00  3.8158462718495046e-03 1.2951699476951651e-02 0.0000000000000000e+00  3.8158024179113141e-03 1.2952863391778320e-02 0.0000000000000000e+00  2.4382568142847210e-03 2.3900100144379315e-02 0.0000000000000000e+00  1.8037685174558753e-03 2.4100604370334337e-02 0.0000000000000000e+00  1.2197838704190625e-03 2.4182128756946746e-02 0.0000000000000000e+00  7.0609504357605846e-04 2.4147775508098209e-02 0.0000000000000000e+00  -4.9265174093080274e-05 2.3872297551171033e-02 0.0000000000000000e+00  -2.8036224052403042e-04 2.3678416699571180e-02 0.0000000000000000e+00  -4.1826125906665773e-04 2.3486528393081053e-02 0.0000000000000000e+00  -4.7031471355612819e-04 2.3312342373797024e-02 0.0000000000000000e+00  -3.9022940795482195e-05 4.1690604821565487e-05 0.0000000000000000e+00  -4.5552644931887192e-05 6.5196486345017553e-05 0.0000000000000000e+00  -5.0010302407740048e-05 1.0384064321406352e-04 0.0000000000000000e+00  -5.6211199947290639e-05 1.5535946845871292e-04 0.0000000000000000e+00  -5.3858377254677799e-05 2.2993483843995079e-04 0.0000000000000000e+00  -3.1578555497373525e-05 3.2547168525705360e-04 0.0000000000000000e+00  9.8314469208946010e-05 5.5278842074950492e-04 0.0000000000000000e+00  2.1848829703444015e-04 6.1512360087786285e-04 0.0000000000000000e+00  -2.4855205730766631e-03 -1.8327870110784796e-04 0.0000000000000000e+00  -1.7878199052833105e-03 -3.8680318180360192e-04 0.0000000000000000e+00  -1.1601180328566678e-03 -4.3652381120878186e-04 0.0000000000000000e+00  -6.2452187575994965e-04 -3.6311832139075911e-04 0.0000000000000000e+00  -2.0452218537130406e-04 -2.0713183006004126e-04 0.0000000000000000e+00  9.7256734957932423e-05 -1.0652036412446273e-06 0.0000000000000000e+00  2.7943585156374131e-04 2.1665606028433671e-04 0.0000000000000000e+00  3.5277053669916756e-04 4.1474509210298290e-04 0.0000000000000000e+00  -4.1954733418791820e-03 7.2168092368305760e-04 0.0000000000000000e+00  -5.2787858423619886e-03 1.0979954203108433e-03 0.0000000000000000e+00  -7.4777523268193796e-03 1.1673490728761702e-03 0.0000000000000000e+00  -8.4731337713178003e-03 7.7549450665330996e-04 0.0000000000000000e+00  -9.3472910554020187e-03 1.3179367075583586e-04 0.0000000000000000e+00  -1.0039952933244438e-02 -7.1724739058305034e-04 0.0000000000000000e+00  -1.0502118730518459e-02 -1.7132974403915495e-03 0.0000000000000000e+00  -1.0702130907145056e-02 -2.7929258408918431e-03 0.0000000000000000e+00  -1.4949369522944667e-02 -3.8882050619536016e-03 0.0000000000000000e+00  -1.3868614935067490e-02 -3.8881910915992764e-03 0.0000000000000000e+00  -1.2787919792045771e-02 -3.8881315833726600e-03 0.0000000000000000e+00  -1.1707147617046498e-02 -3.8881602334839074e-03 0.0000000000000000e+00  -1.4871753989473397e-02 7.5404775339145424e-04 0.0000000000000000e+00  -1.5378051888991398e-02 -8.3465687616006697e-05 0.0000000000000000e+00  -1.5753973406137711e-02 -9.8697502603028553e-04 0.0000000000000000e+00  -1.5990978628606635e-02 -1.9365721540273552e-03 0.0000000000000000e+00  -1.6083692744528175e-02 -2.9109122109239162e-03 0.0000000000000000e+00  -1.3477645390355054e-02 2.4902170632232464e-03 0.0000000000000000e+00  -1.3045479089958531e-02 3.5512613742150157e-03 0.0000000000000000e+00  -1.2894095049376787e-02 4.7059051797822644e-03 0.0000000000000000e+00  -1.3042998518166142e-02 5.8878286328662467e-03 0.0000000000000000e+00  -1.3445676075917352e-02 7.0462538152074707e-03 0.0000000000000000e+00  -1.4016362012100657e-02 8.0807381422205709e-03 0.0000000000000000e+00  -1.4408423657276933e-02 9.0447135016640898e-03 0.0000000000000000e+00  -1.4100692012405871e-02 1.0354893418818678e-02 0.0000000000000000e+00  -1.4186528408840708e-02 1.3393773725514316e-02 0.0000000000000000e+00  -1.4302576897353481e-02 1.4736578977737839e-02 0.0000000000000000e+00  -1.4070984656546572e-02 1.5689029539187375e-02 0.0000000000000000e+00  -1.3482761141820771e-02 1.6720113198789452e-02 0.0000000000000000e+00  -1.3083776197457398e-02 1.7877273903824705e-02 0.0000000000000000e+00  -1.2933342437059025e-02 1.9059165853716309e-02 0.0000000000000000e+00  -1.3082934975293382e-02 2.0210686119931636e-02 0.0000000000000000e+00  -1.3515864747117615e-02 2.1270626200325254e-02 0.0000000000000000e+00  -1.6118349579105459e-02 2.6665870397447781e-02 0.0000000000000000e+00  -1.6025722884703501e-02 2.5692604716997646e-02 0.0000000000000000e+00  -1.5789002755790624e-02 2.4744053039573843e-02 0.0000000000000000e+00  -1.5413453939156233e-02 2.3841509654681434e-02 0.0000000000000000e+00  -1.4907721617643489e-02 2.3004972210451512e-02 0.0000000000000000e+00  -1.1746631518160180e-02 2.7642026608198641e-02 0.0000000000000000e+00  -1.2826160759371916e-02 2.7642048798191935e-02 0.0000000000000000e+00  -1.3905712383206873e-02 2.7642080567165841e-02 0.0000000000000000e+00  -1.4985264763116105e-02 2.7642095985766481e-02 0.0000000000000000e+00  -1.0742805243917190e-02 2.6548018328241069e-02 0.0000000000000000e+00  -1.0542686347928567e-02 2.5469709306011667e-02 0.0000000000000000e+00  -1.0081326614585251e-02 2.4474253703407944e-02 0.0000000000000000e+00  -9.3890366747225555e-03 2.3626677461368362e-02 0.0000000000000000e+00  -8.5158722355089412e-03 2.2983358502194760e-02 0.0000000000000000e+00  -7.5199738724948256e-03 2.2591340767815361e-02 0.0000000000000000e+00  -5.3238055425199014e-03 2.2657915317839311e-02 0.0000000000000000e+00  -4.2469382421210997e-03 2.3030354960692653e-02 0.0000000000000000e+00  2.6535657697041330e-04 2.3324037769190266e-02 0.0000000000000000e+00  1.9553519846437524e-04 2.3519149979765300e-02 0.0000000000000000e+00  1.7582559724695407e-05 2.3735792580888510e-02 0.0000000000000000e+00  -2.7678677182892505e-04 2.3939190619909657e-02 0.0000000000000000e+00  -6.9534382688991175e-04 2.4099397146523257e-02 0.0000000000000000e+00  -1.2207274787361388e-03 2.4168347450943817e-02 0.0000000000000000e+00  -1.8484556640404127e-03 2.4125944317143252e-02 0.0000000000000000e+00  -2.5399561574851598e-03 2.3925554785218461e-02 0.0000000000000000e+00  1.2744137976744490e-04 2.3129894685893798e-02 0.0000000000000000e+00  4.4177043665706512e-06 2.3193371383045187e-02 0.0000000000000000e+00  -1.2607771269296293e-04 2.3424131002387025e-02 0.0000000000000000e+00  -1.4466937173684846e-04 2.3521144258600912e-02 0.0000000000000000e+00  -1.4796723389097014e-04 2.3590536915937713e-02 0.0000000000000000e+00  -1.4620572875062097e-04 2.3647958837625997e-02 0.0000000000000000e+00  -1.3671594085884497e-04 2.3683473851954573e-02 0.0000000000000000e+00  -1.3311716219578318e-04 2.3707864910409163e-02 0.0000000000000000e+00  -8.5908197507847986e-05 2.3741771827177627e-02 0.0000000000000000e+00  -8.7181850898120983e-05 2.3734551889278508e-02 0.0000000000000000e+00  -8.9783336848633694e-05 2.3728525426055535e-02 0.0000000000000000e+00  -9.4499595209811754e-05 2.3724958163384442e-02 0.0000000000000000e+00  -1.0294836773153471e-04 2.3723900818806078e-02 0.0000000000000000e+00  -1.1643622404358815e-04 2.3724976828029310e-02 0.0000000000000000e+00  -1.1547591190934104e-04 2.3750000000000000e-02 0.0000000000000000e+00  -1.1123933705260400e-