<?xml version="1.0"?>
<VTKFile type="UnstructuredGrid"  version="0.1"  >
<UnstructuredGrid>
<Piece  NumberOfPoints="4855" NumberOfCells="8780">
<Points>
<DataArray  type="Float64"  NumberOfComponents="3"  format="ascii">0.9483880164242298 0.6836931311526558 0  0.9494264999197789 0.6847056440044139 0  0.9494005292759887 0.6847228078606633 0  0.9735520289385229 0.7444444444444445 0  0.9494005292759886 0.8041660810282256 0  0.94942649991978 0.8041832448844759 0  0.9483880175070514 0.8051957566534116 0  3.131175874138137e-16 0.09811450876034808 0  0.06838800723463068 0.1543033514199101 0  0.05161198249294494 0.1948042433465922 0  0.0505735000802211 0.1958167551155251 0  0.05059947072401128 0.1958339189717744 0  0.0505994707240113 0.3152771921393367 0  0.05057350008021998 0.315294355995587 0  0.05161198357913653 0.3163068688507105 0  0.06838800723463068 0.356807759691201 0  3.252606517456513e-16 0.4129966023507631 0  -1.795438797635995e-16 0.4839416311832997 0  0.07083274769489223 0.4605116403870998 0  0.07084991155114129 0.4605376110308903 0  0.07186242331670639 0.4594991286215342 0  0.1696402113702762 0.5 0  0.07186242332008326 0.5405008713818427 0  0.0708499115511413 0.5394623889691096 0  0.07083274769489219 0.5394883596129002 0  -1.925543058334256e-16 0.5160583688167003 0  1.484923295436147e-15 0.5870033976492365 0  0.06838800723463068 0.643192240308799 0  0.05161198249294541 0.6836931322354806 0  0.05057350008022109 0.6847056440044139 0  0.0505994707240113 0.6847228078606633 0  0.0505994707240113 0.8041660810282256 0  0.05057350008021999 0.804183244884476 0  0.05161198249294764 0.8051957566534106 0  0.06838800723463068 0.84569664858009 0  1.485790657174135e-15 0.9018854912396524 0  0 1 0  1 1 0  0.9999999999999987 0.9018854912396523 0  1.000000000000001 0.5870033976492375 0  1 0.5160583688167003 0  0.9291672523051078 0.5394883596129003 0  0.9291500884488585 0.5394623889691117 0  0.9281375755937461 0.5405008724680134 0  0.9281375755937372 0.4594991275319777 0  0.9291500884488586 0.4605376110308884 0  0.9291672523051077 0.4605116403870997 0  1 0.4839416311832997 0  0.9999999999999987 0.4129966023507635 0  0.948388017507054 0.31630686776452 0  0.94942649991978 0.3152943559955871 0  0.9494005292759886 0.3152771921393367 0  0.9735520289385229 0.2555555555555555 0  0.9494005292759888 0.1958339189717744 0  0.9494264999197789 0.1958167551155251 0  0.9483880164208631 0.1948042422604003 0  1.000000000000001 0.09811450876034861 0  1 0 0  0 0 0  0.1958339189717744 0.2950439151684559 0  0.1958167551155252 0.2950179445246672 0  0.3152771921393367 0.2950439151684557 0  0.1948042433481841 0.2960564269357975 0  0.3152943559955858 0.2950179445246651 0  0.1948042422604031 0.2150546830875326 0  0.3163068677645244 0.2960564269373949 0  0.1958167551155251 0.2160931665864439 0  0.4140846558147206 0.2555555555555555 0  0.1958339189717744 0.2160671959426553 0  0.3163068688489276 0.215054683089313 0  0.3152771921393367 0.2160671959426553 0  0.3152943559955858 0.2160931665864459 0  0.5405008724680257 0.3163068688507107 0  0.5572768961235196 0.356807759691201 0  0.5394623889691089 0.3152943559955871 0  0.459499128618165 0.3163068677645201 0  0.5394883596129003 0.3152771921393367 0  0.4605376110308911 0.3152943559955871 0  0.5394883596129001 0.1958339189717744 0  0.4605116403870998 0.3152771921393367 0  0.53946238896911 0.1958167551155251 0  0.4846631400496339 0.2555555555555555 0  0.5405008724680251 0.1948042422604009 0  0.4605116403870998 0.1958339189717744 0  0.5572768961235196 0.1543033514199101 0  0.46053761103089 0.1958167551155251 0  0.4594991286269881 0.1948042433554141 0  0.6847228078606633 0.2950439151684559 0  0.684705644004414 0.2950179445246672 0  0.8041660810282256 0.2950439151684557 0  0.683693131164073 0.2960564280087975 0  0.8041832448844747 0.2950179445246651 0  0.6836931322354718 0.2150546841737125 0  0.8051957566534156 0.2960564269373971 0  0.6847056440044141 0.2160931665864439 0  0.9029735447036096 0.2555555555555555 0  0.6847228078606632 0.2160671959426553 0  0.8051957577274008 0.2150546830997286 0  0.8041660810282256 0.2160671959426553 0  0.8041832448844747 0.2160931665864459 0  0.2960564280235811 0.560751313295155 0  0.3128324516790751 0.6012522041356455 0  0.2950179445246645 0.5597388004400315 0  0.2150546830875235 0.5607513132951615 0  0.2950439151684557 0.5597216365837812 0  0.2160931665864466 0.5597388004400314 0  0.2950439151684558 0.4402783634162188 0  0.2160671959426553 0.5597216365837812 0  0.2950179445246656 0.4402611995599696 0  0.2402186956051895 0.5 0  0.29605642693739 0.439248687791036 0  0.2160671959426553 0.4402783634162189 0  0.3128324516790751 0.3987477958643545 0  0.2160931665864455 0.4402611995599696 0  0.2150546830875296 0.4392486867048446 0  0.1958339189717743 0.7839328040573448 0  0.1958167551155252 0.7839068334135562 0  0.3152771921393367 0.7839328040573447 0  0.1948042422604028 0.7849453169124678 0  0.3152943559955858 0.783906833413554 0  0.1948042433465913 0.7039435730626098 0  0.3163068677645284 0.7849453158262878 0  0.1958167551155251 0.7049820554753328 0  0.4140846558147206 0.7444444444444445 0  0.1958339189717744 0.7049560848315441 0  0.3163068688486237 0.7039435719785058 0  0.3152771921393367 0.7049560848315441 0  0.3152943559955858 0.7049820554753349 0  0.4402783634162188 0.5394883596129003 0  0.4402611995599696 0.5394623889691117 0  0.5597216365837812 0.5394883596129002 0  0.4392486867048468 0.5405008724680237 0  0.5597388004400302 0.5394623889691096 0  0.4392486877998708 0.4594991286270004 0  0.5607513122089726 0.540500871381843 0  0.4402611995599696 0.4605376110308884 0  0.6585291002591651 0.5 0  0.4402783634162188 0.4605116403870998 0  0.5607513121946796 0.45949912863245 0  0.5597216365837812 0.4605116403870998 0  0.5597388004400302 0.4605376110308904 0  0.78494531690701 0.5607513132896949 0  0.8017213405679641 0.6012522041356455 0  0.7839068334135535 0.5597388004400315 0  0.7039435730626069 0.5607513122089671 0  0.7839328040573448 0.5597216365837812 0  0.7049820554753355 0.5597388004400314 0  0.7839328040573448 0.4402783634162188 0  0.7049560848315441 0.5597216365837812 0  0.7839068334135545 0.4402611995599696 0  0.7291075844940784 0.5 0  0.784945315826279 0.4392486877910359 0  0.7049560848315444 0.4402783634162188 0  0.8017213405679641 0.3987477958643545 0  0.7049820554753344 0.4402611995599696 0  0.7039435719764182 0.4392486867048443 0  0.5405008724625655 0.8051957577341393 0  0.5572768961235196 0.84569664858009 0  0.539462388969109 0.804183244884476 0  0.4594991286181648 0.8051957566534091 0  0.5394883596129003 0.8041660810282256 0  0.4605376110308911 0.804183244884476 0  0.5394883596129003 0.6847228078606633 0  0.4605116403870998 0.8041660810282256 0  0.53946238896911 0.6847056440044139 0  0.4846631400496339 0.7444444444444445 0  0.5405008713818347 0.6836931322354802 0  0.4605116403870998 0.6847228078606633 0  0.5572768961235196 0.643192240308799 0  0.46053761103089 0.6847056440044139 0  0.4594991275353449 0.6836931311526599 0  0.6847228078606633 0.7839328040573448 0  0.684705644004414 0.7839068334135562 0  0.8041660810282256 0.7839328040573447 0  0.6836931311493016 0.7849453169124578 0  0.8041832448844747 0.783906833413554 0  0.68369313223548 0.7039435730626096 0  0.805195756653417 0.7849453158262875 0  0.6847056440044141 0.7049820554753328 0  0.9029735447036096 0.7444444444444445 0  0.6847228078606633 0.7049560848315441 0  0.805195757738809 0.7039435719772094 0  0.8041660810282256 0.7049560848315441 0  0.8041832448844747 0.7049820554753349 0  0.9578164230213342 0.6948838683471341 0  0.9645772892192558 0.7062137009141434 0  0.9695236884064815 0.7184451175460498 0  0.972538971146615 0.7312896684428197 0  0.9725389711466151 0.7575992204460691 0  0.9695236884064815 0.7704437713428391 0  0.9645772892192558 0.7826751879747456 0  0.9578164230213342 0.7940050205417549 0  0.01437766570919127 0.09711967848259151 0  0.02854851642641832 0.09974531144948819 0  0.04161535472570586 0.1058251712658871 0  0.05275088139110013 0.1149743244732108 0  0.06125007411586489 0.1266135117968212 0  0.06657482449792251 0.1400058227212122 0  0.06643634307317195 0.1691277076584997 0  0.06071435336153361 0.1829418078690686 0  0.04134737123322858 0.3039103077764334 0  0.03416190609801732 0.2911362521989113 0  0.02925217947541549 0.2773267630846004 0  0.02676106927623143 0.2628837102534819 0  0.02676106927623143 0.2482274008576293 0  0.02925217947541547 0.2337843480265108 0  0.03416190609801727 0.2199748589121999 0  0.04134737123322851 0.2072008033346779 0  0.06071435387356935 0.328169304128914 0  0.06643634320569657 0.3419834039471998 0  0.06657482449792249 0.371105288389899 0  0.06125007411586481 0.3844975993142901 0  0.05275088139109994 0.3961367866379005 0  0.04161535472570563 0.4052859398452242 0  0.02854851642641818 0.411365799661623 0  0.01437766570919127 0.4139914326285196 0  0 0.4697526254167924 0  0 0.455563619650285 0  0 0.4413746138837777 0  0 0.4271856081172704 0  0.06095233986089402 0.4687284952262988 0  0.04995687430503332 0.4753797281664747 0  0.03809234373417287 0.4803165365228644 0  0.02562418374773841 0.4834284730529493 0  0.01283133446055119 0.4846459169037758 0  0.08372485599813187 0.4503967593658507 0  0.09753895276796982 0.4446747697099958 0  0.1123633055586467 0.4427231038764812 0  0.1271876590095525 0.4446747646950606 0  0.1410017577150834 0.45039674967774 0  0.1528641934757506 0.4594991149204779 0  0.161966560724962 0.471361549141524 0  0.1676885480442292 0.4851756468792086 0  0.1676885480443665 0.514824353120279 0  0.1619665607254926 0.528638450857557 0  0.1528641934768762 0.5405008850783964 0  0.1410017577169217 0.5496032503211987 0  0.1271876590121153 0.5553252353042526 0  0.1123633055618306 0.5572768961235188 0  0.09753895277155772 0.5553252302909656 0  0.08372485600180817 0.5496032406362719 0  0.0128313344605512 0.5153540830962242 0  0.0256241837477384 0.5165715269470507 0  0.03809234373417282 0.5196834634771356 0  0.04995687430503334 0.5246202718335253 0  0.06095233986089401
[...]
<PointData  Vectors="$u$"> 
<DataArray  type="Float64"  Name="$u$"  NumberOfComponents="3" format="ascii">2.7138756600721338e-03 1.9725262036808827e-02 0.0000000000000000e+00  2.6513126252578883e-03 1.9757342882401420e-02 0.0000000000000000e+00  2.6504592823508987e-03 1.9756366827678371e-02 0.0000000000000000e+00  2.6349794023348755e-04 2.0178512782109349e-02 0.0000000000000000e+00  -3.5426570585078693e-04 1.9452957561163577e-02 0.0000000000000000e+00  -3.5431100678860196e-04 1.9453214438088076e-02 0.0000000000000000e+00  -3.4638632724914468e-04 1.9436069299172954e-02 0.0000000000000000e+00  -3.8745934726654777e-05 2.2317554290402517e-05 0.0000000000000000e+00  8.0485185809616536e-06 4.0999513728212308e-04 0.0000000000000000e+00  2.9713147127774438e-04 5.5721811492520082e-04 0.0000000000000000e+00  3.0541107366619766e-04 5.4138124450715743e-04 0.0000000000000000e+00  3.0537457387173639e-04 5.4161439437231285e-04 0.0000000000000000e+00  -2.7131866312879089e-03 2.3521792837202362e-04 0.0000000000000000e+00  -2.7140587834426719e-03 2.3418016552936423e-04 0.0000000000000000e+00  -2.7780488072937609e-03 2.6844967088799487e-04 0.0000000000000000e+00  -5.3757213979958585e-03 1.1607208823708566e-03 0.0000000000000000e+00  -8.8820239436820103e-03 -3.1330050188354600e-03 0.0000000000000000e+00  -1.3388999984698563e-02 -3.1330731366912045e-03 0.0000000000000000e+00  -1.1901482474764934e-02 1.3665458279866838e-03 0.0000000000000000e+00  -1.1903129294927942e-02 1.3676346241033623e-03 0.0000000000000000e+00  -1.1837330446073623e-02 1.4319144794425742e-03 0.0000000000000000e+00  -1.1829471884844874e-02 9.9778459643491968e-03 0.0000000000000000e+00  -1.1872047248634025e-02 1.8569069423330396e-02 0.0000000000000000e+00  -1.1937998308197353e-02 1.8633228678596576e-02 0.0000000000000000e+00  -1.1936349879158637e-02 1.8634316950194900e-02 0.0000000000000000e+00  -1.3425275372668804e-02 2.3137950961863066e-02 0.0000000000000000e+00  -8.9142022628426951e-03 2.3137879630133647e-02 0.0000000000000000e+00  -5.4048760138517568e-03 1.8837599466182138e-02 0.0000000000000000e+00  -2.8033572504500568e-03 1.9724907890175187e-02 0.0000000000000000e+00  -2.7410788121791925e-03 1.9758862488088905e-02 0.0000000000000000e+00  -2.7402327926407456e-03 1.9757844964775804e-02 0.0000000000000000e+00  2.4102071011923644e-04 1.9451541392271135e-02 0.0000000000000000e+00  2.4104992383709571e-04 1.9451757349038427e-02 0.0000000000000000e+00  2.3254100881026915e-04 1.9436399845635676e-02 0.0000000000000000e+00  -5.7021150221901048e-05 1.9592105079672413e-02 0.0000000000000000e+00  -1.0435560951039806e-04 1.9977412931261561e-02 0.0000000000000000e+00  -5.8528872358827617e-05 2.0000000000000000e-02 0.0000000000000000e+00  -5.3063295648821414e-05 2.0000000000000000e-02 0.0000000000000000e+00  -7.2482212112535935e-06 1.9977126573587276e-02 0.0000000000000000e+00  8.8352683745613943e-03 2.3145691471339155e-02 0.0000000000000000e+00  1.3355556655425593e-02 2.3145765093111694e-02 0.0000000000000000e+00  1.1863673742575879e-02 1.8632729785635425e-02 0.0000000000000000e+00  1.1865327597780202e-02 1.8631636932687209e-02 0.0000000000000000e+00  1.1799230080660117e-02 1.8567152546040012e-02 0.0000000000000000e+00  1.1816235011695306e-02 1.4229968198053084e-03 0.0000000000000000e+00  1.1881935705879790e-02 1.3587218741430876e-03 0.0000000000000000e+00  1.1880290872114693e-02 1.3576340498739697e-03 0.0000000000000000e+00  1.3367970239663277e-02 -3.1424532891337759e-03 0.0000000000000000e+00  8.8605600208556418e-03 -3.1423685638512972e-03 0.0000000000000000e+00  2.7568590963344413e-03 2.6802772690954954e-04 0.0000000000000000e+00  2.6944748132057550e-03 2.3472024992195935e-04 0.0000000000000000e+00  2.6936245331405369e-03 2.3572454527089415e-04 0.0000000000000000e+00  3.2262162010852945e-04 -1.7690352956617909e-04 0.0000000000000000e+00  -2.8799331811814907e-04 5.4034731774851006e-04 0.0000000000000000e+00  -2.8801464441617863e-04 5.4008794234484752e-04 0.0000000000000000e+00  -2.7804533064565060e-04 5.5715876781328971e-04 0.0000000000000000e+00  5.3683028585866171e-05 2.2498799369644185e-05 0.0000000000000000e+00  7.5028220327623253e-06 0.0000000000000000e+00 0.0000000000000000e+00  0.0000000000000000e+00 0.0000000000000000e+00 0.0000000000000000e+00  -3.2695022437934720e-03 9.1053364477156930e-03 0.0000000000000000e+00  -3.2692839671143118e-03 9.1044167330080732e-03 0.0000000000000000e+00  -3.9845702519303132e-03 9.0673367052485198e-03 0.0000000000000000e+00  -3.2707907870679217e-03 9.0381425667238509e-03 0.0000000000000000e+00  -3.9847177419479549e-03 9.0670348589550025e-03 0.0000000000000000e+00  -9.0727622969315050e-05 4.0779893687774910e-05 0.0000000000000000e+00  -3.9849765847712534e-03 9.0378918251559793e-03 0.0000000000000000e+00  -9.3391185924166444e-05 4.0806842569845507e-05 0.0000000000000000e+00  -3.6394431454745903e-03 2.7246534816554933e-03 0.0000000000000000e+00  -9.3341888038325871e-05 4.0829900142641948e-05 0.0000000000000000e+00  -2.2518810755216341e-04 2.9511754697926422e-05 0.0000000000000000e+00  -2.2222806546188503e-04 3.0774963021524816e-05 0.0000000000000000e+00  -2.2216128031603708e-04 3.0736611130725193e-05 0.0000000000000000e+00  4.0180542145859741e-03 3.4789912917858540e-03 0.0000000000000000e+00  2.3774505587967360e-03 3.9297562182211976e-03 0.0000000000000000e+00  4.0542643827523109e-03 3.4870015987143095e-03 0.0000000000000000e+00  -4.0509958141383947e-03 3.4757896411869811e-03 0.0000000000000000e+00  4.0546922326885476e-03 3.4869556898610688e-03 0.0000000000000000e+00  -4.0855919551993731e-03 3.4877450448301947e-03 0.0000000000000000e+00  1.7622964883260302e-03 3.5043403922819204e-03 0.0000000000000000e+00  -4.0859903430434420e-03 3.4875910472505376e-03 0.0000000000000000e+00  1.7610716309066114e-03 3.5060333249993933e-03 0.0000000000000000e+00  -4.0612152222335015e-03 4.1425912894082952e-03 0.0000000000000000e+00  1.6822738189215527e-03 3.4454634296182231e-03 0.0000000000000000e+00  -1.7469084855362763e-03 3.4947543692640665e-03 0.0000000000000000e+00  3.9328472478806088e-04 1.0739083669891538e-03 0.0000000000000000e+00  -1.7456630865637214e-03 3.4964943990322913e-03 0.0000000000000000e+00  -1.6669715289091729e-03 3.4332671825317729e-03 0.0000000000000000e+00  3.9564872925452353e-03 9.0715156233332934e-03 0.0000000000000000e+00  3.9565773570194463e-03 9.0711973090954121e-03 0.0000000000000000e+00  3.2462088627397009e-03 9.0838862087917471e-03 0.0000000000000000e+00  3.9590383260310353e-03 9.0408898366376913e-03 0.0000000000000000e+00  3.2459645796556803e-03 9.0830236517683172e-03 0.0000000000000000e+00  2.4135266525045882e-04 2.8671247289840234e-05 0.0000000000000000e+00  3.2483882861475905e-03 9.0204881714197067e-03 0.0000000000000000e+00  2.3872418638986193e-04 3.0051549183685403e-05 0.0000000000000000e+00  4.6791533230697253e-04 1.5368599555114714e-03 0.0000000000000000e+00  2.3878630958655566e-04 3.0089090131928416e-05 0.0000000000000000e+00  1.0641291750786807e-04 3.9576573576276246e-05 0.0000000000000000e+00  1.0907924116767163e-04 4.0611433151133974e-05 0.0000000000000000e+00  1.0913784470584781e-04 4.0578122226342596e-05 0.0000000000000000e+00  9.6985446779329089e-04 9.9132292446823967e-03 0.0000000000000000e+00  -8.6711833715636571e-04 1.0753743200848435e-02 0.0000000000000000e+00  1.0207169730765638e-03 9.8943111512670295e-03 0.0000000000000000e+00  -1.0795226729887199e-02 9.6910489998068648e-03 0.0000000000000000e+00  1.0213671399988938e-03 9.8949697023194821e-03 0.0000000000000000e+00  -1.0854102255415398e-02 9.6799187024918572e-03 0.0000000000000000e+00  1.0339581640844055e-03 1.0131314816861671e-02 0.0000000000000000e+00  -1.0854890843044926e-02 9.6803255989281831e-03 0.0000000000000000e+00  1.0333393323641896e-03 1.0131960613041854e-02 0.0000000000000000e+00  -1.2545430111266170e-02 1.0016435496027990e-02 0.0000000000000000e+00  9.8488489901622073e-04 1.0112920049119366e-02 0.0000000000000000e+00  -1.0818596248912861e-02 1.0300139868528888e-02 0.0000000000000000e+00  -8.5158528189239969e-04 9.2748032062252538e-03 0.0000000000000000e+00  -1.0817906557299138e-02 1.0300352711299445e-02 0.0000000000000000e+00  -1.0765127455218486e-02 1.0297223624985689e-02 0.0000000000000000e+00  -1.5943777426749394e-04 1.9960397686364418e-02 0.0000000000000000e+00  -1.5950001852723292e-04 1.9960429276741937e-02 0.0000000000000000e+00  -2.8970934865766716e-04 1.9971468296563828e-02 0.0000000000000000e+00  -1.5637158057251567e-04 1.9961019137472540e-02 0.0000000000000000e+00  -2.8964125475675257e-04 1.9971509173266632e-02 0.0000000000000000e+00  -3.3104434812761116e-03 1.0956597992149160e-02 0.0000000000000000e+00  -2.9259469791709209e-04 1.9972959928303464e-02 0.0000000000000000e+00  -3.3068680688865238e-03 1.0890707891598246e-02 0.0000000000000000e+00  -3.5737430102927938e-03 1.7313238802355919e-02 0.0000000000000000e+00  -3.3071324512723163e-03 1.0889805028541512e-02 0.0000000000000000e+00  -4.0188320729681220e-03 1.0995584292312304e-02 0.0000000000000000e+00  -4.0183169622741927e-03 1.0965104330790450e-02 0.0000000000000000e+00  -4.0184605482097664e-03 1.0965418784707527e-02 0.0000000000000000e+00  2.9525655253877963e-04 1.5834102924005784e-02 0.0000000000000000e+00  2.9532477373187883e-04 1.5833919410871512e-02 0.0000000000000000e+00  -3.6945548273588992e-04 1.5833912204693497e-02 0.0000000000000000e+00  2.9915394678941854e-04 1.5811700948978439e-02 0.0000000000000000e+00  -3.6952811180981801e-04 1.5833754618654019e-02 0.0000000000000000e+00  3.1818301651276418e-04 4.2248382669034445e-03 0.0000000000000000e+00  -3.7318372390010194e-04 1.5813064417743071e-02 0.0000000000000000e+00  3.1496220875381145e-04 4.2048687075232549e-03 0.0000000000000000e+00  -1.7586716631881048e-03 1.0004052966234630e-02 0.0000000000000000e+00  3.1488585439272036e-04 4.2047189871439877e-03 0.0000000000000000e+00  -3.5086394034324384e-04 4.2252422591982424e-03 0.0000000000000000e+00  -3.4796807115093067e-04 4.2032301483735353e-03 0.0000000000000000e+00  -3.4806040684371136e-04 4.2034056062382674e-03 0.0000000000000000e+00  1.0714997627438628e-02 9.6767377766958686e-03 0.0000000000000000e+00  7.9725231394424667e-03 1.0531526985048672e-02 0.0000000000000000e+00  1.0780433968375166e-02 9.6606826175895978e-03 0.0000000000000000e+00  -1.0436932053944602e-03 9.9243043367917682e-03 0.0000000000000000e+00  1.0781337208059601e-02 9.6612248772588137e-03 0.0000000000000000e+00  -1.0955826497486085e-03 9.9070999231425216e-03 0.0000000000000000e+00  1.0802631905232436e-02 1.0313605177347187e-02 0.0000000000000000e+00  -1.0962582678361145e-03 9.9077005266264544e-03 0.0000000000000000e+00  1.0801785450098344e-02 1.0314188943888695e-02 0.0000000000000000e+00  -2.3692100280194445e-03 1.0030075796553800e-02 0.0000000000000000e+00  1.0740445015218354e-02 1.0296475433577618e-02 0.0000000000000000e+00  -1.0663528154464372e-03 1.0132338726871498e-02 0.0000000000000000e+00  7.9993898157630049e-03 9.4302822214677798e-03 0.0000000000000000e+00  -1.0658392846352124e-03 1.0132840807970545e-02 0.0000000000000000e+00  -1.0238678475056832e-03 1.0119432131218783e-02 0.0000000000000000e+00  1.5773069597733095e-03 1.6603821345582463e-02 0.0000000000000000e+00  2.9802469919858150e-04 1.8932384906328755e-02 0.0000000000000000e+00  1.6509285481074241e-03 1.6542095271515646e-02 0.0000000000000000e+00  -1.6699187482976843e-03 1.6596512314069625e-02 0.0000000000000000e+00  1.6521057708854499e-03 1.6543768550852437e-02 0.0000000000000000e+00  -1.7455652739421219e-03 1.6542918351382191e-02 0.0000000000000000e+00  4.0213204723845725e-03 1.6550523194948732e-02 0.0000000000000000e+00  -1.7467259662457366e-03 1.6544447452225164e-02 0.0000000000000000e+00  4.0209153433418280e-03 1.6550424916133837e-02 0.0000000000000000e+00  -4.0776967199110054e-03 1.5895720149376482e-02 0.0000000000000000e+00  3.9849927082883339e-03 1.6559672151659915e-02 0.0000000000000000e+00  -4.1041462666539207e-03 1.6550466000917353e-02 0.0000000000000000e+00  2.3467964800049246e-03 1.6108605919595304e-02 0.0000000000000000e+00  -4.1036930849676035e-03 1.6550288840315695e-02 0.0000000000000000e+00  -4.0665970154026929e-03 1.6563721926229593e-02 0.0000000000000000e+00  1.7809040061584104e-04 1.9971160157058417e-02 0.0000000000000000e+00  1.7801410559065714e-04 1.9971207158805074e-02 0.0000000000000000e+00  4.6843749261826436e-05 1.9960701139925614e-02 0.0000000000000000e+00  1.8120564968149045e-04 1.9973222505206674e-02 0.0000000000000000e+00  4.6873137065607159e-05 1.9960708484198151e-02 0.0000000000000000e+00  3.9413860354785436e-03 1.1001406410758608e-02 0.0000000000000000e+00  4.4795422191766865e-05 1.9959591001372349e-02 0.0000000000000000e+00  3.9415021613826836e-03 1.0971558215490689e-02 0.0000000000000000e+00  4.2052381405846664e-04 1.8413401526649900e-02 0.0000000000000000e+00  3.9413438654520433e-03 1.0971245803276655e-02 0.0000000000000000e+00  3.2351251738864432e-03 1.0932530569046646e-02 0.0000000000000000e+00  3.2352466700818691e-03 1.0868225557888493e-02 0.0000000000000000e+00  3.2350787031143334e-03 1.0869087983520593e-02 0.0000000000000000e+00  2.0921590911933191e-03 2.0058484556338029e-02 0.0000000000000000e+00  1.5567480625169158e-03 2.0229528453130044e-02 0.0000000000000000e+00  1.0625497431267239e-03 2.0299428007383123e-02 0.0000000000000000e+00  6.2671997824684917e-04 2.0272212767966750e-02 0.0000000000000000e+00  -1.8325467517328021e-05 2.0039118240025314e-02 0.0000000000000000e+00  -2.1665868192309636e-04 1.9873444337038422e-02 0.0000000000000000e+00  -3.3460335290653011e-04 1.9708135030171870e-02 0.0000000000000000e+00  -3.7811998925955232e-04 1.9558500976348453e-02 0.0000000000000000e+00  -3.7595745863702521e-05 3.8739771430744828e-05 0.0000000000000000e+00  -4.3606516000122488e-05 6.0988665562839961e-05 0.0000000000000000e+00  -4.8162804478285641e-05 9.7229245942149784e-05 0.0000000000000000e+00  -5.4344705144088377e-05 1.4603866807083772e-04 0.0000000000000000e+00  -5.2496229599201502e-05 2.1638837707169719e-04 0.0000000000000000e+00  -3.2708083750402520e-05 3.0696054904966370e-04 0.0000000000000000e+00  8.7798014039658259e-05 5.2332778804079134e-04 0.0000000000000000e+00  1.9915681116819441e-04 5.8656572047482481e-04 0.0000000000000000e+00  -2.0937146616957923e-03 -8.9907742940165976e-05 0.0000000000000000e+00  -1.5038776789875494e-03 -2.6467438186427551e-04 0.0000000000000000e+00  -9.7042824523684240e-04 -3.0932417442406610e-04 0.0000000000000000e+00  -5.1338236668409080e-04 -2.4865730413900614e-04 0.0000000000000000e+00  -1.5271752110596954e-04 -1.1619519950237517e-04 0.0000000000000000e+00  1.0650775920145251e-04 6.0532293627601219e-05 0.0000000000000000e+00  2.6351957494420572e-04 2.4793456150361943e-04 0.0000000000000000e+00  3.2557544635868622e-04 4.1917030026909302e-04 0.0000000000000000e+00  -3.5291478180452794e-03 6.8083472012830861e-04 0.0000000000000000e+00  -4.4345357497978487e-03 1.0046612042754395e-03 0.0000000000000000e+00  -6.2630739330615890e-03 1.0791366910484633e-03 0.0000000000000000e+00  -7.0895285066428990e-03 7.5606885577066726e-04 0.0000000000000000e+00  -7.8162080183569529e-03 2.2007013768636708e-04 0.0000000000000000e+00  -8.3930984747547770e-03 -4.8816084773288602e-04 0.0000000000000000e+00  -8.7784457677692242e-03 -1.3190156326285656e-03 0.0000000000000000e+00  -8.9452277750088991e-03 -2.2195360921976976e-03 0.0000000000000000e+00  -1.2487655056447314e-02 -3.1330893017785786e-03 0.0000000000000000e+00  -1.1586251497303926e-02 -3.1330743344825849e-03 0.0000000000000000e+00  -1.0684891500038917e-02 -3.1330166621509319e-03 0.0000000000000000e+00  -9.7834780091951828e-03 -3.1330342169751508e-03 0.0000000000000000e+00  -1.2422990720850806e-02 7.3874819864361459e-04 0.0000000000000000e+00  -1.2845227648273378e-02 4.0224910853178059e-05 0.0000000000000000e+00  -1.3158742440801875e-02 -7.1334063672965969e-04 0.0000000000000000e+00  -1.3356408327760964e-02 -1.5053388344091014e-03 0.0000000000000000e+00  -1.3433736701586681e-02 -2.3179806457383134e-03 0.0000000000000000e+00  -1.1260681879094863e-02 2.1872487674769450e-03 0.0000000000000000e+00  -1.0900084425792919e-02 3.0737559207079279e-03 0.0000000000000000e+00  -1.0774214016134358e-02 4.0409206336454910e-03 0.0000000000000000e+00  -1.0896017665891183e-02 5.0354676075699276e-03 0.0000000000000000e+00  -1.1222945042609145e-02 6.0140228334838930e-03 0.0000000000000000e+00  -1.1696499478769648e-02 6.9011956782348387e-03 0.0000000000000000e+00  -1.2042232365336110e-02 7.7181343031193601e-03 0.0000000000000000e+00  -1.1842131917417186e-02 8.7774349435841593e-03 0.0000000000000000e+00  -1.1913761385535657e-02 1.1196541230755063e-02 0.0000000000000000e+00  -1.1965737370460939e-02 1.2287409175717389e-02 0.0000000000000000e+00  -1.1743673043638722e-02 1.3097903717401166e-02 0.0000000000000000e+00  -1.1256658548706736e-02 1.3983344059128018e-02 0.0000000000000000e+00  -1.0931805075350255e-02 1.4961957632517384e-02 0.0000000000000000e+00  -1.0808896635114378e-02 1.5958807165743816e-02 0.0000000000000000e+00  -1.0933761327346031e-02 1.6925353500001815e-02 0.0000000000000000e+00  -1.1295595283228724e-02 1.7812765693823431e-02 0.0000000000000000e+00  -1.3470048631751459e-02 2.2322116164698737e-02 0.0000000000000000e+00  -1.3392643407480583e-02 2.1508742488235432e-02 0.0000000000000000e+00  -1.3194809854294654e-02 2.0716032911042442e-02 0.0000000000000000e+00  -1.2880993909793701e-02 1.9961765665702614e-02 0.0000000000000000e+00  -1.2458371200786571e-02 1.9262655057894804e-02 0.0000000000000000e+00  -9.8165029015387512e-03 2.3137888580210701e-02 0.0000000000000000e+00  -1.0718694828581834e-02 2.3137913191213236e-02 0.0000000000000000e+00  -1.1620899541106903e-02 2.3137952022959863e-02 0.0000000000000000e+00  -1.2523109853782570e-02 2.3137964842586265e-02 0.0000000000000000e+00  -8.9775670902398699e-03 2.2223582864534876e-02 0.0000000000000000e+00  -8.8103550930745695e-03 2.1322368508229314e-02 0.0000000000000000e+00  -8.4249686834442505e-03 2.0490282547293497e-02 0.0000000000000000e+00  -7.8472466378092329e-03 1.9781945509913683e-02 0.0000000000000000e+00  -7.1199815873146987e-03 1.9245325880489293e-02 0.0000000000000000e+00  -6.2914711039019685e-03 1.8921362749148702e-02 0.0000000000000000e+00  -4.4615692976734470e-03 1.8994904342538942e-02 0.0000000000000000e+00  -3.5585117962608150e-03 1.9317243452184819e-02 0.0000000000000000e+00  2.6406544711797737e-04 1.9569581063193647e-02 0.0000000000000000e+00  2.0580160796476014e-04 1.9737113553349322e-02 0.0000000000000000e+00  5.3939380848200287e-05 1.9922595104430691e-02 0.0000000000000000e+00  -1.9752521268466910e-04 2.0096382923406885e-02 0.0000000000000000e+00  -5.5475756204633668e-04 2.0232894211527373e-02 0.0000000000000000e+00  -1.0027248893983776e-03 2.0290640622533489e-02 0.0000000000000000e+00  -1.5354093146143573e-03 2.0252552457685109e-02 0.0000000000000000e+00  -2.1208499816885223e-03 2.0081357342605004e-02 0.0000000000000000e+00  1.3484684083137370e-04 1.9409612366415172e-02 0.0000000000000000e+00  2.1348491509611734e-05 1.9472959465492455e-02 0.0000000000000000e+00  -9.9238021951683175e-05 1.9693089628981052e-02 0.0000000000000000e+00  -1.1607592693723118e-04 1.9784408817468412e-02 0.0000000000000000e+00  -1.1873519118439235e-04 1.9850453858291116e-02 0.0000000000000000e+00  -1.1634406292276937e-04 1.9904270378194595e-02 0.0000000000000000e+00  -1.0752881112664239e-04 1.9937878275200608e-02 0.0000000000000000e+00  -1.0397728815602817e-04 1.9960858313096491e-02 0.0000000000000000e+00  -5.8793180293827093e-05 1.9992424071871299e-02 0.0000000000000000e+00  -6.0045879509666036e-05 1.9985748309097384e-02 0.0000000000000000e+00  -6.2615087096629194e-05 1.9980263586496332e-02 0.0000000000000000e+00  -6.7201379926980470e-05 1.9976959261789301e-02 0.0000000000000000e+00  -7.5325214360563183e-05 1.9976080320893416e-02 0.0000000000000000e+00  -8.8181993554836861e-05 1.9977087774325129e-02 0.0000000000000000e+00  -5.0444365748729013e-05 2.0000000000000000e-02 0.0000000000000000e+00  -4.6494655796976286e-05 2.0