<?xml version="1.0"?>
<VTKFile type="UnstructuredGrid"  version="0.1"  >
<UnstructuredGrid>
<Piece  NumberOfPoints="4855" NumberOfCells="8780">
<Points>
<DataArray  type="Float64"  NumberOfComponents="3"  format="ascii">0.9483880164242298 0.6836931311526558 0  0.9494264999197789 0.6847056440044139 0  0.9494005292759887 0.6847228078606633 0  0.9735520289385229 0.7444444444444445 0  0.9494005292759886 0.8041660810282256 0  0.94942649991978 0.8041832448844759 0  0.9483880175070514 0.8051957566534116 0  3.131175874138137e-16 0.09811450876034808 0  0.06838800723463068 0.1543033514199101 0  0.05161198249294494 0.1948042433465922 0  0.0505735000802211 0.1958167551155251 0  0.05059947072401128 0.1958339189717744 0  0.0505994707240113 0.3152771921393367 0  0.05057350008021998 0.315294355995587 0  0.05161198357913653 0.3163068688507105 0  0.06838800723463068 0.356807759691201 0  3.252606517456513e-16 0.4129966023507631 0  -1.795438797635995e-16 0.4839416311832997 0  0.07083274769489223 0.4605116403870998 0  0.07084991155114129 0.4605376110308903 0  0.07186242331670639 0.4594991286215342 0  0.1696402113702762 0.5 0  0.07186242332008326 0.5405008713818427 0  0.0708499115511413 0.5394623889691096 0  0.07083274769489219 0.5394883596129002 0  -1.925543058334256e-16 0.5160583688167003 0  1.484923295436147e-15 0.5870033976492365 0  0.06838800723463068 0.643192240308799 0  0.05161198249294541 0.6836931322354806 0  0.05057350008022109 0.6847056440044139 0  0.0505994707240113 0.6847228078606633 0  0.0505994707240113 0.8041660810282256 0  0.05057350008021999 0.804183244884476 0  0.05161198249294764 0.8051957566534106 0  0.06838800723463068 0.84569664858009 0  1.485790657174135e-15 0.9018854912396524 0  0 1 0  1 1 0  0.9999999999999987 0.9018854912396523 0  1.000000000000001 0.5870033976492375 0  1 0.5160583688167003 0  0.9291672523051078 0.5394883596129003 0  0.9291500884488585 0.5394623889691117 0  0.9281375755937461 0.5405008724680134 0  0.9281375755937372 0.4594991275319777 0  0.9291500884488586 0.4605376110308884 0  0.9291672523051077 0.4605116403870997 0  1 0.4839416311832997 0  0.9999999999999987 0.4129966023507635 0  0.948388017507054 0.31630686776452 0  0.94942649991978 0.3152943559955871 0  0.9494005292759886 0.3152771921393367 0  0.9735520289385229 0.2555555555555555 0  0.9494005292759888 0.1958339189717744 0  0.9494264999197789 0.1958167551155251 0  0.9483880164208631 0.1948042422604003 0  1.000000000000001 0.09811450876034861 0  1 0 0  0 0 0  0.1958339189717744 0.2950439151684559 0  0.1958167551155252 0.2950179445246672 0  0.3152771921393367 0.2950439151684557 0  0.1948042433481841 0.2960564269357975 0  0.3152943559955858 0.2950179445246651 0  0.1948042422604031 0.2150546830875326 0  0.3163068677645244 0.2960564269373949 0  0.1958167551155251 0.2160931665864439 0  0.4140846558147206 0.2555555555555555 0  0.1958339189717744 0.2160671959426553 0  0.3163068688489276 0.215054683089313 0  0.3152771921393367 0.2160671959426553 0  0.3152943559955858 0.2160931665864459 0  0.5405008724680257 0.3163068688507107 0  0.5572768961235196 0.356807759691201 0  0.5394623889691089 0.3152943559955871 0  0.459499128618165 0.3163068677645201 0  0.5394883596129003 0.3152771921393367 0  0.4605376110308911 0.3152943559955871 0  0.5394883596129001 0.1958339189717744 0  0.4605116403870998 0.3152771921393367 0  0.53946238896911 0.1958167551155251 0  0.4846631400496339 0.2555555555555555 0  0.5405008724680251 0.1948042422604009 0  0.4605116403870998 0.1958339189717744 0  0.5572768961235196 0.1543033514199101 0  0.46053761103089 0.1958167551155251 0  0.4594991286269881 0.1948042433554141 0  0.6847228078606633 0.2950439151684559 0  0.684705644004414 0.2950179445246672 0  0.8041660810282256 0.2950439151684557 0  0.683693131164073 0.2960564280087975 0  0.8041832448844747 0.2950179445246651 0  0.6836931322354718 0.2150546841737125 0  0.8051957566534156 0.2960564269373971 0  0.6847056440044141 0.2160931665864439 0  0.9029735447036096 0.2555555555555555 0  0.6847228078606632 0.2160671959426553 0  0.8051957577274008 0.2150546830997286 0  0.8041660810282256 0.2160671959426553 0  0.8041832448844747 0.2160931665864459 0  0.2960564280235811 0.560751313295155 0  0.3128324516790751 0.6012522041356455 0  0.2950179445246645 0.5597388004400315 0  0.2150546830875235 0.5607513132951615 0  0.2950439151684557 0.5597216365837812 0  0.2160931665864466 0.5597388004400314 0  0.2950439151684558 0.4402783634162188 0  0.2160671959426553 0.5597216365837812 0  0.2950179445246656 0.4402611995599696 0  0.2402186956051895 0.5 0  0.29605642693739 0.439248687791036 0  0.2160671959426553 0.4402783634162189 0  0.3128324516790751 0.3987477958643545 0  0.2160931665864455 0.4402611995599696 0  0.2150546830875296 0.4392486867048446 0  0.1958339189717743 0.7839328040573448 0  0.1958167551155252 0.7839068334135562 0  0.3152771921393367 0.7839328040573447 0  0.1948042422604028 0.7849453169124678 0  0.3152943559955858 0.783906833413554 0  0.1948042433465913 0.7039435730626098 0  0.3163068677645284 0.7849453158262878 0  0.1958167551155251 0.7049820554753328 0  0.4140846558147206 0.7444444444444445 0  0.1958339189717744 0.7049560848315441 0  0.3163068688486237 0.7039435719785058 0  0.3152771921393367 0.7049560848315441 0  0.3152943559955858 0.7049820554753349 0  0.4402783634162188 0.5394883596129003 0  0.4402611995599696 0.5394623889691117 0  0.5597216365837812 0.5394883596129002 0  0.4392486867048468 0.5405008724680237 0  0.5597388004400302 0.5394623889691096 0  0.4392486877998708 0.4594991286270004 0  0.5607513122089726 0.540500871381843 0  0.4402611995599696 0.4605376110308884 0  0.6585291002591651 0.5 0  0.4402783634162188 0.4605116403870998 0  0.5607513121946796 0.45949912863245 0  0.5597216365837812 0.4605116403870998 0  0.5597388004400302 0.4605376110308904 0  0.78494531690701 0.5607513132896949 0  0.8017213405679641 0.6012522041356455 0  0.7839068334135535 0.5597388004400315 0  0.7039435730626069 0.5607513122089671 0  0.7839328040573448 0.5597216365837812 0  0.7049820554753355 0.5597388004400314 0  0.7839328040573448 0.4402783634162188 0  0.7049560848315441 0.5597216365837812 0  0.7839068334135545 0.4402611995599696 0  0.7291075844940784 0.5 0  0.784945315826279 0.4392486877910359 0  0.7049560848315444 0.4402783634162188 0  0.8017213405679641 0.3987477958643545 0  0.7049820554753344 0.4402611995599696 0  0.7039435719764182 0.4392486867048443 0  0.5405008724625655 0.8051957577341393 0  0.5572768961235196 0.84569664858009 0  0.539462388969109 0.804183244884476 0  0.4594991286181648 0.8051957566534091 0  0.5394883596129003 0.8041660810282256 0  0.4605376110308911 0.804183244884476 0  0.5394883596129003 0.6847228078606633 0  0.4605116403870998 0.8041660810282256 0  0.53946238896911 0.6847056440044139 0  0.4846631400496339 0.7444444444444445 0  0.5405008713818347 0.6836931322354802 0  0.4605116403870998 0.6847228078606633 0  0.5572768961235196 0.643192240308799 0  0.46053761103089 0.6847056440044139 0  0.4594991275353449 0.6836931311526599 0  0.6847228078606633 0.7839328040573448 0  0.684705644004414 0.7839068334135562 0  0.8041660810282256 0.7839328040573447 0  0.6836931311493016 0.7849453169124578 0  0.8041832448844747 0.783906833413554 0  0.68369313223548 0.7039435730626096 0  0.805195756653417 0.7849453158262875 0  0.6847056440044141 0.7049820554753328 0  0.9029735447036096 0.7444444444444445 0  0.6847228078606633 0.7049560848315441 0  0.805195757738809 0.7039435719772094 0  0.8041660810282256 0.7049560848315441 0  0.8041832448844747 0.7049820554753349 0  0.9578164230213342 0.6948838683471341 0  0.9645772892192558 0.7062137009141434 0  0.9695236884064815 0.7184451175460498 0  0.972538971146615 0.7312896684428197 0  0.9725389711466151 0.7575992204460691 0  0.9695236884064815 0.7704437713428391 0  0.9645772892192558 0.7826751879747456 0  0.9578164230213342 0.7940050205417549 0  0.01437766570919127 0.09711967848259151 0  0.02854851642641832 0.09974531144948819 0  0.04161535472570586 0.1058251712658871 0  0.05275088139110013 0.1149743244732108 0  0.06125007411586489 0.1266135117968212 0  0.06657482449792251 0.1400058227212122 0  0.06643634307317195 0.1691277076584997 0  0.06071435336153361 0.1829418078690686 0  0.04134737123322858 0.3039103077764334 0  0.03416190609801732 0.2911362521989113 0  0.02925217947541549 0.2773267630846004 0  0.02676106927623143 0.2628837102534819 0  0.02676106927623143 0.2482274008576293 0  0.02925217947541547 0.2337843480265108 0  0.03416190609801727 0.2199748589121999 0  0.04134737123322851 0.2072008033346779 0  0.06071435387356935 0.328169304128914 0  0.06643634320569657 0.3419834039471998 0  0.06657482449792249 0.371105288389899 0  0.06125007411586481 0.3844975993142901 0  0.05275088139109994 0.3961367866379005 0  0.04161535472570563 0.4052859398452242 0  0.02854851642641818 0.411365799661623 0  0.01437766570919127 0.4139914326285196 0  0 0.4697526254167924 0  0 0.455563619650285 0  0 0.4413746138837777 0  0 0.4271856081172704 0  0.06095233986089402 0.4687284952262988 0  0.04995687430503332 0.4753797281664747 0  0.03809234373417287 0.4803165365228644 0  0.02562418374773841 0.4834284730529493 0  0.01283133446055119 0.4846459169037758 0  0.08372485599813187 0.4503967593658507 0  0.09753895276796982 0.4446747697099958 0  0.1123633055586467 0.4427231038764812 0  0.1271876590095525 0.4446747646950606 0  0.1410017577150834 0.45039674967774 0  0.1528641934757506 0.4594991149204779 0  0.161966560724962 0.471361549141524 0  0.1676885480442292 0.4851756468792086 0  0.1676885480443665 0.514824353120279 0  0.1619665607254926 0.528638450857557 0  0.1528641934768762 0.5405008850783964 0  0.1410017577169217 0.5496032503211987 0  0.1271876590121153 0.5553252353042526 0  0.1123633055618306 0.5572768961235188 0  0.09753895277155772 0.5553252302909656 0  0.08372485600180817 0.5496032406362719 0  0.0128313344605512 0.5153540830962242 0  0.0256241837477384 0.5165715269470507 0  0.03809234373417282 0.5196834634771356 0  0.04995687430503334 0.5246202718335253 0  0.06095233986089401
[...]
<PointData  Vectors="$u$"> 
<DataArray  type="Float64"  Name="$u$"  NumberOfComponents="3" format="ascii">4.5069987150322113e-03 3.3686437343514057e-02 0.0000000000000000e+00  4.4018504527253439e-03 3.3725136127963525e-02 0.0000000000000000e+00  4.4002804085340411e-03 3.3724034093431034e-02 0.0000000000000000e+00  3.7632181017274588e-04 3.4312989181144421e-02 0.0000000000000000e+00  -6.2089825929869226e-04 3.3207209884382617e-02 0.0000000000000000e+00  -6.2093627079698769e-04 3.3207794860511154e-02 0.0000000000000000e+00  -6.1073039439894805e-04 3.3177792322234084e-02 0.0000000000000000e+00  -4.2090370009344668e-05 2.7065579343953483e-05 0.0000000000000000e+00  1.8646799014321047e-05 4.6147643388205230e-04 0.0000000000000000e+00  3.6349942795015858e-04 5.7594841677801440e-04 0.0000000000000000e+00  3.7505622451665963e-04 5.4894392489875218e-04 0.0000000000000000e+00  3.7503902547169786e-04 5.4947034001288876e-04 0.0000000000000000e+00  -4.6704948186636376e-03 1.6427270092292587e-05 0.0000000000000000e+00  -4.6721262675538779e-03 1.5170350831389554e-05 0.0000000000000000e+00  -4.7820563209217517e-03 6.0376569009143479e-05 0.0000000000000000e+00  -9.2554584168932398e-03 1.5296446019072763e-03 0.0000000000000000e+00  -1.5389793789091241e-02 -5.9673755382382340e-03 0.0000000000000000e+00  -2.3209144248571123e-02 -5.9674110732340037e-03 0.0000000000000000e+00  -2.0627643840188059e-02 1.8392865267593617e-03 0.0000000000000000e+00  -2.0630500918989596e-02 1.8411759665565256e-03 0.0000000000000000e+00  -2.0516386584193341e-02 1.9527694857085593e-03 0.0000000000000000e+00  -2.0120156699228574e-02 1.6802972417374714e-02 0.0000000000000000e+00  -2.0617835674434284e-02 3.1796942757095020e-02 0.0000000000000000e+00  -2.0732117079369370e-02 3.1908088968082948e-02 0.0000000000000000e+00  -2.0729260705530637e-02 3.1909974886490326e-02 0.0000000000000000e+00  -2.3309338680964201e-02 3.9711873856825959e-02 0.0000000000000000e+00  -1.5494648557689856e-02 3.9711796646906238e-02 0.0000000000000000e+00  -9.3652374997915018e-03 3.2215571647153142e-02 0.0000000000000000e+00  -4.8883214472873731e-03 3.3679140111674971e-02 0.0000000000000000e+00  -4.7822407608782624e-03 3.3727521628922418e-02 0.0000000000000000e+00  -4.7806695035811963e-03 3.3726199190058440e-02 0.0000000000000000e+00  1.9876713156567280e-04 3.3195091560646796e-02 0.0000000000000000e+00  1.9876960985820341e-04 3.3195562329540101e-02 0.0000000000000000e+00  1.8719187449679013e-04 3.3169951680567203e-02 0.0000000000000000e+00  -1.5571405712835461e-04 3.3291737755376812e-02 0.0000000000000000e+00  -2.1860946931183745e-04 3.3722746227378871e-02 0.0000000000000000e+00  -1.6840299790277978e-04 3.3750000000000002e-02 0.0000000000000000e+00  -2.5739870864853253e-04 3.3750000000000002e-02 0.0000000000000000e+00  -2.0732171160385145e-04 3.3722561348327559e-02 0.0000000000000000e+00  1.5143260877736724e-02 3.9737472422592020e-02 0.0000000000000000e+00  2.2979751301264249e-02 3.9737529716613568e-02 0.0000000000000000e+00  2.0392791962371540e-02 3.1913516336083338e-02 0.0000000000000000e+00  2.0395662657011166e-02 3.1911619699045296e-02 0.0000000000000000e+00  2.0280897749918668e-02 3.1799749832135397e-02 0.0000000000000000e+00  2.0298646027745008e-02 1.9398093769269278e-03 0.0000000000000000e+00  2.0412236089319157e-02 1.8286716124525770e-03 0.0000000000000000e+00  2.0409392201689316e-02 1.8267905209299552e-03 0.0000000000000000e+00  2.2981446914785580e-02 -5.9510638183447569e-03 0.0000000000000000e+00  1.5190911954163538e-02 -5.9510116318041463e-03 0.0000000000000000e+00  4.6178340206904341e-03 7.7413505927840067e-05 0.0000000000000000e+00  4.5130593237736830e-03 3.2686441501499021e-05 0.0000000000000000e+00  4.5114975417632382e-03 3.3928730894073039e-05 0.0000000000000000e+00  5.3200635591551431e-04 -5.4757376146954907e-04 0.0000000000000000e+00  -4.5834727812715949e-04 5.5206357173412705e-04 0.0000000000000000e+00  -4.5833740607453631e-04 5.5142786769303749e-04 0.0000000000000000e+00  -4.4454654921344153e-04 5.8265915816773934e-04 0.0000000000000000e+00  -3.8756493350179441e-05 2.7483248550415825e-05 0.0000000000000000e+00  -8.9672213273760677e-05 0.0000000000000000e+00 0.0000000000000000e+00  0.0000000000000000e+00 0.0000000000000000e+00 0.0000000000000000e+00  -5.6380473010211882e-03 1.5231452384511813e-02 0.0000000000000000e+00  -5.6384516331359491e-03 1.5229615983649631e-02 0.0000000000000000e+00  -6.5698412358777564e-03 1.5374106526382296e-02 0.0000000000000000e+00  -5.6169983140789805e-03 1.5106585568931324e-02 0.0000000000000000e+00  -6.5701640784488601e-03 1.5373118993865125e-02 0.0000000000000000e+00  -9.7150005527346176e-05 5.7778462127017353e-05 0.0000000000000000e+00  -6.5650859578986667e-03 1.5303504633542686e-02 0.0000000000000000e+00  -1.0026540881213252e-04 5.7917784971647675e-05 0.0000000000000000e+00  -6.2739160886657120e-03 5.7156358405677024e-03 0.0000000000000000e+00  -1.0020662431782129e-04 5.7946232749827397e-05 0.0000000000000000e+00  -2.4283368918977762e-04 4.8890224291677158e-05 0.0000000000000000e+00  -2.3995986779793251e-04 4.9802426528425428e-05 0.0000000000000000e+00  -2.3989735286735454e-04 4.9768017152027562e-05 0.0000000000000000e+00  6.5214217968578170e-03 6.4862173753023195e-03 0.0000000000000000e+00  3.8573064888600362e-03 7.3750490203483730e-03 0.0000000000000000e+00  6.5766393747216084e-03 6.5069471519446946e-03 0.0000000000000000e+00  -6.7198368653084784e-03 6.4887535766247105e-03 0.0000000000000000e+00  6.5773679301810188e-03 6.5065705856168438e-03 0.0000000000000000e+00  -6.7736286594467215e-03 6.5152211178903440e-03 0.0000000000000000e+00  3.6140735579903655e-03 6.5359836722512516e-03 0.0000000000000000e+00  -6.7743190471422510e-03 6.5146714043057448e-03 0.0000000000000000e+00  3.6107583988076613e-03 6.5385058721980525e-03 0.0000000000000000e+00  -7.2562021558665417e-03 7.3525971100084370e-03 0.0000000000000000e+00  3.4179489749651465e-03 6.4602932418773148e-03 0.0000000000000000e+00  -3.7229059593343501e-03 6.5184764487154247e-03 0.0000000000000000e+00  4.7036879036328635e-04 1.2295771052561824e-03 0.0000000000000000e+00  -3.7195538589690955e-03 6.5217184454448088e-03 0.0000000000000000e+00  -3.5241071161102007e-03 6.4123551420945286e-03 0.0000000000000000e+00  6.3895126080060040e-03 1.5389626491603997e-02 0.0000000000000000e+00  6.3896889670472540e-03 1.5388600459289054e-02 0.0000000000000000e+00  5.4470315907980170e-03 1.5140656877624524e-02 0.0000000000000000e+00  6.3904906352228435e-03 1.5315490694398382e-02 0.0000000000000000e+00  5.4472554540819576e-03 1.5138886298061793e-02 0.0000000000000000e+00  1.6201922878143117e-04 4.6810547078904972e-05 0.0000000000000000e+00  5.4319526579183980e-03 1.5021823579765586e-02 0.0000000000000000e+00  1.5990395205728804e-04 4.8612090267242785e-05 0.0000000000000000e+00  1.0818595266939423e-03 2.2114896493332344e-03 0.0000000000000000e+00  1.5995945736172579e-04 4.8649553579410774e-05 0.0000000000000000e+00  1.6313674931435699e-05 5.5400779617657796e-05 0.0000000000000000e+00  1.8905024922855198e-05 5.7159582028604436e-05 0.0000000000000000e+00  1.8966866370355036e-05 5.7120633998427063e-05 0.0000000000000000e+00  1.2864321928891607e-03 1.6778328867443206e-02 0.0000000000000000e+00  -1.6301337649777454e-03 1.8152079327260755e-02 0.0000000000000000e+00  1.3703050904017016e-03 1.6752697208099819e-02 0.0000000000000000e+00  -1.8636051148841870e-02 1.6218943825849558e-02 0.0000000000000000e+00  1.3714956281284626e-03 1.6753494278090805e-02 0.0000000000000000e+00  -1.8745451674719336e-02 1.6180526714468922e-02 0.0000000000000000e+00  1.3954402810121139e-03 1.7079385562521171e-02 0.0000000000000000e+00  -1.8747065054971368e-02 1.6181596767745943e-02 0.0000000000000000e+00  1.3943045301387704e-03 1.7080293243830712e-02 0.0000000000000000e+00  -2.1957400504019814e-02 1.6944687875300193e-02 0.0000000000000000e+00  1.3151669318106107e-03 1.7049469693920506e-02 0.0000000000000000e+00  -1.8628630503457783e-02 1.7534473369809903e-02 0.0000000000000000e+00  -1.5940041983618950e-03 1.5676640702672783e-02 0.0000000000000000e+00  -1.8627247724135858e-02 1.7534914960279129e-02 0.0000000000000000e+00  -1.8531799392434933e-02 1.7522511904841078e-02 0.0000000000000000e+00  -2.7750498649184452e-04 3.3693836337139231e-02 0.0000000000000000e+00  -2.7758416261846410e-04 3.3693878287595264e-02 0.0000000000000000e+00  -4.1936075327267641e-04 3.3703100304004523e-02 0.0000000000000000e+00  -2.7370572126210897e-04 3.3694986399170776e-02 0.0000000000000000e+00  -4.1930030816348762e-04 3.3703141440172328e-02 0.0000000000000000e+00  -5.7163662055264176e-03 1.8648204603688403e-02 0.0000000000000000e+00  -4.2162767151703744e-04 3.3705047376008206e-02 0.0000000000000000e+00  -5.7248687722370696e-03 1.8516089299824887e-02 0.0000000000000000e+00  -6.1594577737584741e-03 2.8241459233988391e-02 0.0000000000000000e+00  -5.7247891953973737e-03 1.8514092131562198e-02 0.0000000000000000e+00  -6.6642919568936990e-03 1.8524965059365246e-02 0.0000000000000000e+00  -6.6700887201649574e-03 1.8450735438168709e-02 0.0000000000000000e+00  -6.6704429860035067e-03 1.8451763902048762e-02 0.0000000000000000e+00  2.5771158828079776e-04 2.6148312910002310e-02 0.0000000000000000e+00  2.5805586925025769e-04 2.6147262340342672e-02 0.0000000000000000e+00  -5.4990262593176454e-04 2.6103323506249526e-02 0.0000000000000000e+00  2.5149094128838680e-04 2.6073187629851256e-02 0.0000000000000000e+00  -5.5027604861233035e-04 2.6102246994769263e-02 0.0000000000000000e+00  3.0523394649540714e-04 7.7977475590055032e-03 0.0000000000000000e+00  -5.4217012324398232e-04 2.6027517312551544e-02 0.0000000000000000e+00  3.0833959664958697e-04 7.7349977533958565e-03 0.0000000000000000e+00  -2.3072742511564557e-03 1.6874303401644974e-02 0.0000000000000000e+00  3.0809080146862802e-04 7.7341433641936923e-03 0.0000000000000000e+00  -4.8340747269906174e-04 7.7812553685585231e-03 0.0000000000000000e+00  -4.9037821342898756e-04 7.7123759138864045e-03 0.0000000000000000e+00  -4.9073251526955350e-04 7.7133178262163513e-03 0.0000000000000000e+00  1.8298443162646671e-02 1.6172990486289757e-02 0.0000000000000000e+00  1.3621474527800763e-02 1.7848521292610588e-02 0.0000000000000000e+00  1.8417517628646640e-02 1.6132747393360760e-02 0.0000000000000000e+00  -1.5622492657693008e-03 1.6802489986625119e-02 0.0000000000000000e+00  1.8419295989435272e-02 1.6133898738337947e-02 0.0000000000000000e+00  -1.6448362221361758e-03 1.6776026396064719e-02 0.0000000000000000e+00  1.8436909762460797e-02 1.7507176006542519e-02 0.0000000000000000e+00  -1.6460036773554877e-03 1.6776786569840624e-02 0.0000000000000000e+00  1.8435356917547156e-02 1.7508370921338744e-02 0.0000000000000000e+00  -3.7067332815165239e-03 1.6938946836326262e-02 0.0000000000000000e+00  1.8330717274316871e-02 1.7465321698504351e-02 0.0000000000000000e+00  -1.5734447475060499e-03 1.7072046877291584e-02 0.0000000000000000e+00  1.3682685733336853e-02 1.5798472444031333e-02 0.0000000000000000e+00  -1.5725366057813010e-03 1.7072697885124621e-02 0.0000000000000000e+00  -1.5066461348654033e-03 1.7052322562978662e-02 0.0000000000000000e+00  3.1480318439145848e-03 2.7480167154107359e-02 0.0000000000000000e+00  2.5277455877083048e-04 3.2542596092254086e-02 0.0000000000000000e+00  3.3324417749848053e-03 2.7362388041607906e-02 0.0000000000000000e+00  -3.4596064261381248e-03 2.7494688445915641e-02 0.0000000000000000e+00  3.3355930703228573e-03 2.7365806483904992e-02 0.0000000000000000e+00  -3.6371760595497334e-03 2.7405633210859991e-02 0.0000000000000000e+00  6.5104497149176587e-03 2.7336968516580629e-02 0.0000000000000000e+00  -3.6401650545681004e-03 2.7408283605166277e-02 0.0000000000000000e+00  6.5097077859087894e-03 2.7336640390223335e-02 0.0000000000000000e+00  -7.3228346719858804e-03 2.6511711969200255e-02 0.0000000000000000e+00  6.4517229068605719e-03 2.7353716198000214e-02 0.0000000000000000e+00  -6.8427817400834538e-03 2.7377089240393598e-02 0.0000000000000000e+00  3.7812283209454323e-03 2.6452804350055800e-02 0.0000000000000000e+00  -6.8418957960410939e-03 2.7376694073898752e-02 0.0000000000000000e+00  -6.7780457932349733e-03 2.7397136567300789e-02 0.0000000000000000e+00  -6.3503529722679888e-06 3.3701938429621270e-02 0.0000000000000000e+00  -6.4059238282520139e-06 3.3701976217964627e-02 0.0000000000000000e+00  -1.4913432743461749e-04 3.3693934068632712e-02 0.0000000000000000e+00  -4.3165592353941582e-06 3.3703950007031094e-02 0.0000000000000000e+00  -1.4909781862941144e-04 3.3693943108343880e-02 0.0000000000000000e+00  6.3427068560413490e-03 1.8534514615214659e-02 0.0000000000000000e+00  -1.5166334758180163e-04 3.3692673970491860e-02 0.0000000000000000e+00  6.3491992256659623e-03 1.8463072735729124e-02 0.0000000000000000e+00  9.6461357460747913e-04 3.1482214684187250e-02 0.0000000000000000e+00  6.3488329699160359e-03 1.8462068662240122e-02 0.0000000000000000e+00  5.4067553378459587e-03 1.8625528104323028e-02 0.0000000000000000e+00  5.4219457143898434e-03 1.8502041665718633e-02 0.0000000000000000e+00  5.4222300387539498e-03 1.8503852870579950e-02 0.0000000000000000e+00  3.4251121692572290e-03 3.4203544220578259e-02 0.0000000000000000e+00  2.5089941780779860e-03 3.4466432524848843e-02 0.0000000000000000e+00  1.6718830111693162e-03 3.4554012819193416e-02 0.0000000000000000e+00  9.5493441302332632e-04 3.4477628570572537e-02 0.0000000000000000e+00  -6.5091626823139201e-05 3.4087657444226989e-02 0.0000000000000000e+00  -3.7128159575473558e-04 3.3836068953595290e-02 0.0000000000000000e+00  -5.5741718669579385e-04 3.3592236290141402e-02 0.0000000000000000e+00  -6.3413366533559634e-04 3.3367513777562675e-02 0.0000000000000000e+00  -4.0668739737504038e-05 4.5517460425740013e-05 0.0000000000000000e+00  -4.8085577654574095e-05 7.0541079594858117e-05 0.0000000000000000e+00  -5.2166398705936283e-05 1.1238756660419224e-04 0.0000000000000000e+00  -5.8287528083638781e-05 1.6711655597518861e-04 0.0000000000000000e+00  -5.5284035397180305e-05 2.4697884751891878e-04 0.0000000000000000e+00  -2.9013423281249903e-05 3.4845174688939560e-04 0.0000000000000000e+00  1.1416994337372442e-04 5.8707526207401044e-04 0.0000000000000000e+00  2.4724450266312161e-04 6.3925549999215654e-04 0.0000000000000000e+00  -3.5918586162690959e-03 -4.8900384172631962e-04 0.0000000000000000e+00  -2.5854502683475894e-03 -7.6179413823719057e-04 0.0000000000000000e+00  -1.6870217301582023e-03 -8.0383270177466647e-04 0.0000000000000000e+00  -9.4643098543269199e-04 -6.7852099042162389e-04 0.0000000000000000e+00  -3.6964852277338473e-04 -4.5189562095496042e-04 0.0000000000000000e+00  3.5596491435733304e-05 -1.7982554033406264e-04 0.0000000000000000e+00  2.7913093381817051e-04 1.0509279074440404e-04 0.0000000000000000e+00  3.8510146138050520e-04 3.6029955174936919e-04 0.0000000000000000e+00  -6.0596332656347824e-03 7.6754431799937477e-04 0.0000000000000000e+00  -7.6177933757503652e-03 1.3008604358672215e-03 0.0000000000000000e+00  -1.0813559964125490e-02 1.3592340111076757e-03 0.0000000000000000e+00  -1.2264484120637832e-02 7.8229658411864541e-04 0.0000000000000000e+00  -1.3536285195640199e-02 -1.5126294060022397e-04 0.0000000000000000e+00  -1.4540878964955890e-02 -1.3794170923776027e-03 0.0000000000000000e+00  -1.5209891858640114e-02 -2.8204975238371476e-03 0.0000000000000000e+00  -1.5499441225618452e-02 -4.3826231857872697e-03 0.0000000000000000e+00  -2.1645339575146583e-02 -5.9674438548398389e-03 0.0000000000000000e+00  -2.0081439843979712e-02 -5.9674278154967933e-03 0.0000000000000000e+00  -1.8517632784237282e-02 -5.9673735966557385e-03 0.0000000000000000e+00  -1.6953691552960955e-02 -5.9674162249689511e-03 0.0000000000000000e+00  -2.1532847593338039e-02 7.5022213346691801e-04 0.0000000000000000e+00  -2.2265580255944696e-02 -4.6171177492448803e-04 0.0000000000000000e+00  -2.2809636363754437e-02 -1.7691566483325216e-03 0.0000000000000000e+00  -2.3152599836273210e-02 -3.1433131802848504e-03 0.0000000000000000e+00  -2.3286765948365137e-02 -4.5532456283683669e-03 0.0000000000000000e+00  -1.9514008529164149e-02 3.2613005128634431e-03 0.0000000000000000e+00  -1.8889347826771572e-02 4.7925315951538412e-03 0.0000000000000000e+00  -1.8668425169172741e-02 6.4518592306614161e-03 0.0000000000000000e+00  -1.8888253409997217e-02 8.1360539374881000e-03 0.0000000000000000e+00  -1.9496839789120583e-02 9.7735881766258369e-03 0.0000000000000000e+00  -2.0339272249487110e-02 1.1205198863811616e-02 0.0000000000000000e+00  -2.0914340219647682e-02 1.2539511452604997e-02 0.0000000000000000e+00  -2.0346596042989589e-02 1.4496844622394280e-02 0.0000000000000000e+00  -2.0497178872539476e-02 1.9227746301492505e-02 0.0000000000000000e+00  -2.0797903342137554e-02 2.1228090230604488e-02 0.0000000000000000e+00  -2.0467253357641119e-02 2.2554622017429110e-02 0.0000000000000000e+00  -1.9593668399593457e-02 2.3979098914312151e-02 0.0000000000000000e+00  -1.8994877708958295e-02 2.5616957348292987e-02 0.0000000000000000e+00  -1.8772309916098441e-02 2.7301600533326174e-02 0.0000000000000000e+00  -1.8990968412475707e-02 2.8957956837161299e-02 0.0000000000000000e+00  -1.9617603823963412e-02 3.0488386383846832e-02 0.0000000000000000e+00  -2.3386920826683286e-02 3.8298536483052453e-02 0.0000000000000000e+00  -2.3252784751949678e-02 3.6889473224329901e-02 0.0000000000000000e+00  -2.2910115763540715e-02 3.5516146382094597e-02 0.0000000000000000e+00  -2.2366274866989801e-02 3.4209447802208783e-02 0.0000000000000000e+00  -2.1634052598373366e-02 3.2998321751863929e-02 0.0000000000000000e+00  -1.7057720900928545e-02 3.9711824525257747e-02 0.0000000000000000e+00  -1.8620601483598523e-02 3.9711850322000967e-02 0.0000000000000000e+00  -2.0183536973964598e-02 3.9711870188562003e-02 0.0000000000000000e+00  -2.1746459436782845e-02 3.9711893175438467e-02 0.0000000000000000e+00  -1.5604458414549729e-02 3.8128024102454569e-02 0.0000000000000000e+00  -1.5314709962016664e-02 3.6566993722940609e-02 0.0000000000000000e+00  -1.4646359999368384e-02 3.5126275931846328e-02 0.0000000000000000e+00  -1.3642052526549835e-02 3.3899419526467585e-02 0.0000000000000000e+00  -1.2371195998021252e-02 3.2966228335082857e-02 0.0000000000000000e+00  -1.0919410268582811e-02 3.2389742981983681e-02 0.0000000000000000e+00  -7.7258706585051039e-03 3.2449039635814282e-02 0.0000000000000000e+00  -6.1740929531542187e-03 3.2979854376271385e-02 0.0000000000000000e+00  2.1094381159096216e-04 3.3376280207986726e-02 0.0000000000000000e+00  1.0995915835935811e-04 3.3624941098743297e-02 0.0000000000000000e+00  -1.2518517341803017e-04 3.3904375476389380e-02 0.0000000000000000e+00  -5.1735461845549508e-04 3.4171659170504853e-02 0.0000000000000000e+00  -1.0834503146173514e-03 3.4399817483802587e-02 0.0000000000000000e+00  -1.8066854296604621e-03 3.4520801122608663e-02 0.0000000000000000e+00  -2.7047123861756463e-03 3.4488757726231056e-02 0.0000000000000000e+00  -3.7064130005841360e-03 3.4231980520750001e-02 0.0000000000000000e+00  7.0907909339130827e-05 3.3104728325125864e-02 0.0000000000000000e+00  -6.4980598890054984e-05 3.3162168766181208e-02 0.0000000000000000e+00  -2.0810982659795834e-04 3.3401270991671055e-02 0.0000000000000000e+00  -2.2929576222182197e-04 3.3505533038850482e-02 0.0000000000000000e+00  -2.3303265200819734e-04 3.3578266998259852e-02 0.0000000000000000e+00  -2.3264570814882156e-04 3.3640450068070392e-02 0.0000000000000000e+00  -2.2183593622232298e-04 3.3678082008545752e-02 0.0000000000000000e+00  -2.1838944722987427e-04 3.3704223399848271e-02 0.0000000000000000e+00  -1.6861239555870830e-04 3.3740968113724804e-02 0.0000000000000000e+00  -1.6993547397568524e-04 3.3733131481289230e-02 0.0000000000000000e+00  -1.7257766338265633e-04 3.3726367420476161e-02 0.0000000000000000e+00  -1.7745596954822822e-04 3.3722552470784442e-02 0.0000000000000000e+00  -1.8630277544685523e-04 3.3721211039360148e-02 0.0000000000000000e+00  -2.0057377264679819e-04 3.3722409506532811e-02 0.0000000000000000e+00  -2.5434133603357005e-04 3.3750000000000002e-02 0.0000000000000000e+00  -2.49761140041