<?xml version="1.0"?>
<VTKFile type="UnstructuredGrid"  version="0.1"  >
<UnstructuredGrid>
<Piece  NumberOfPoints="4855" NumberOfCells="8780">
<Points>
<DataArray  type="Float64"  NumberOfComponents="3"  format="ascii">0.9483880164242298 0.6836931311526558 0  0.9494264999197789 0.6847056440044139 0  0.9494005292759887 0.6847228078606633 0  0.9735520289385229 0.7444444444444445 0  0.9494005292759886 0.8041660810282256 0  0.94942649991978 0.8041832448844759 0  0.9483880175070514 0.8051957566534116 0  3.131175874138137e-16 0.09811450876034808 0  0.06838800723463068 0.1543033514199101 0  0.05161198249294494 0.1948042433465922 0  0.0505735000802211 0.1958167551155251 0  0.05059947072401128 0.1958339189717744 0  0.0505994707240113 0.3152771921393367 0  0.05057350008021998 0.315294355995587 0  0.05161198357913653 0.3163068688507105 0  0.06838800723463068 0.356807759691201 0  3.252606517456513e-16 0.4129966023507631 0  -1.795438797635995e-16 0.4839416311832997 0  0.07083274769489223 0.4605116403870998 0  0.07084991155114129 0.4605376110308903 0  0.07186242331670639 0.4594991286215342 0  0.1696402113702762 0.5 0  0.07186242332008326 0.5405008713818427 0  0.0708499115511413 0.5394623889691096 0  0.07083274769489219 0.5394883596129002 0  -1.925543058334256e-16 0.5160583688167003 0  1.484923295436147e-15 0.5870033976492365 0  0.06838800723463068 0.643192240308799 0  0.05161198249294541 0.6836931322354806 0  0.05057350008022109 0.6847056440044139 0  0.0505994707240113 0.6847228078606633 0  0.0505994707240113 0.8041660810282256 0  0.05057350008021999 0.804183244884476 0  0.05161198249294764 0.8051957566534106 0  0.06838800723463068 0.84569664858009 0  1.485790657174135e-15 0.9018854912396524 0  0 1 0  1 1 0  0.9999999999999987 0.9018854912396523 0  1.000000000000001 0.5870033976492375 0  1 0.5160583688167003 0  0.9291672523051078 0.5394883596129003 0  0.9291500884488585 0.5394623889691117 0  0.9281375755937461 0.5405008724680134 0  0.9281375755937372 0.4594991275319777 0  0.9291500884488586 0.4605376110308884 0  0.9291672523051077 0.4605116403870997 0  1 0.4839416311832997 0  0.9999999999999987 0.4129966023507635 0  0.948388017507054 0.31630686776452 0  0.94942649991978 0.3152943559955871 0  0.9494005292759886 0.3152771921393367 0  0.9735520289385229 0.2555555555555555 0  0.9494005292759888 0.1958339189717744 0  0.9494264999197789 0.1958167551155251 0  0.9483880164208631 0.1948042422604003 0  1.000000000000001 0.09811450876034861 0  1 0 0  0 0 0  0.1958339189717744 0.2950439151684559 0  0.1958167551155252 0.2950179445246672 0  0.3152771921393367 0.2950439151684557 0  0.1948042433481841 0.2960564269357975 0  0.3152943559955858 0.2950179445246651 0  0.1948042422604031 0.2150546830875326 0  0.3163068677645244 0.2960564269373949 0  0.1958167551155251 0.2160931665864439 0  0.4140846558147206 0.2555555555555555 0  0.1958339189717744 0.2160671959426553 0  0.3163068688489276 0.215054683089313 0  0.3152771921393367 0.2160671959426553 0  0.3152943559955858 0.2160931665864459 0  0.5405008724680257 0.3163068688507107 0  0.5572768961235196 0.356807759691201 0  0.5394623889691089 0.3152943559955871 0  0.459499128618165 0.3163068677645201 0  0.5394883596129003 0.3152771921393367 0  0.4605376110308911 0.3152943559955871 0  0.5394883596129001 0.1958339189717744 0  0.4605116403870998 0.3152771921393367 0  0.53946238896911 0.1958167551155251 0  0.4846631400496339 0.2555555555555555 0  0.5405008724680251 0.1948042422604009 0  0.4605116403870998 0.1958339189717744 0  0.5572768961235196 0.1543033514199101 0  0.46053761103089 0.1958167551155251 0  0.4594991286269881 0.1948042433554141 0  0.6847228078606633 0.2950439151684559 0  0.684705644004414 0.2950179445246672 0  0.8041660810282256 0.2950439151684557 0  0.683693131164073 0.2960564280087975 0  0.8041832448844747 0.2950179445246651 0  0.6836931322354718 0.2150546841737125 0  0.8051957566534156 0.2960564269373971 0  0.6847056440044141 0.2160931665864439 0  0.9029735447036096 0.2555555555555555 0  0.6847228078606632 0.2160671959426553 0  0.8051957577274008 0.2150546830997286 0  0.8041660810282256 0.2160671959426553 0  0.8041832448844747 0.2160931665864459 0  0.2960564280235811 0.560751313295155 0  0.3128324516790751 0.6012522041356455 0  0.2950179445246645 0.5597388004400315 0  0.2150546830875235 0.5607513132951615 0  0.2950439151684557 0.5597216365837812 0  0.2160931665864466 0.5597388004400314 0  0.2950439151684558 0.4402783634162188 0  0.2160671959426553 0.5597216365837812 0  0.2950179445246656 0.4402611995599696 0  0.2402186956051895 0.5 0  0.29605642693739 0.439248687791036 0  0.2160671959426553 0.4402783634162189 0  0.3128324516790751 0.3987477958643545 0  0.2160931665864455 0.4402611995599696 0  0.2150546830875296 0.4392486867048446 0  0.1958339189717743 0.7839328040573448 0  0.1958167551155252 0.7839068334135562 0  0.3152771921393367 0.7839328040573447 0  0.1948042422604028 0.7849453169124678 0  0.3152943559955858 0.783906833413554 0  0.1948042433465913 0.7039435730626098 0  0.3163068677645284 0.7849453158262878 0  0.1958167551155251 0.7049820554753328 0  0.4140846558147206 0.7444444444444445 0  0.1958339189717744 0.7049560848315441 0  0.3163068688486237 0.7039435719785058 0  0.3152771921393367 0.7049560848315441 0  0.3152943559955858 0.7049820554753349 0  0.4402783634162188 0.5394883596129003 0  0.4402611995599696 0.5394623889691117 0  0.5597216365837812 0.5394883596129002 0  0.4392486867048468 0.5405008724680237 0  0.5597388004400302 0.5394623889691096 0  0.4392486877998708 0.4594991286270004 0  0.5607513122089726 0.540500871381843 0  0.4402611995599696 0.4605376110308884 0  0.6585291002591651 0.5 0  0.4402783634162188 0.4605116403870998 0  0.5607513121946796 0.45949912863245 0  0.5597216365837812 0.4605116403870998 0  0.5597388004400302 0.4605376110308904 0  0.78494531690701 0.5607513132896949 0  0.8017213405679641 0.6012522041356455 0  0.7839068334135535 0.5597388004400315 0  0.7039435730626069 0.5607513122089671 0  0.7839328040573448 0.5597216365837812 0  0.7049820554753355 0.5597388004400314 0  0.7839328040573448 0.4402783634162188 0  0.7049560848315441 0.5597216365837812 0  0.7839068334135545 0.4402611995599696 0  0.7291075844940784 0.5 0  0.784945315826279 0.4392486877910359 0  0.7049560848315444 0.4402783634162188 0  0.8017213405679641 0.3987477958643545 0  0.7049820554753344 0.4402611995599696 0  0.7039435719764182 0.4392486867048443 0  0.5405008724625655 0.8051957577341393 0  0.5572768961235196 0.84569664858009 0  0.539462388969109 0.804183244884476 0  0.4594991286181648 0.8051957566534091 0  0.5394883596129003 0.8041660810282256 0  0.4605376110308911 0.804183244884476 0  0.5394883596129003 0.6847228078606633 0  0.4605116403870998 0.8041660810282256 0  0.53946238896911 0.6847056440044139 0  0.4846631400496339 0.7444444444444445 0  0.5405008713818347 0.6836931322354802 0  0.4605116403870998 0.6847228078606633 0  0.5572768961235196 0.643192240308799 0  0.46053761103089 0.6847056440044139 0  0.4594991275353449 0.6836931311526599 0  0.6847228078606633 0.7839328040573448 0  0.684705644004414 0.7839068334135562 0  0.8041660810282256 0.7839328040573447 0  0.6836931311493016 0.7849453169124578 0  0.8041832448844747 0.783906833413554 0  0.68369313223548 0.7039435730626096 0  0.805195756653417 0.7849453158262875 0  0.6847056440044141 0.7049820554753328 0  0.9029735447036096 0.7444444444444445 0  0.6847228078606633 0.7049560848315441 0  0.805195757738809 0.7039435719772094 0  0.8041660810282256 0.7049560848315441 0  0.8041832448844747 0.7049820554753349 0  0.9578164230213342 0.6948838683471341 0  0.9645772892192558 0.7062137009141434 0  0.9695236884064815 0.7184451175460498 0  0.972538971146615 0.7312896684428197 0  0.9725389711466151 0.7575992204460691 0  0.9695236884064815 0.7704437713428391 0  0.9645772892192558 0.7826751879747456 0  0.9578164230213342 0.7940050205417549 0  0.01437766570919127 0.09711967848259151 0  0.02854851642641832 0.09974531144948819 0  0.04161535472570586 0.1058251712658871 0  0.05275088139110013 0.1149743244732108 0  0.06125007411586489 0.1266135117968212 0  0.06657482449792251 0.1400058227212122 0  0.06643634307317195 0.1691277076584997 0  0.06071435336153361 0.1829418078690686 0  0.04134737123322858 0.3039103077764334 0  0.03416190609801732 0.2911362521989113 0  0.02925217947541549 0.2773267630846004 0  0.02676106927623143 0.2628837102534819 0  0.02676106927623143 0.2482274008576293 0  0.02925217947541547 0.2337843480265108 0  0.03416190609801727 0.2199748589121999 0  0.04134737123322851 0.2072008033346779 0  0.06071435387356935 0.328169304128914 0  0.06643634320569657 0.3419834039471998 0  0.06657482449792249 0.371105288389899 0  0.06125007411586481 0.3844975993142901 0  0.05275088139109994 0.3961367866379005 0  0.04161535472570563 0.4052859398452242 0  0.02854851642641818 0.411365799661623 0  0.01437766570919127 0.4139914326285196 0  0 0.4697526254167924 0  0 0.455563619650285 0  0 0.4413746138837777 0  0 0.4271856081172704 0  0.06095233986089402 0.4687284952262988 0  0.04995687430503332 0.4753797281664747 0  0.03809234373417287 0.4803165365228644 0  0.02562418374773841 0.4834284730529493 0  0.01283133446055119 0.4846459169037758 0  0.08372485599813187 0.4503967593658507 0  0.09753895276796982 0.4446747697099958 0  0.1123633055586467 0.4427231038764812 0  0.1271876590095525 0.4446747646950606 0  0.1410017577150834 0.45039674967774 0  0.1528641934757506 0.4594991149204779 0  0.161966560724962 0.471361549141524 0  0.1676885480442292 0.4851756468792086 0  0.1676885480443665 0.514824353120279 0  0.1619665607254926 0.528638450857557 0  0.1528641934768762 0.5405008850783964 0  0.1410017577169217 0.5496032503211987 0  0.1271876590121153 0.5553252353042526 0  0.1123633055618306 0.5572768961235188 0  0.09753895277155772 0.5553252302909656 0  0.08372485600180817 0.5496032406362719 0  0.0128313344605512 0.5153540830962242 0  0.0256241837477384 0.5165715269470507 0  0.03809234373417282 0.5196834634771356 0  0.04995687430503334 0.5246202718335253 0  0.06095233986089401
[...]
<PointData  Vectors="$u$"> 
<DataArray  type="Float64"  Name="$u$"  NumberOfComponents="3" format="ascii">2.5602719451038596e-03 1.8468426690463700e-02 0.0000000000000000e+00  2.5016451824415153e-03 1.8498865237859003e-02 0.0000000000000000e+00  2.5008554261125642e-03 1.8497927849216951e-02 0.0000000000000000e+00  2.6089164322346485e-04 1.8895806146007874e-02 0.0000000000000000e+00  -3.2129646536793716e-04 1.8211025465939782e-02 0.0000000000000000e+00  -3.2133979354358004e-04 1.8211255925956571e-02 0.0000000000000000e+00  -3.1372305827472968e-04 1.8195386138561000e-02 0.0000000000000000e+00  -3.8063010877100305e-05 2.1579130622046160e-05 0.0000000000000000e+00  6.8620968002311334e-06 4.0056926053911603e-04 0.0000000000000000e+00  2.8717618028856044e-04 5.4803725609843209e-04 0.0000000000000000e+00  2.9509010495150037e-04 5.3329205554063664e-04 0.0000000000000000e+00  2.9505500306301004e-04 5.3350282600794839e-04 0.0000000000000000e+00  -2.5414233183540230e-03 2.4404470547324252e-04 0.0000000000000000e+00  -2.5422288085580999e-03 2.4305268927800853e-04 0.0000000000000000e+00  -2.6019245565740506e-03 2.7547958401756204e-04 0.0000000000000000e+00  -5.0307867252911359e-03 1.1174926964317594e-03 0.0000000000000000e+00  -8.3042720151956934e-03 -2.8921285471067430e-03 0.0000000000000000e+00  -1.2517033529066983e-02 -2.8921988200417081e-03 0.0000000000000000e+00  -1.1126679943976262e-02 1.3136787819933167e-03 0.0000000000000000e+00  -1.1128219131059538e-02 1.3146964293318994e-03 0.0000000000000000e+00  -1.1066720705635665e-02 1.3747777623266224e-03 0.0000000000000000e+00  -1.1103679747563197e-02 9.3516190213332236e-03 0.0000000000000000e+00  -1.1102742587513799e-02 1.7373333193050004e-02 0.0000000000000000e+00  -1.1164426196521322e-02 1.7433353543126119e-02 0.0000000000000000e+00  -1.1162884351730783e-02 1.7434371489958089e-02 0.0000000000000000e+00  -1.2555639987296729e-02 2.1647312137892373e-02 0.0000000000000000e+00  -8.3357386036714467e-03 2.1647239435228276e-02 0.0000000000000000e+00  -5.0569694655139014e-03 1.7628825746522598e-02 0.0000000000000000e+00  -2.6215408796515039e-03 1.8468474567516987e-02 0.0000000000000000e+00  -2.5631463632487875e-03 1.8500689144784921e-02 0.0000000000000000e+00  -2.5623593976684977e-03 1.8499714227148301e-02 0.0000000000000000e+00  2.3942433702245689e-04 1.8210769443561765e-02 0.0000000000000000e+00  2.3945292874347150e-04 1.8210965371567731e-02 0.0000000000000000e+00  2.3135525966269961e-04 1.8196679488329006e-02 0.0000000000000000e+00  -4.8799598463980600e-05 1.8351768690260416e-02 0.0000000000000000e+00  -9.3834388286759851e-05 1.8728200185620388e-02 0.0000000000000000e+00  -4.8856415171452970e-05 1.8749999999999999e-02 0.0000000000000000e+00  -3.0722365920585914e-05 1.8749999999999999e-02 0.0000000000000000e+00  1.4264869708699839e-05 1.8727890460184270e-02 0.0000000000000000e+00  8.2811100385697892e-03 2.1653284247612814e-02 0.0000000000000000e+00  1.2507571100539263e-02 2.1653360323329984e-02 0.0000000000000000e+00  1.1112718291101853e-02 1.7433685341744304e-02 0.0000000000000000e+00  1.1114264343393829e-02 1.7432663674385080e-02 0.0000000000000000e+00  1.1052478936106952e-02 1.7372374163593648e-02 0.0000000000000000e+00  1.1054361425761869e-02 1.3655012093865798e-03 0.0000000000000000e+00  1.1115764689159322e-02 1.3054316114062207e-03 0.0000000000000000e+00  1.1114227462204859e-02 1.3044149751727514e-03 0.0000000000000000e+00  1.2504602533488505e-02 -2.9015174568288696e-03 0.0000000000000000e+00  8.2918225340525738e-03 -2.9014312104495656e-03 0.0000000000000000e+00  2.5895715097975342e-03 2.7370447378410938e-04 0.0000000000000000e+00  2.5312093693021674e-03 2.4223968131803302e-04 0.0000000000000000e+00  2.5304214367313743e-03 2.4319846033745286e-04 0.0000000000000000e+00  3.0931782125122261e-04 -1.4326862063607638e-04 0.0000000000000000e+00  -2.6319293893639861e-04 5.3127289579268965e-04 0.0000000000000000e+00  -2.6321606116295858e-04 5.3104345161025129e-04 0.0000000000000000e+00  -2.5375946237326640e-04 5.4680264814794329e-04 0.0000000000000000e+00  6.6297799037542897e-05 2.1703062191800035e-05 0.0000000000000000e+00  2.1008869438897511e-05 0.0000000000000000e+00 0.0000000000000000e+00  0.0000000000000000e+00 0.0000000000000000e+00 0.0000000000000000e+00  -3.0590902838092179e-03 8.5404785809351236e-03 0.0000000000000000e+00  -3.0588580992220787e-03 8.5396814777189221e-03 0.0000000000000000e+00  -3.7538829592387584e-03 8.4857309481831591e-03 0.0000000000000000e+00  -3.0611142542172781e-03 8.4810165312786696e-03 0.0000000000000000e+00  -3.7540060813022230e-03 8.4854730940543913e-03 0.0000000000000000e+00  -8.9781137446828699e-05 3.8467288083377306e-05 0.0000000000000000e+00  -3.7552268224147695e-03 8.4587554050555430e-03 0.0000000000000000e+00  -9.2388791797880663e-05 3.8468683166152851e-05 0.0000000000000000e+00  -3.4018999128684730e-03 2.4519097660003885e-03 0.0000000000000000e+00  -9.2340742420825704e-05 3.8490964013984307e-05 0.0000000000000000e+00  -2.2234253087523946e-04 2.6765374678038529e-05 0.0000000000000000e+00  -2.1938733665170497e-04 2.8035912174714836e-05 0.0000000000000000e+00  -2.1932044385732544e-04 2.7997417005820472e-05 0.0000000000000000e+00  3.7888910828435532e-03 3.1996353468575697e-03 0.0000000000000000e+00  2.2427589114349701e-03 3.6096689354814600e-03 0.0000000000000000e+00  3.8223497473852423e-03 3.2073524392240722e-03 0.0000000000000000e+00  -3.8086975822605286e-03 3.1982829860797389e-03 0.0000000000000000e+00  3.8227281591501194e-03 3.2073177264549278e-03 0.0000000000000000e+00  -3.8406143410801090e-03 3.2096439592676769e-03 0.0000000000000000e+00  1.6092228092722408e-03 3.2264320560872928e-03 0.0000000000000000e+00  -3.8409657634495926e-03 3.2095094173647675e-03 0.0000000000000000e+00  1.6081319866701276e-03 3.2279702220989379e-03 0.0000000000000000e+00  -3.7661628881772973e-03 3.8521397158444966e-03 0.0000000000000000e+00  1.5388077592075940e-03 3.1718258930381904e-03 0.0000000000000000e+00  -1.5788028003209931e-03 3.2200986852165617e-03 0.0000000000000000e+00  3.8750378083212528e-04 1.0544018570172872e-03 0.0000000000000000e+00  -1.5777028372288902e-03 3.2216535650572481e-03 0.0000000000000000e+00  -1.5089074921069028e-03 3.1645311715279394e-03 0.0000000000000000e+00  3.7392347500312998e-03 8.4865469542579480e-03 0.0000000000000000e+00  3.7393098050124331e-03 8.4862729999506028e-03 0.0000000000000000e+00  3.0485652104086541e-03 8.5206844610494735e-03 0.0000000000000000e+00  3.7423930390150140e-03 8.4584176451555412e-03 0.0000000000000000e+00  3.0483201766866594e-03 8.5199430957514331e-03 0.0000000000000000e+00  2.5195350253390578e-04 2.6217677081377113e-05 0.0000000000000000e+00  3.0509066199335072e-03 8.4647800446085927e-03 0.0000000000000000e+00  2.4924753980489389e-04 2.7538508574767202e-05 0.0000000000000000e+00  4.2030297394345659e-04 1.4642846254595092e-03 0.0000000000000000e+00  2.4931072757525524e-04 2.7576149337689806e-05 0.0000000000000000e+00  1.1890168562348522e-04 3.7444440622187238e-05 0.0000000000000000e+00  1.2154603870042263e-04 3.8391863279285316e-05 0.0000000000000000e+00  1.2160370539885443e-04 3.8359466932026982e-05 0.0000000000000000e+00  9.5173238260113919e-04 9.2845064213206326e-03 0.0000000000000000e+00  -7.9302818025711000e-04 1.0084081705135634e-02 0.0000000000000000e+00  9.9965179267909408e-04 9.2665768620557153e-03 0.0000000000000000e+00  -1.0103573605798489e-02 9.0851695273824092e-03 0.0000000000000000e+00  1.0002570435880419e-03 9.2672114397960685e-03 0.0000000000000000e+00  -1.0158600598341965e-02 9.0753798404528963e-03 0.0000000000000000e+00  1.0105774941880094e-03 9.5025836899480989e-03 0.0000000000000000e+00  -1.0159328387639876e-02 9.0757574273753420e-03 0.0000000000000000e+00  1.0099976577598185e-03 9.5032082658523566e-03 0.0000000000000000e+00  -1.1713115505728282e-02 9.3859849872680624e-03 0.0000000000000000e+00  9.6405898526953767e-04 9.4850768393624166e-03 0.0000000000000000e+00  -1.0123685268810145e-02 9.6504217765100778e-03 0.0000000000000000e+00  -7.8142599065127421e-04 8.6865107171041813e-03 0.0000000000000000e+00  -1.0123049315983512e-02 9.6506485849795261e-03 0.0000000000000000e+00  -1.0073725947093357e-02 9.6470517560853040e-03 0.0000000000000000e+00  -1.4863881424880169e-04 1.8712491410774690e-02 0.0000000000000000e+00  -1.4869902643409438e-04 1.8712521693247837e-02 0.0000000000000000e+00  -2.7680021468851887e-04 1.8723730100143290e-02 0.0000000000000000e+00  -1.4565761097704670e-04 1.8713042053420850e-02 0.0000000000000000e+00  -2.7673159195409105e-04 1.8723770667813940e-02 0.0000000000000000e+00  -3.0947722645895508e-03 1.0254982826173188e-02 0.0000000000000000e+00  -2.7974381563212856e-04 1.8725145794472712e-02 0.0000000000000000e+00  -3.0912554406441642e-03 1.0196656642754676e-02 0.0000000000000000e+00  -3.3405328455129611e-03 1.6317432466836514e-02 0.0000000000000000e+00  -3.0915162896004949e-03 1.0195873789035489e-02 0.0000000000000000e+00  -3.7832550267434509e-03 1.0316272182987580e-02 0.0000000000000000e+00  -3.7819304239371564e-03 1.0288303973633032e-02 0.0000000000000000e+00  -3.7820536623426044e-03 1.0288574287826370e-02 0.0000000000000000e+00  2.9662699354385795e-04 1.4898698262604341e-02 0.0000000000000000e+00  2.9665421865847233e-04 1.4898561463952152e-02 0.0000000000000000e+00  -3.4649790831511293e-04 1.4898688408631421e-02 0.0000000000000000e+00  3.0199753070132829e-04 1.4879035637173375e-02 0.0000000000000000e+00  -3.4652170765742325e-04 1.4898575888499237e-02 0.0000000000000000e+00  3.1695452326329135e-04 3.8971046398462547e-03 0.0000000000000000e+00  -3.5182912445886976e-04 1.4880723557783233e-02 0.0000000000000000e+00  3.1230519888021988e-04 3.8794175167568370e-03 0.0000000000000000e+00  -1.7163711064828008e-03 9.3749320139101117e-03 0.0000000000000000e+00  3.1227313829594426e-04 3.8793028974568999e-03 0.0000000000000000e+00  -3.3361275301977924e-04 3.8966855046240509e-03 0.0000000000000000e+00  -3.2918277799484039e-04 3.8773590669212528e-03 0.0000000000000000e+00  -3.2922983574629568e-04 3.8774912057315198e-03 0.0000000000000000e+00  1.0047913206429428e-02 9.0741455690772927e-03 0.0000000000000000e+00  7.4764209306905673e-03 9.8610209928547739e-03 0.0000000000000000e+00  1.0109189259150674e-02 9.0596031157158339e-03 0.0000000000000000e+00  -1.0012792631768381e-03 9.2906302536721573e-03 0.0000000000000000e+00  1.0110026447438991e-02 9.0601116900844193e-03 0.0000000000000000e+00  -1.0502815378314006e-03 9.2742085909880614e-03 0.0000000000000000e+00  1.0116051920048412e-02 9.6601574185704898e-03 0.0000000000000000e+00  -1.0509107011470579e-03 9.2747933864039053e-03 0.0000000000000000e+00  1.0115263775974954e-02 9.6606977744762221e-03 0.0000000000000000e+00  -2.2539123064056650e-03 9.3951337514049955e-03 0.0000000000000000e+00  1.0057511066011810e-02 9.6449243469844681e-03 0.0000000000000000e+00  -1.0269879452395605e-03 9.4987817281632931e-03 0.0000000000000000e+00  7.4884059189892936e-03 8.8473720983790836e-03 0.0000000000000000e+00  -1.0265098778748333e-03 9.4992627603119936e-03 0.0000000000000000e+00  -9.8674807052332066e-04 9.4867333827465591e-03 0.0000000000000000e+00  1.4529344344767357e-03 1.5611529635861989e-02 0.0000000000000000e+00  3.0138528625977932e-04 1.7702695494329901e-02 0.0000000000000000e+00  1.5180643172683407e-03 1.5555417357873757e-02 0.0000000000000000e+00  -1.5164603244688150e-03 1.5603882716655314e-02 0.0000000000000000e+00  1.5191169799365523e-03 1.5556923735745458e-02 0.0000000000000000e+00  -1.5838312302376284e-03 1.5554308715665004e-02 0.0000000000000000e+00  3.8002590695225724e-03 1.5568372499634829e-02 0.0000000000000000e+00  -1.5848683194768028e-03 1.5555709235101658e-02 0.0000000000000000e+00  3.7998979933895451e-03 1.5568283865928449e-02 0.0000000000000000e+00  -3.7820218325687574e-03 1.4927750635664485e-02 0.0000000000000000e+00  3.7665826135280479e-03 1.5577361259613691e-02 0.0000000000000000e+00  -3.8544540163512712e-03 1.5568069091083613e-02 0.0000000000000000e+00  2.2204264161403177e-03 1.5166973934995009e-02 0.0000000000000000e+00  -3.8540551606184256e-03 1.5567913553858123e-02 0.0000000000000000e+00  -3.8199606806381316e-03 1.5580657575074066e-02 0.0000000000000000e+00  1.9712482188467828e-04 1.8723536211561653e-02 0.0000000000000000e+00  1.9704760978984731e-04 1.8723583286124248e-02 0.0000000000000000e+00  6.7986842019453276e-05 1.8712784725350633e-02 0.0000000000000000e+00  2.0030939487287902e-04 1.8725537097099107e-02 0.0000000000000000e+00  6.8015475904827175e-05 1.8712791829851382e-02 0.0000000000000000e+00  3.7313310758883768e-03 1.0318356255021727e-02 0.0000000000000000e+00  6.5986098347538367e-05 1.8711685870665590e-02 0.0000000000000000e+00  3.7305822839046286e-03 1.0290827725822274e-02 0.0000000000000000e+00  3.8234438765171971e-04 1.7234381804820897e-02 0.0000000000000000e+00  3.7304455791220318e-03 1.0290557331696855e-02 0.0000000000000000e+00  3.0439545929361097e-03 1.0237005257368923e-02 0.0000000000000000e+00  3.0433029193822304e-03 1.0179859321390048e-02 0.0000000000000000e+00  3.0431165071553249e-03 1.0180607920751648e-02 0.0000000000000000e+00  1.9775578736558473e-03 1.8781280610736532e-02 0.0000000000000000e+00  1.4757550332558142e-03 1.8942225916427712e-02 0.0000000000000000e+00  1.0120567737760872e-03 1.9008152581577779e-02 0.0000000000000000e+00  6.0270534602931429e-04 1.8983332032663339e-02 0.0000000000000000e+00  -4.9874800435576414e-06 1.8764829087733473e-02 0.0000000000000000e+00  -1.9244737073855202e-04 1.8608813381108754e-02 0.0000000000000000e+00  -3.0395590697023255e-04 1.8452527653685116e-02 0.0000000000000000e+00  -3.4502258313870459e-04 1.8311096054499813e-02 0.0000000000000000e+00  -3.6953463538338542e-05 3.7635664419696827e-05 0.0000000000000000e+00  -4.2761129671874190e-05 5.9390793432372306e-05 0.0000000000000000e+00  -4.7326849040645855e-05 9.4695819710841102e-05 0.0000000000000000e+00  -5.3456759663885051e-05 1.4244199870431704e-04 0.0000000000000000e+00  -5.1739651901926491e-05 2.1112364928445773e-04 0.0000000000000000e+00  -3.2831911385980158e-05 2.9969386528802869e-04 0.0000000000000000e+00  8.4280346674952877e-05 5.1140407206896020e-04 0.0000000000000000e+00  1.9234539718869712e-04 5.7439496611527750e-04 0.0000000000000000e+00  -1.9611678379624535e-03 -6.1259952644899819e-05 0.0000000000000000e+00  -1.4081222672486246e-03 -2.2599705035526249e-04 0.0000000000000000e+00  -9.0688116717199815e-04 -2.6879944088955616e-04 0.0000000000000000e+00  -4.7678302270311683e-04 -2.1242649326998030e-04 0.0000000000000000e+00  -1.3644269573748948e-04 -8.8078709428671820e-05 0.0000000000000000e+00  1.0839025474700962e-04 7.8522997824017292e-05 0.0000000000000000e+00  2.5694154750126915e-04 2.5558013918738416e-04 0.0000000000000000e+00  3.1539836897913928e-04 4.1767137940275400e-04 0.0000000000000000e+00  -3.3049115659971864e-03 6.6282849816270571e-04 0.0000000000000000e+00  -4.1516344948473779e-03 9.6845643159974794e-04 0.0000000000000000e+00  -5.8588094214408601e-03 1.0435167996974077e-03 0.0000000000000000e+00  -6.6299935224962614e-03 7.4284768521145489e-04 0.0000000000000000e+00  -7.3083840692907288e-03 2.4215205781714244e-04 0.0000000000000000e+00  -7.8473230307396207e-03 -4.1987634097971887e-04 0.0000000000000000e+00  -8.2074684980827858e-03 -1.1965320331577469e-03 0.0000000000000000e+00  -8.3633504076831011e-03 -2.0382862755749720e-03 0.0000000000000000e+00  -1.1674529716883880e-02 -2.8922133971988782e-03 0.0000000000000000e+00  -1.0831971394323344e-02 -2.8921983004591011e-03 0.0000000000000000e+00  -9.9894510678434582e-03 -2.8921421789139244e-03 0.0000000000000000e+00  -9.1468843187879866e-03 -2.8921560315186040e-03 0.0000000000000000e+00  -1.1614111359977823e-02 7.2685055613195106e-04 0.0000000000000000e+00  -1.2008769475639810e-02 7.3931360080442521e-05 0.0000000000000000e+00  -1.2301809973966437e-02 -6.3043786586359032e-04 0.0000000000000000e+00  -1.2486568955482898e-02 -1.3707282855044442e-03 0.0000000000000000e+00  -1.2558849343298494e-02 -2.1303172289740078e-03 0.0000000000000000e+00  -1.0527840197730695e-02 2.0809442833935577e-03 0.0000000000000000e+00  -1.0190763840530956e-02 2.9101201153786515e-03 0.0000000000000000e+00  -1.0073252614518888e-02 3.8156694172284721e-03 0.0000000000000000e+00  -1.0186210089261950e-02 4.7483889137185029e-03 0.0000000000000000e+00  -1.0488751531996059e-02 5.6676948705235916e-03 0.0000000000000000e+00  -1.0931155320700107e-02 6.5061683930941220e-03 0.0000000000000000e+00  -1.1265309428454088e-02 7.2737880543307255e-03 0.0000000000000000e+00  -1.1101436670845103e-02 8.2499466845406596e-03 0.0000000000000000e+00  -1.1169481034353520e-02 1.0467482829385009e-02 0.0000000000000000e+00  -1.1197832601340402e-02 1.1473076156595477e-02 0.0000000000000000e+00  -1.0977027189799671e-02 1.2236285682611866e-02 0.0000000000000000e+00  -1.0523203690821109e-02 1.3073724197109492e-02 0.0000000000000000e+00  -1.0222250540849569e-02 1.3993488324305923e-02 0.0000000000000000e+00  -1.0108357316890561e-02 1.4929235105414206e-02 0.0000000000000000e+00  -1.0225136807531225e-02 1.5834991352980395e-02 0.0000000000000000e+00  -1.0563602657904254e-02 1.6665691609954021e-02 0.0000000000000000e+00  -1.2597522770234159e-02 2.0884138052499682e-02 0.0000000000000000e+00  -1.2525114933203740e-02 2.0123267355300817e-02 0.0000000000000000e+00  -1.2340051454843636e-02 1.9381730306607083e-02 0.0000000000000000e+00  -1.2046504216673613e-02 1.8676151695376463e-02 0.0000000000000000e+00  -1.1651171818699157e-02 1.8022167392306367e-02 0.0000000000000000e+00  -9.1797990803828746e-03 2.1647246779149608e-02 0.0000000000000000e+00  -1.0023759822236850e-02 2.1647272080433905e-02 0.0000000000000000e+00  -1.0867730248145089e-02 2.1647312823852159e-02 0.0000000000000000e+00  -1.1711707349241119e-02 2.1647324783898973e-02 0.0000000000000000e+00  -8.3950072215969972e-03 2.0791949715637126e-02 0.0000000000000000e+00  -8.2386031237740992e-03 1.9948885718932240e-02 0.0000000000000000e+00  -7.8781582123720363e-03 1.9170450539099517e-02 0.0000000000000000e+00  -7.3380320972343139e-03 1.8507840214762213e-02 0.0000000000000000e+00  -6.6585951773751916e-03 1.8006241087222093e-02 0.0000000000000000e+00  -5.8849263860015948e-03 1.7704518021966136e-02 0.0000000000000000e+00  -4.1750526722450446e-03 1.7779574421407738e-02 0.0000000000000000e+00  -3.3291178964271052e-03 1.8084660136085576e-02 0.0000000000000000e+00  2.6227015311326799e-04 1.8322412881398364e-02 0.0000000000000000e+00  2.0734224437049788e-04 1.8480728660179021e-02 0.0000000000000000e+00  6.3924180603370617e-05 1.8655647401763072e-02 0.0000000000000000e+00  -1.7329848890568217e-04 1.8819291005235272e-02 0.0000000000000000e+00  -5.0981268193966045e-04 1.8947508749550878e-02 0.0000000000000000e+00  -9.3139059565666108e-04 1.9001425000838939e-02 0.0000000000000000e+00  -1.4317943097177171e-03 1.8964889518759576e-02 0.0000000000000000e+00  -1.9812543422987991e-03 1.8803768701370672e-02 0.0000000000000000e+00  1.3723479201589554e-04 1.8172819406681823e-02 0.0000000000000000e+00  2.7444236732797584e-05 1.8235436926006817e-02 0.0000000000000000e+00  -8.9404552590023300e-05 1.8450692504448321e-02 0.0000000000000000e+00  -1.0564905574174239e-04 1.8539700048251381e-02 0.0000000000000000e+00  -1.0809194460354039e-04 1.8604354773627312e-02 0.0000000000000000e+00  -1.0551519126856781e-04 1.8656749595122941e-02 0.0000000000000000e+00  -9.6964229380743338e-05 1.8689588486599205e-02 0.0000000000000000e+00  -9.3451287943158856e-05 1.8712006920517235e-02 0.0000000000000000e+00  -4.9126593903420146e-05 1.8742670614291732e-02 0.0000000000000000e+00  -5.0366629266542633e-05 1.8736201874523132e-02 0.0000000000000000e+00  -5.2913909638712559e-05 1.8730917689138458e-02 0.0000000000000000e+00  -5.7437167480710079e-05 1.8727713302008620e-02 0.0000000000000000e+00  -6.5418002058278708e-05 1.8726896089515273e-02 0.0000000000000000e+00  -7.8012427661349663e-05 1.8727876748716642e-02 0.0000000000000000e+00  -2.8177679079402097e-05 1.8749999999999999e-02 0.0000000000000000e+00  -2.4336897522505463e-05 1.87