<?xml version="1.0"?>
<VTKFile type="UnstructuredGrid"  version="0.1"  >
<UnstructuredGrid>
<Piece  NumberOfPoints="4855" NumberOfCells="8780">
<Points>
<DataArray  type="Float64"  NumberOfComponents="3"  format="ascii">0.9483880164242298 0.6836931311526558 0  0.9494264999197789 0.6847056440044139 0  0.9494005292759887 0.6847228078606633 0  0.9735520289385229 0.7444444444444445 0  0.9494005292759886 0.8041660810282256 0  0.94942649991978 0.8041832448844759 0  0.9483880175070514 0.8051957566534116 0  3.131175874138137e-16 0.09811450876034808 0  0.06838800723463068 0.1543033514199101 0  0.05161198249294494 0.1948042433465922 0  0.0505735000802211 0.1958167551155251 0  0.05059947072401128 0.1958339189717744 0  0.0505994707240113 0.3152771921393367 0  0.05057350008021998 0.315294355995587 0  0.05161198357913653 0.3163068688507105 0  0.06838800723463068 0.356807759691201 0  3.252606517456513e-16 0.4129966023507631 0  -1.795438797635995e-16 0.4839416311832997 0  0.07083274769489223 0.4605116403870998 0  0.07084991155114129 0.4605376110308903 0  0.07186242331670639 0.4594991286215342 0  0.1696402113702762 0.5 0  0.07186242332008326 0.5405008713818427 0  0.0708499115511413 0.5394623889691096 0  0.07083274769489219 0.5394883596129002 0  -1.925543058334256e-16 0.5160583688167003 0  1.484923295436147e-15 0.5870033976492365 0  0.06838800723463068 0.643192240308799 0  0.05161198249294541 0.6836931322354806 0  0.05057350008022109 0.6847056440044139 0  0.0505994707240113 0.6847228078606633 0  0.0505994707240113 0.8041660810282256 0  0.05057350008021999 0.804183244884476 0  0.05161198249294764 0.8051957566534106 0  0.06838800723463068 0.84569664858009 0  1.485790657174135e-15 0.9018854912396524 0  0 1 0  1 1 0  0.9999999999999987 0.9018854912396523 0  1.000000000000001 0.5870033976492375 0  1 0.5160583688167003 0  0.9291672523051078 0.5394883596129003 0  0.9291500884488585 0.5394623889691117 0  0.9281375755937461 0.5405008724680134 0  0.9281375755937372 0.4594991275319777 0  0.9291500884488586 0.4605376110308884 0  0.9291672523051077 0.4605116403870997 0  1 0.4839416311832997 0  0.9999999999999987 0.4129966023507635 0  0.948388017507054 0.31630686776452 0  0.94942649991978 0.3152943559955871 0  0.9494005292759886 0.3152771921393367 0  0.9735520289385229 0.2555555555555555 0  0.9494005292759888 0.1958339189717744 0  0.9494264999197789 0.1958167551155251 0  0.9483880164208631 0.1948042422604003 0  1.000000000000001 0.09811450876034861 0  1 0 0  0 0 0  0.1958339189717744 0.2950439151684559 0  0.1958167551155252 0.2950179445246672 0  0.3152771921393367 0.2950439151684557 0  0.1948042433481841 0.2960564269357975 0  0.3152943559955858 0.2950179445246651 0  0.1948042422604031 0.2150546830875326 0  0.3163068677645244 0.2960564269373949 0  0.1958167551155251 0.2160931665864439 0  0.4140846558147206 0.2555555555555555 0  0.1958339189717744 0.2160671959426553 0  0.3163068688489276 0.215054683089313 0  0.3152771921393367 0.2160671959426553 0  0.3152943559955858 0.2160931665864459 0  0.5405008724680257 0.3163068688507107 0  0.5572768961235196 0.356807759691201 0  0.5394623889691089 0.3152943559955871 0  0.459499128618165 0.3163068677645201 0  0.5394883596129003 0.3152771921393367 0  0.4605376110308911 0.3152943559955871 0  0.5394883596129001 0.1958339189717744 0  0.4605116403870998 0.3152771921393367 0  0.53946238896911 0.1958167551155251 0  0.4846631400496339 0.2555555555555555 0  0.5405008724680251 0.1948042422604009 0  0.4605116403870998 0.1958339189717744 0  0.5572768961235196 0.1543033514199101 0  0.46053761103089 0.1958167551155251 0  0.4594991286269881 0.1948042433554141 0  0.6847228078606633 0.2950439151684559 0  0.684705644004414 0.2950179445246672 0  0.8041660810282256 0.2950439151684557 0  0.683693131164073 0.2960564280087975 0  0.8041832448844747 0.2950179445246651 0  0.6836931322354718 0.2150546841737125 0  0.8051957566534156 0.2960564269373971 0  0.6847056440044141 0.2160931665864439 0  0.9029735447036096 0.2555555555555555 0  0.6847228078606632 0.2160671959426553 0  0.8051957577274008 0.2150546830997286 0  0.8041660810282256 0.2160671959426553 0  0.8041832448844747 0.2160931665864459 0  0.2960564280235811 0.560751313295155 0  0.3128324516790751 0.6012522041356455 0  0.2950179445246645 0.5597388004400315 0  0.2150546830875235 0.5607513132951615 0  0.2950439151684557 0.5597216365837812 0  0.2160931665864466 0.5597388004400314 0  0.2950439151684558 0.4402783634162188 0  0.2160671959426553 0.5597216365837812 0  0.2950179445246656 0.4402611995599696 0  0.2402186956051895 0.5 0  0.29605642693739 0.439248687791036 0  0.2160671959426553 0.4402783634162189 0  0.3128324516790751 0.3987477958643545 0  0.2160931665864455 0.4402611995599696 0  0.2150546830875296 0.4392486867048446 0  0.1958339189717743 0.7839328040573448 0  0.1958167551155252 0.7839068334135562 0  0.3152771921393367 0.7839328040573447 0  0.1948042422604028 0.7849453169124678 0  0.3152943559955858 0.783906833413554 0  0.1948042433465913 0.7039435730626098 0  0.3163068677645284 0.7849453158262878 0  0.1958167551155251 0.7049820554753328 0  0.4140846558147206 0.7444444444444445 0  0.1958339189717744 0.7049560848315441 0  0.3163068688486237 0.7039435719785058 0  0.3152771921393367 0.7049560848315441 0  0.3152943559955858 0.7049820554753349 0  0.4402783634162188 0.5394883596129003 0  0.4402611995599696 0.5394623889691117 0  0.5597216365837812 0.5394883596129002 0  0.4392486867048468 0.5405008724680237 0  0.5597388004400302 0.5394623889691096 0  0.4392486877998708 0.4594991286270004 0  0.5607513122089726 0.540500871381843 0  0.4402611995599696 0.4605376110308884 0  0.6585291002591651 0.5 0  0.4402783634162188 0.4605116403870998 0  0.5607513121946796 0.45949912863245 0  0.5597216365837812 0.4605116403870998 0  0.5597388004400302 0.4605376110308904 0  0.78494531690701 0.5607513132896949 0  0.8017213405679641 0.6012522041356455 0  0.7839068334135535 0.5597388004400315 0  0.7039435730626069 0.5607513122089671 0  0.7839328040573448 0.5597216365837812 0  0.7049820554753355 0.5597388004400314 0  0.7839328040573448 0.4402783634162188 0  0.7049560848315441 0.5597216365837812 0  0.7839068334135545 0.4402611995599696 0  0.7291075844940784 0.5 0  0.784945315826279 0.4392486877910359 0  0.7049560848315444 0.4402783634162188 0  0.8017213405679641 0.3987477958643545 0  0.7049820554753344 0.4402611995599696 0  0.7039435719764182 0.4392486867048443 0  0.5405008724625655 0.8051957577341393 0  0.5572768961235196 0.84569664858009 0  0.539462388969109 0.804183244884476 0  0.4594991286181648 0.8051957566534091 0  0.5394883596129003 0.8041660810282256 0  0.4605376110308911 0.804183244884476 0  0.5394883596129003 0.6847228078606633 0  0.4605116403870998 0.8041660810282256 0  0.53946238896911 0.6847056440044139 0  0.4846631400496339 0.7444444444444445 0  0.5405008713818347 0.6836931322354802 0  0.4605116403870998 0.6847228078606633 0  0.5572768961235196 0.643192240308799 0  0.46053761103089 0.6847056440044139 0  0.4594991275353449 0.6836931311526599 0  0.6847228078606633 0.7839328040573448 0  0.684705644004414 0.7839068334135562 0  0.8041660810282256 0.7839328040573447 0  0.6836931311493016 0.7849453169124578 0  0.8041832448844747 0.783906833413554 0  0.68369313223548 0.7039435730626096 0  0.805195756653417 0.7849453158262875 0  0.6847056440044141 0.7049820554753328 0  0.9029735447036096 0.7444444444444445 0  0.6847228078606633 0.7049560848315441 0  0.805195757738809 0.7039435719772094 0  0.8041660810282256 0.7049560848315441 0  0.8041832448844747 0.7049820554753349 0  0.9578164230213342 0.6948838683471341 0  0.9645772892192558 0.7062137009141434 0  0.9695236884064815 0.7184451175460498 0  0.972538971146615 0.7312896684428197 0  0.9725389711466151 0.7575992204460691 0  0.9695236884064815 0.7704437713428391 0  0.9645772892192558 0.7826751879747456 0  0.9578164230213342 0.7940050205417549 0  0.01437766570919127 0.09711967848259151 0  0.02854851642641832 0.09974531144948819 0  0.04161535472570586 0.1058251712658871 0  0.05275088139110013 0.1149743244732108 0  0.06125007411586489 0.1266135117968212 0  0.06657482449792251 0.1400058227212122 0  0.06643634307317195 0.1691277076584997 0  0.06071435336153361 0.1829418078690686 0  0.04134737123322858 0.3039103077764334 0  0.03416190609801732 0.2911362521989113 0  0.02925217947541549 0.2773267630846004 0  0.02676106927623143 0.2628837102534819 0  0.02676106927623143 0.2482274008576293 0  0.02925217947541547 0.2337843480265108 0  0.03416190609801727 0.2199748589121999 0  0.04134737123322851 0.2072008033346779 0  0.06071435387356935 0.328169304128914 0  0.06643634320569657 0.3419834039471998 0  0.06657482449792249 0.371105288389899 0  0.06125007411586481 0.3844975993142901 0  0.05275088139109994 0.3961367866379005 0  0.04161535472570563 0.4052859398452242 0  0.02854851642641818 0.411365799661623 0  0.01437766570919127 0.4139914326285196 0  0 0.4697526254167924 0  0 0.455563619650285 0  0 0.4413746138837777 0  0 0.4271856081172704 0  0.06095233986089402 0.4687284952262988 0  0.04995687430503332 0.4753797281664747 0  0.03809234373417287 0.4803165365228644 0  0.02562418374773841 0.4834284730529493 0  0.01283133446055119 0.4846459169037758 0  0.08372485599813187 0.4503967593658507 0  0.09753895276796982 0.4446747697099958 0  0.1123633055586467 0.4427231038764812 0  0.1271876590095525 0.4446747646950606 0  0.1410017577150834 0.45039674967774 0  0.1528641934757506 0.4594991149204779 0  0.161966560724962 0.471361549141524 0  0.1676885480442292 0.4851756468792086 0  0.1676885480443665 0.514824353120279 0  0.1619665607254926 0.528638450857557 0  0.1528641934768762 0.5405008850783964 0  0.1410017577169217 0.5496032503211987 0  0.1271876590121153 0.5553252353042526 0  0.1123633055618306 0.5572768961235188 0  0.09753895277155772 0.5553252302909656 0  0.08372485600180817 0.5496032406362719 0  0.0128313344605512 0.5153540830962242 0  0.0256241837477384 0.5165715269470507 0  0.03809234373417282 0.5196834634771356 0  0.04995687430503334 0.5246202718335253 0  0.06095233986089401
[...]
<PointData  Vectors="$u$"> 
<DataArray  type="Float64"  Name="$u$"  NumberOfComponents="3" format="ascii">3.4122143638373303e-04 2.4258611451779431e-03 0.0000000000000000e+00  3.3345109303392802e-04 2.4307621571365810e-03 0.0000000000000000e+00  3.3334182140037981e-04 2.4306168736930758e-03 0.0000000000000000e+00  4.0952736755605278e-05 2.4815570233221737e-03 0.0000000000000000e+00  -3.1774848294313785e-05 2.3910235211282160e-03 0.0000000000000000e+00  -3.1770813575586535e-05 2.3910336076014109e-03 0.0000000000000000e+00  -3.0525629341706634e-05 2.3898862474310886e-03 0.0000000000000000e+00  -7.4593661758551855e-06 4.0945140834870514e-06 0.0000000000000000e+00  1.0248492251269754e-06 7.5765047279920461e-05 0.0000000000000000e+00  4.8969389539288085e-05 1.1034200453468760e-04 0.0000000000000000e+00  5.0223726982820937e-05 1.0924989573093978e-04 0.0000000000000000e+00  5.0228077258785328e-05 1.0925901734502775e-04 0.0000000000000000e+00  -3.1440598963052425e-04 6.9747679763826155e-05 0.0000000000000000e+00  -3.1451424534317243e-04 6.9603152824103935e-05 0.0000000000000000e+00  -3.2217521894937416e-04 7.4512337673458308e-05 0.0000000000000000e+00  -6.4233914719719217e-04 1.9247358811626630e-04 0.0000000000000000e+00  -1.0719901971798754e-03 -3.3476990823854948e-04 0.0000000000000000e+00  -1.6313589217313621e-03 -3.3479956465452099e-04 0.0000000000000000e+00  -1.4468884968357235e-03 2.2364260151962781e-04 0.0000000000000000e+00  -1.4470925918493363e-03 2.2377764313516197e-04 0.0000000000000000e+00  -1.4389404294391827e-03 2.3176383948972254e-04 0.0000000000000000e+00  -1.5020896915154151e-03 1.2480985948454255e-03 0.0000000000000000e+00  -1.4375459113542728e-03 2.2689205252274412e-03 0.0000000000000000e+00  -1.4457062128337094e-03 2.2769130451354724e-03 0.0000000000000000e+00  -1.4455019067579574e-03 2.2770482119566946e-03 0.0000000000000000e+00  -1.6300803336610561e-03 2.8357971911500564e-03 0.0000000000000000e+00  -1.0703938809266305e-03 2.8357679740472720e-03 0.0000000000000000e+00  -6.4064533003613505e-04 2.3079967995249589e-03 0.0000000000000000e+00  -3.2017313368745237e-04 2.4261798915753397e-03 0.0000000000000000e+00  -3.1255617422659812e-04 2.4311758800642739e-03 0.0000000000000000e+00  -3.1244810693105451e-04 2.4310305782367959e-03 0.0000000000000000e+00  5.3348125807052403e-05 2.3913764423915077e-03 0.0000000000000000e+00  5.3344183346310230e-05 2.3913858332281078e-03 0.0000000000000000e+00  5.2130481394808480e-05 2.3902958814440820e-03 0.0000000000000000e+00  4.1078449738820064e-06 2.4244645563772085e-03 0.0000000000000000e+00  -3.4805165221917382e-06 2.4959325018467449e-03 0.0000000000000000e+00  5.4224259305879626e-06 2.5000000000000001e-03 0.0000000000000000e+00  1.6427017416853909e-05 2.5000000000000001e-03 0.0000000000000000e+00  2.5364919024557925e-05 2.4958622633731681e-03 0.0000000000000000e+00  1.0907298084844772e-03 2.8352122398049126e-03 0.0000000000000000e+00  1.6501853103570601e-03 2.8352415568848191e-03 0.0000000000000000e+00  1.4656851317127891e-03 2.2767079575907274e-03 0.0000000000000000e+00  1.4658894430214912e-03 2.2765727265253118e-03 0.0000000000000000e+00  1.4577326512611776e-03 2.2685742494154486e-03 0.0000000000000000e+00  1.4558699234113945e-03 2.3134191993333137e-04 0.0000000000000000e+00  1.4640309826784532e-03 2.2334273953109876e-04 0.0000000000000000e+00  1.4638266252346029e-03 2.2320750653660978e-04 0.0000000000000000e+00  1.6485430580151150e-03 -3.3597606788937244e-04 0.0000000000000000e+00  1.0884397579012804e-03 -3.3594401208547462e-04 0.0000000000000000e+00  3.3793821025235727e-04 7.4142496973491124e-05 0.0000000000000000e+00  3.3019230715991289e-04 6.9179606455504734e-05 0.0000000000000000e+00  3.3008258515420275e-04 6.9325931530866134e-05 0.0000000000000000e+00  3.7307447866895507e-05 1.7981022964507309e-05 0.0000000000000000e+00  -3.6008251831556366e-05 1.0889851928550979e-04 0.0000000000000000e+00  -3.6003032421695930e-05 1.0888989434649905e-04 0.0000000000000000e+00  -3.4636334085923224e-05 1.0999429665207978e-04 0.0000000000000000e+00  2.1190060743720823e-05 4.0834271041970671e-06 0.0000000000000000e+00  1.2285350247508176e-05 0.0000000000000000e+00 0.0000000000000000e+00  0.0000000000000000e+00 0.0000000000000000e+00 0.0000000000000000e+00  -3.8715452023943520e-04 1.1637516694688254e-03 0.0000000000000000e+00  -3.8714574885980900e-04 1.1637216366189118e-03 0.0000000000000000e+00  -5.0037882137317054e-04 1.1368880325720405e-03 0.0000000000000000e+00  -3.8596379823986962e-04 1.1593751510640090e-03 0.0000000000000000e+00  -5.0041142596892797e-04 1.1368492224694234e-03 0.0000000000000000e+00  -1.7331320578327821e-05 6.9654201523835252e-06 0.0000000000000000e+00  -5.0022984541124192e-04 1.1327306406104833e-03 0.0000000000000000e+00  -1.7826418808507177e-05 6.8495410158869287e-06 0.0000000000000000e+00  -4.7937248168576098e-04 3.3482148799388164e-04 0.0000000000000000e+00  -1.7818163784779302e-05 6.8523670976987812e-06 0.0000000000000000e+00  -4.4076351905227007e-05 5.9021543289239015e-06 0.0000000000000000e+00  -4.3314235413360578e-05 6.0329137051492255e-06 0.0000000000000000e+00  -4.3298551545891401e-05 6.0252085752833899e-06 0.0000000000000000e+00  5.0236236848015406e-04 4.0760641245266244e-04 0.0000000000000000e+00  3.0527845369992656e-04 4.4850996418780564e-04 0.0000000000000000e+00  5.0584162202166002e-04 4.0818028020861115e-04 0.0000000000000000e+00  -4.8683477358180149e-04 4.0714329279818110e-04 0.0000000000000000e+00  5.0586991583938268e-04 4.0819611907899384e-04 0.0000000000000000e+00  -4.9026242682580407e-04 4.0783913895808994e-04 0.0000000000000000e+00  2.2372019055667960e-04 4.1784207226463425e-04 0.0000000000000000e+00  -4.9028924722738839e-04 4.0785218717713653e-04 0.0000000000000000e+00  2.2360725699565557e-04 4.1801338970759666e-04 0.0000000000000000e+00  -4.7654307908764871e-04 4.9202035969822240e-04 0.0000000000000000e+00  2.1713560677747551e-04 4.1122714316369207e-04 0.0000000000000000e+00  -2.1002189463808029e-04 4.1739054200178353e-04 0.0000000000000000e+00  5.6529749922482620e-05 1.9145248766083825e-04 0.0000000000000000e+00  -2.0990771542344299e-04 4.1756308108618836e-04 0.0000000000000000e+00  -2.0338091356214552e-04 4.1078064262215679e-04 0.0000000000000000e+00  5.1662301620376610e-04 1.1355153545253910e-03 0.0000000000000000e+00  5.1665504856761323e-04 1.1354762711413280e-03 0.0000000000000000e+00  4.0377605781583616e-04 1.1643467610566349e-03 0.0000000000000000e+00  5.1652312145143405e-04 1.1312950816408892e-03 0.0000000000000000e+00  4.0376693470395254e-04 1.1643173771057184e-03 0.0000000000000000e+00  5.7888798951217778e-05 5.8560774324017062e-06 0.0000000000000000e+00  4.0262825100060966e-04 1.1600882926748695e-03 0.0000000000000000e+00  5.7077402950200661e-05 5.9477396684801238e-06 0.0000000000000000e+00  2.8047870400234341e-05 2.3623434897796392e-04 0.0000000000000000e+00  5.7093547621466962e-05 5.9553894394760767e-06 0.0000000000000000e+00  3.1066303152885048e-05 7.0469544637938199e-06 0.0000000000000000e+00  3.1641379269463550e-05 7.0167777083233611e-06 0.0000000000000000e+00  3.1652142157300316e-05 7.0122466765220822e-06 0.0000000000000000e+00  1.7202389190370268e-04 1.2291081821430784e-03 0.0000000000000000e+00  -7.0362760229830763e-05 1.3339397508524372e-03 0.0000000000000000e+00  1.7797836928838787e-04 1.2264879786820385e-03 0.0000000000000000e+00  -1.3055387711629462e-03 1.2013249955437422e-03 0.0000000000000000e+00  1.7805435516150681e-04 1.2265799482727331e-03 0.0000000000000000e+00  -1.3125214993584219e-03 1.1994535843711546e-03 0.0000000000000000e+00  1.7581652777313419e-04 1.2756014100057740e-03 0.0000000000000000e+00  -1.3126002521236485e-03 1.1995382758135233e-03 0.0000000000000000e+00  1.7574092855171555e-04 1.2756948459800976e-03 0.0000000000000000e+00  -1.4826081482460320e-03 1.2494308302840483e-03 0.0000000000000000e+00  1.6987114221891637e-04 1.2729121058228049e-03 0.0000000000000000e+00  -1.3133394263775008e-03 1.2980727803454132e-03 0.0000000000000000e+00  -7.2765305044177769e-05 1.1673288273422000e-03 0.0000000000000000e+00  -1.3132719935748990e-03 1.2981389606384311e-03 0.0000000000000000e+00  -1.3068148936132402e-03 1.2970252985957890e-03 0.0000000000000000e+00  -1.3982648473683642e-05 2.4930242231047603e-03 0.0000000000000000e+00  -1.3992638143847830e-05 2.4930281534491080e-03 0.0000000000000000e+00  -3.9317453705780400e-05 2.4940822334673495e-03 0.0000000000000000e+00  -1.3430768986116394e-05 2.4929625206758285e-03 0.0000000000000000e+00  -3.9301985040912196e-05 2.4940893969581427e-03 0.0000000000000000e+00  -3.8393889571259915e-04 1.3405122124655678e-03 0.0000000000000000e+00  -4.0094653396833369e-05 2.4941527417151194e-03 0.0000000000000000e+00  -3.8500527630137805e-04 1.3361704129054965e-03 0.0000000000000000e+00  -4.7282283772258376e-04 2.1689257990667099e-03 0.0000000000000000e+00  -3.8501575774452864e-04 1.3361399747350835e-03 0.0000000000000000e+00  -4.9804641749874134e-04 1.3682899866472357e-03 0.0000000000000000e+00  -4.9817243177628688e-04 1.3640908774945912e-03 0.0000000000000000e+00  -4.9820500164141893e-04 1.3641300196200246e-03 0.0000000000000000e+00  6.2157441290479915e-05 2.0097804606081012e-03 0.0000000000000000e+00  6.2149601737403318e-05 2.0097682916322239e-03 0.0000000000000000e+00  -4.1334273285813136e-05 2.0097061370715577e-03 0.0000000000000000e+00  6.3541312864763306e-05 2.0071797829511774e-03 0.0000000000000000e+00  -4.1327860287463750e-05 2.0096938498555365e-03 0.0000000000000000e+00  6.1613462509819825e-05 4.9271850661354697e-04 0.0000000000000000e+00  -4.2631460579107180e-05 2.0071747977999750e-03 0.0000000000000000e+00  6.0226255804780782e-05 4.9019743792281471e-04 0.0000000000000000e+00  -3.1377136807095784e-04 1.2490695066139173e-03 0.0000000000000000e+00  6.0234543531426979e-05 4.9018599277804052e-04 0.0000000000000000e+00  -4.4617094722595608e-05 4.9273627711418101e-04 0.0000000000000000e+00  -4.3283599402983159e-05 4.9019703079362280e-04 0.0000000000000000e+00  -4.3276366377877320e-05 4.9020896333343451e-04 0.0000000000000000e+00  1.3259326148159906e-03 1.2026628566849196e-03 0.0000000000000000e+00  9.9070448332319160e-04 1.2848203405252771e-03 0.0000000000000000e+00  1.3329969335790386e-03 1.2008402480197388e-03 0.0000000000000000e+00  -1.5075025706765463e-04 1.2271031881101757e-03 0.0000000000000000e+00  1.3330762607712862e-03 1.2009248426359028e-03 0.0000000000000000e+00  -1.5684964137857425e-04 1.2244940099916178e-03 0.0000000000000000e+00  1.3309015121111085e-03 1.3009368670086857e-03 0.0000000000000000e+00  -1.5692724243329377e-04 1.2245871136877932e-03 0.0000000000000000e+00  1.3308216010125707e-03 1.3010231537646218e-03 0.0000000000000000e+00  -3.0468597562519192e-04 1.2481857576104431e-03 0.0000000000000000e+00  1.3237962927548728e-03 1.2991133408581876e-03 0.0000000000000000e+00  -1.5897243136394652e-04 1.2724568432039853e-03 0.0000000000000000e+00  9.8819900503114969e-04 1.2161723334575942e-03 0.0000000000000000e+00  -1.5890798583162466e-04 1.2725309160506646e-03 0.0000000000000000e+00  -1.5351591408980302e-04 1.2705960290635464e-03 0.0000000000000000e+00  2.2111858492655049e-04 2.0895552146400456e-03 0.0000000000000000e+00  6.0023810720639423e-05 2.3077591503568749e-03 0.0000000000000000e+00  2.2756730807008244e-04 2.0826250815914335e-03 0.0000000000000000e+00  -1.9921507184055454e-04 2.0890671394796188e-03 0.0000000000000000e+00  2.2768176246258176e-04 2.0827996248715961e-03 0.0000000000000000e+00  -2.0573382855161248e-04 2.0823756050146530e-03 0.0000000000000000e+00  5.0922977244320395e-04 2.0923448313929088e-03 0.0000000000000000e+00  -2.0584727258487529e-04 2.0825461242584085e-03 0.0000000000000000e+00  5.0920180784723586e-04 2.0923609772946173e-03 0.0000000000000000e+00  -4.7223259455269110e-04 2.0076728927138849e-03 0.0000000000000000e+00  5.0573724077479574e-04 2.0928682159386059e-03 0.0000000000000000e+00  -4.8783570350408864e-04 2.0920180787231662e-03 0.0000000000000000e+00  3.0821196409438312e-04 2.0512438037098056e-03 0.0000000000000000e+00  -4.8780739950407125e-04 2.0920320301334450e-03 0.0000000000000000e+00  -4.8427240852052031e-04 2.0927686889099890e-03 0.0000000000000000e+00  6.1403916702815350e-05 2.4939969216205143e-03 0.0000000000000000e+00  6.1387995412171594e-05 2.4940044957651800e-03 0.0000000000000000e+00  3.5725220767506206e-05 2.4930481428132225e-03 0.0000000000000000e+00  6.2191161619532320e-05 2.4940960587127555e-03 0.0000000000000000e+00  3.5731521897910170e-05 2.4930493264433999e-03 0.0000000000000000e+00  5.1903496666024602e-04 1.3668538362745725e-03 0.0000000000000000e+00  3.5281675949072312e-05 2.4927960492951472e-03 0.0000000000000000e+00  5.1917312253419356e-04 1.3627229051427865e-03 0.0000000000000000e+00  3.2061656589428176e-05 2.2653646607610376e-03 0.0000000000000000e+00  5.1914121060053341e-04 1.3626842159218779e-03 0.0000000000000000e+00  4.0495013926183585e-04 1.3407940159908234e-03 0.0000000000000000e+00  4.0610643715329386e-04 1.3364606048911496e-03 0.0000000000000000e+00  4.0609709857404369e-04 1.3364906494573799e-03 0.0000000000000000e+00  2.6417020019765152e-04 2.4666394549813404e-03 0.0000000000000000e+00  1.9887840598446441e-04 2.4877755339738298e-03 0.0000000000000000e+00  1.3858330453277553e-04 2.4958317733469824e-03 0.0000000000000000e+00  8.5538973800516861e-05 2.4929161514426652e-03 0.0000000000000000e+00  6.2712148431141114e-06 2.4642024114731481e-03 0.0000000000000000e+00  -1.8318005284229681e-05 2.4438755841699389e-03 0.0000000000000000e+00  -3.2503859200074325e-05 2.4228183260770349e-03 0.0000000000000000e+00  -3.7103790771762084e-05 2.4044900966108179e-03 0.0000000000000000e+00  -7.2732010975035528e-06 7.2057839713664130e-06 0.0000000000000000e+00  -8.0421799586250944e-06 1.1640820792025542e-05 0.0000000000000000e+00  -9.0876336958940644e-06 1.8265485700776726e-05 0.0000000000000000e+00  -1.0140828145286838e-05 2.7923489232897538e-05 0.0000000000000000e+00  -9.6015495176698932e-06 4.0982800118148896e-05 0.0000000000000000e+00  -7.0116595627098642e-06 5.7387796686164791e-05 0.0000000000000000e+00  1.4697508586728245e-05 9.5820906399058295e-05 0.0000000000000000e+00  3.3069041139376781e-05 1.1008280712251613e-04 0.0000000000000000e+00  -2.3839537596093239e-04 3.0705296397490717e-05 0.0000000000000000e+00  -1.6640771877738921e-04 9.8251870738984186e-06 0.0000000000000000e+00  -1.0161546611842155e-04 4.2152343617134850e-06 0.0000000000000000e+00  -4.5820645867158419e-05 1.1625726265284340e-05 0.0000000000000000e+00  -1.8419134741682352e-06 2.8082075693557941e-05 0.0000000000000000e+00  2.9759251660124259e-05 4.9757949354692981e-05 0.0000000000000000e+00  4.8700973677068447e-05 7.2951226278048585e-05 0.0000000000000000e+00  5.5368515081980326e-05 9.4155949284278716e-05 0.0000000000000000e+00  -4.1490023741926551e-04 1.2656058840321106e-04 0.0000000000000000e+00  -5.2648395758362319e-04 1.7038751241478701e-04 0.0000000000000000e+00  -7.5065696061687212e-04 1.8505075662215553e-04 0.0000000000000000e+00  -8.5150361888312973e-04 1.4707612039240194e-04 0.0000000000000000e+00  -9.4040916131093207e-04 8.1413035154445139e-05 0.0000000000000000e+00  -1.0114744437534743e-03 -6.3490588836444539e-06 0.0000000000000000e+00  -1.0591755875104618e-03 -1.0956950930517160e-04 0.0000000000000000e+00  -1.0798373078433523e-03 -2.2139015877387991e-04 0.0000000000000000e+00  -1.5194926294441055e-03 -3.3480027019699646e-04 0.0000000000000000e+00  -1.4076203442723938e-03 -3.3479539517527627e-04 0.0000000000000000e+00  -1.2957476528126649e-03 -3.3478211619199569e-04 0.0000000000000000e+00  -1.1838752585781342e-03 -3.3477254390226811e-04 0.0000000000000000e+00  -1.5115268754219858e-03 1.4569580087004638e-04 0.0000000000000000e+00  -1.5638958722432789e-03 5.9013267532581950e-05 0.0000000000000000e+00  -1.6027875388653174e-03 -3.4504567356867881e-05 0.0000000000000000e+00  -1.6273137416631502e-03 -1.3278722600909814e-04 0.0000000000000000e+00  -1.6369104878960657e-03 -2.3363963116519097e-04 0.0000000000000000e+00  -1.3676160258086355e-03 3.2587362749009549e-04 0.0000000000000000e+00  -1.3226866981431227e-03 4.3689478869443263e-04 0.0000000000000000e+00  -1.3065709987806181e-03 5.5981967800882815e-04 0.0000000000000000e+00  -1.3186516403712828e-03 6.8807349924093016e-04 0.0000000000000000e+00  -1.3544272785811658e-03 8.1918935394544837e-04 0.0000000000000000e+00  -1.4053410150462664e-03 9.4335618748404089e-04 0.0000000000000000e+00  -1.4569988055539080e-03 1.0600121246922413e-03 0.0000000000000000e+00  -1.4891661889905828e-03 1.1595955342460456e-03 0.0000000000000000e+00  -1.4912310920291512e-03 1.3390012188470753e-03 0.0000000000000000e+00  -1.4552758546781891e-03 1.4437882523524357e-03 0.0000000000000000e+00  -1.4043483156295938e-03 1.5565427579910460e-03 0.0000000000000000e+00  -1.3530798666720461e-03 1.6808618821310792e-03 0.0000000000000000e+00  -1.3177388717474394e-03 1.8117803747489743e-03 0.0000000000000000e+00  -1.3053576560569371e-03 1.9405975356251274e-03 0.0000000000000000e+00  -1.3212793183086798e-03 2.0635915652349309e-03 0.0000000000000000e+00  -1.3662126766754944e-03 2.1747749504544070e-03 0.0000000000000000e+00  -1.6356344643032525e-03 2.7345798283770865e-03 0.0000000000000000e+00  -1.6260310680745356e-03 2.6336714249102864e-03 0.0000000000000000e+00  -1.6014916327522367e-03 2.5353343237277809e-03 0.0000000000000000e+00  -1.5625779123737071e-03 2.4417634273820521e-03 0.0000000000000000e+00  -1.5101727984026285e-03 2.3550306001761659e-03 0.0000000000000000e+00  -1.1823391623655560e-03 2.8357705304457963e-03 0.0000000000000000e+00  -1.2942773034198881e-03 2.8357816411141981e-03 0.0000000000000000e+00  -1.4062142010155729e-03 2.8357947889499557e-03 0.0000000000000000e+00  -1.5181505965189091e-03 2.8357983768835327e-03 0.0000000000000000e+00  -1.0782447102822426e-03 2.7223223340819454e-03 0.0000000000000000e+00  -1.0575679313612257e-03 2.6104429598717525e-03 0.0000000000000000e+00  -1.0098445110311644e-03 2.5071469250276960e-03 0.0000000000000000e+00  -9.3865165739066402e-04 2.4193798101716513e-03 0.0000000000000000e+00  -8.4971851255737736e-04 2.3536065831999786e-03 0.0000000000000000e+00  -7.4881073254837952e-04 2.3153965478469318e-03 0.0000000000000000e+00  -5.2453038559978371e-04 2.3303018408264960e-03 0.0000000000000000e+00  -4.1283110634465715e-04 2.3740150080233911e-03 0.0000000000000000e+00  5.8562764182355618e-05 2.4065170734698096e-03 0.0000000000000000e+00  5.1897873586258157e-05 2.4278288778843524e-03 0.0000000000000000e+00  3.2790864675964790e-05 2.4510714733997976e-03 0.0000000000000000e+00  1.0284203654560030e-06 2.4727287818566424e-03 0.0000000000000000e+00  -4.3128110670173747e-05 2.4892687062741579e-03 0.0000000000000000e+00  -9.8636725293174541e-05 2.4964401080914706e-03 0.0000000000000000e+00  -1.6388925150962510e-04 2.4910153389402596e-03 0.0000000000000000e+00  -2.3555865841446604e-04 2.4702848954805353e-03 0.0000000000000000e+00  3.6821379659004761e-05 2.3904839548308581e-03 0.0000000000000000e+00  1.8584112192017168e-05 2.4042709330662567e-03 0.0000000000000000e+00  -2.2106434913082657e-06 2.4431129743125732e-03 0.0000000000000000e+00  -5.6920515476667519e-06 2.4592915169213180e-03 0.0000000000000000e+00  -6.0828539150979251e-06 2.4719662084956321e-03 0.0000000000000000e+00  -5.1864930758988881e-06 2.4817529736375120e-03 0.0000000000000000e+00  -3.9817048270300360e-06 2.4882936903614329e-03 0.0000000000000000e+00  -3.3829392327226786e-06 2.4927157443336641e-03 0.0000000000000000e+00  5.3498587651841810e-06 2.4986577435729736e-03 0.0000000000000000e+00  5.1013138575703068e-06 2.4974375940416656e-03 0.0000000000000000e+00  4.5751174900461541e-06 2.4964722122260172e-03 0.0000000000000000e+00  3.6424257410898712e-06 2.4958336192397327e-03 0.0000000000000000e+00  2.0655535740794615e-06 2.4956910359539260e-03 0.0000000000000000e+00  -4.1119861658798485e-07 2.4958194170365765e-03 0.0000000000000000e+00  1.6932056233317766e-05 2.5000000000000001e-03 0.0000000000000000e+00  1.7660351754272415e-05 2.5000000000000001e-03