<?xml version="1.0"?>
<VTKFile type="UnstructuredGrid"  version="0.1"  >
<UnstructuredGrid>
<Piece  NumberOfPoints="4855" NumberOfCells="8780">
<Points>
<DataArray  type="Float64"  NumberOfComponents="3"  format="ascii">0.9483880164242298 0.6836931311526558 0  0.9494264999197789 0.6847056440044139 0  0.9494005292759887 0.6847228078606633 0  0.9735520289385229 0.7444444444444445 0  0.9494005292759886 0.8041660810282256 0  0.94942649991978 0.8041832448844759 0  0.9483880175070514 0.8051957566534116 0  3.131175874138137e-16 0.09811450876034808 0  0.06838800723463068 0.1543033514199101 0  0.05161198249294494 0.1948042433465922 0  0.0505735000802211 0.1958167551155251 0  0.05059947072401128 0.1958339189717744 0  0.0505994707240113 0.3152771921393367 0  0.05057350008021998 0.315294355995587 0  0.05161198357913653 0.3163068688507105 0  0.06838800723463068 0.356807759691201 0  3.252606517456513e-16 0.4129966023507631 0  -1.795438797635995e-16 0.4839416311832997 0  0.07083274769489223 0.4605116403870998 0  0.07084991155114129 0.4605376110308903 0  0.07186242331670639 0.4594991286215342 0  0.1696402113702762 0.5 0  0.07186242332008326 0.5405008713818427 0  0.0708499115511413 0.5394623889691096 0  0.07083274769489219 0.5394883596129002 0  -1.925543058334256e-16 0.5160583688167003 0  1.484923295436147e-15 0.5870033976492365 0  0.06838800723463068 0.643192240308799 0  0.05161198249294541 0.6836931322354806 0  0.05057350008022109 0.6847056440044139 0  0.0505994707240113 0.6847228078606633 0  0.0505994707240113 0.8041660810282256 0  0.05057350008021999 0.804183244884476 0  0.05161198249294764 0.8051957566534106 0  0.06838800723463068 0.84569664858009 0  1.485790657174135e-15 0.9018854912396524 0  0 1 0  1 1 0  0.9999999999999987 0.9018854912396523 0  1.000000000000001 0.5870033976492375 0  1 0.5160583688167003 0  0.9291672523051078 0.5394883596129003 0  0.9291500884488585 0.5394623889691117 0  0.9281375755937461 0.5405008724680134 0  0.9281375755937372 0.4594991275319777 0  0.9291500884488586 0.4605376110308884 0  0.9291672523051077 0.4605116403870997 0  1 0.4839416311832997 0  0.9999999999999987 0.4129966023507635 0  0.948388017507054 0.31630686776452 0  0.94942649991978 0.3152943559955871 0  0.9494005292759886 0.3152771921393367 0  0.9735520289385229 0.2555555555555555 0  0.9494005292759888 0.1958339189717744 0  0.9494264999197789 0.1958167551155251 0  0.9483880164208631 0.1948042422604003 0  1.000000000000001 0.09811450876034861 0  1 0 0  0 0 0  0.1958339189717744 0.2950439151684559 0  0.1958167551155252 0.2950179445246672 0  0.3152771921393367 0.2950439151684557 0  0.1948042433481841 0.2960564269357975 0  0.3152943559955858 0.2950179445246651 0  0.1948042422604031 0.2150546830875326 0  0.3163068677645244 0.2960564269373949 0  0.1958167551155251 0.2160931665864439 0  0.4140846558147206 0.2555555555555555 0  0.1958339189717744 0.2160671959426553 0  0.3163068688489276 0.215054683089313 0  0.3152771921393367 0.2160671959426553 0  0.3152943559955858 0.2160931665864459 0  0.5405008724680257 0.3163068688507107 0  0.5572768961235196 0.356807759691201 0  0.5394623889691089 0.3152943559955871 0  0.459499128618165 0.3163068677645201 0  0.5394883596129003 0.3152771921393367 0  0.4605376110308911 0.3152943559955871 0  0.5394883596129001 0.1958339189717744 0  0.4605116403870998 0.3152771921393367 0  0.53946238896911 0.1958167551155251 0  0.4846631400496339 0.2555555555555555 0  0.5405008724680251 0.1948042422604009 0  0.4605116403870998 0.1958339189717744 0  0.5572768961235196 0.1543033514199101 0  0.46053761103089 0.1958167551155251 0  0.4594991286269881 0.1948042433554141 0  0.6847228078606633 0.2950439151684559 0  0.684705644004414 0.2950179445246672 0  0.8041660810282256 0.2950439151684557 0  0.683693131164073 0.2960564280087975 0  0.8041832448844747 0.2950179445246651 0  0.6836931322354718 0.2150546841737125 0  0.8051957566534156 0.2960564269373971 0  0.6847056440044141 0.2160931665864439 0  0.9029735447036096 0.2555555555555555 0  0.6847228078606632 0.2160671959426553 0  0.8051957577274008 0.2150546830997286 0  0.8041660810282256 0.2160671959426553 0  0.8041832448844747 0.2160931665864459 0  0.2960564280235811 0.560751313295155 0  0.3128324516790751 0.6012522041356455 0  0.2950179445246645 0.5597388004400315 0  0.2150546830875235 0.5607513132951615 0  0.2950439151684557 0.5597216365837812 0  0.2160931665864466 0.5597388004400314 0  0.2950439151684558 0.4402783634162188 0  0.2160671959426553 0.5597216365837812 0  0.2950179445246656 0.4402611995599696 0  0.2402186956051895 0.5 0  0.29605642693739 0.439248687791036 0  0.2160671959426553 0.4402783634162189 0  0.3128324516790751 0.3987477958643545 0  0.2160931665864455 0.4402611995599696 0  0.2150546830875296 0.4392486867048446 0  0.1958339189717743 0.7839328040573448 0  0.1958167551155252 0.7839068334135562 0  0.3152771921393367 0.7839328040573447 0  0.1948042422604028 0.7849453169124678 0  0.3152943559955858 0.783906833413554 0  0.1948042433465913 0.7039435730626098 0  0.3163068677645284 0.7849453158262878 0  0.1958167551155251 0.7049820554753328 0  0.4140846558147206 0.7444444444444445 0  0.1958339189717744 0.7049560848315441 0  0.3163068688486237 0.7039435719785058 0  0.3152771921393367 0.7049560848315441 0  0.3152943559955858 0.7049820554753349 0  0.4402783634162188 0.5394883596129003 0  0.4402611995599696 0.5394623889691117 0  0.5597216365837812 0.5394883596129002 0  0.4392486867048468 0.5405008724680237 0  0.5597388004400302 0.5394623889691096 0  0.4392486877998708 0.4594991286270004 0  0.5607513122089726 0.540500871381843 0  0.4402611995599696 0.4605376110308884 0  0.6585291002591651 0.5 0  0.4402783634162188 0.4605116403870998 0  0.5607513121946796 0.45949912863245 0  0.5597216365837812 0.4605116403870998 0  0.5597388004400302 0.4605376110308904 0  0.78494531690701 0.5607513132896949 0  0.8017213405679641 0.6012522041356455 0  0.7839068334135535 0.5597388004400315 0  0.7039435730626069 0.5607513122089671 0  0.7839328040573448 0.5597216365837812 0  0.7049820554753355 0.5597388004400314 0  0.7839328040573448 0.4402783634162188 0  0.7049560848315441 0.5597216365837812 0  0.7839068334135545 0.4402611995599696 0  0.7291075844940784 0.5 0  0.784945315826279 0.4392486877910359 0  0.7049560848315444 0.4402783634162188 0  0.8017213405679641 0.3987477958643545 0  0.7049820554753344 0.4402611995599696 0  0.7039435719764182 0.4392486867048443 0  0.5405008724625655 0.8051957577341393 0  0.5572768961235196 0.84569664858009 0  0.539462388969109 0.804183244884476 0  0.4594991286181648 0.8051957566534091 0  0.5394883596129003 0.8041660810282256 0  0.4605376110308911 0.804183244884476 0  0.5394883596129003 0.6847228078606633 0  0.4605116403870998 0.8041660810282256 0  0.53946238896911 0.6847056440044139 0  0.4846631400496339 0.7444444444444445 0  0.5405008713818347 0.6836931322354802 0  0.4605116403870998 0.6847228078606633 0  0.5572768961235196 0.643192240308799 0  0.46053761103089 0.6847056440044139 0  0.4594991275353449 0.6836931311526599 0  0.6847228078606633 0.7839328040573448 0  0.684705644004414 0.7839068334135562 0  0.8041660810282256 0.7839328040573447 0  0.6836931311493016 0.7849453169124578 0  0.8041832448844747 0.783906833413554 0  0.68369313223548 0.7039435730626096 0  0.805195756653417 0.7849453158262875 0  0.6847056440044141 0.7049820554753328 0  0.9029735447036096 0.7444444444444445 0  0.6847228078606633 0.7049560848315441 0  0.805195757738809 0.7039435719772094 0  0.8041660810282256 0.7049560848315441 0  0.8041832448844747 0.7049820554753349 0  0.9578164230213342 0.6948838683471341 0  0.9645772892192558 0.7062137009141434 0  0.9695236884064815 0.7184451175460498 0  0.972538971146615 0.7312896684428197 0  0.9725389711466151 0.7575992204460691 0  0.9695236884064815 0.7704437713428391 0  0.9645772892192558 0.7826751879747456 0  0.9578164230213342 0.7940050205417549 0  0.01437766570919127 0.09711967848259151 0  0.02854851642641832 0.09974531144948819 0  0.04161535472570586 0.1058251712658871 0  0.05275088139110013 0.1149743244732108 0  0.06125007411586489 0.1266135117968212 0  0.06657482449792251 0.1400058227212122 0  0.06643634307317195 0.1691277076584997 0  0.06071435336153361 0.1829418078690686 0  0.04134737123322858 0.3039103077764334 0  0.03416190609801732 0.2911362521989113 0  0.02925217947541549 0.2773267630846004 0  0.02676106927623143 0.2628837102534819 0  0.02676106927623143 0.2482274008576293 0  0.02925217947541547 0.2337843480265108 0  0.03416190609801727 0.2199748589121999 0  0.04134737123322851 0.2072008033346779 0  0.06071435387356935 0.328169304128914 0  0.06643634320569657 0.3419834039471998 0  0.06657482449792249 0.371105288389899 0  0.06125007411586481 0.3844975993142901 0  0.05275088139109994 0.3961367866379005 0  0.04161535472570563 0.4052859398452242 0  0.02854851642641818 0.411365799661623 0  0.01437766570919127 0.4139914326285196 0  0 0.4697526254167924 0  0 0.455563619650285 0  0 0.4413746138837777 0  0 0.4271856081172704 0  0.06095233986089402 0.4687284952262988 0  0.04995687430503332 0.4753797281664747 0  0.03809234373417287 0.4803165365228644 0  0.02562418374773841 0.4834284730529493 0  0.01283133446055119 0.4846459169037758 0  0.08372485599813187 0.4503967593658507 0  0.09753895276796982 0.4446747697099958 0  0.1123633055586467 0.4427231038764812 0  0.1271876590095525 0.4446747646950606 0  0.1410017577150834 0.45039674967774 0  0.1528641934757506 0.4594991149204779 0  0.161966560724962 0.471361549141524 0  0.1676885480442292 0.4851756468792086 0  0.1676885480443665 0.514824353120279 0  0.1619665607254926 0.528638450857557 0  0.1528641934768762 0.5405008850783964 0  0.1410017577169217 0.5496032503211987 0  0.1271876590121153 0.5553252353042526 0  0.1123633055618306 0.5572768961235188 0  0.09753895277155772 0.5553252302909656 0  0.08372485600180817 0.5496032406362719 0  0.0128313344605512 0.5153540830962242 0  0.0256241837477384 0.5165715269470507 0  0.03809234373417282 0.5196834634771356 0  0.04995687430503334 0.5246202718335253 0  0.06095233986089401
[...]
<PointData  Vectors="$u$"> 
<DataArray  type="Float64"  Name="$u$"  NumberOfComponents="3" format="ascii">6.5052824166474564e-03 4.9059187378371262e-02 0.0000000000000000e+00  6.3440475564162180e-03 4.9113001056119203e-02 0.0000000000000000e+00  6.3415532231267703e-03 4.9111513054272402e-02 0.0000000000000000e+00  4.2691185160747066e-04 4.9626590266496552e-02 0.0000000000000000e+00  -8.5546330098327215e-04 4.8224324628117272e-02 0.0000000000000000e+00  -8.5549949369277136e-04 4.8225143539565037e-02 0.0000000000000000e+00  -8.4490005830837602e-04 4.8186387684356895e-02 0.0000000000000000e+00  -4.3034035333882889e-05 2.7900861409130157e-05 0.0000000000000000e+00  1.9461803989510586e-05 4.7110753240019789e-04 0.0000000000000000e+00  3.7640214664312968e-04 5.6854751882047462e-04 0.0000000000000000e+00  3.8874298282425424e-04 5.3623813785357835e-04 0.0000000000000000e+00  3.8873481396010354e-04 5.3692933869712125e-04 0.0000000000000000e+00  -6.8331430094623873e-03 -3.6793288952506977e-04 0.0000000000000000e+00  -6.8356984758904359e-03 -3.6924808622715684e-04 0.0000000000000000e+00  -7.0023493687429465e-03 -3.2214500799436301e-04 0.0000000000000000e+00  -1.3585127129931466e-02 1.9164131554532695e-03 0.0000000000000000e+00  -2.2623915256748572e-02 -9.1119940615130759e-03 0.0000000000000000e+00  -3.4110166802002788e-02 -9.1120364753133534e-03 0.0000000000000000e+00  -3.0317598099535253e-02 2.3558351383966389e-03 0.0000000000000000e+00  -3.0321791191719787e-02 2.3586109710463845e-03 0.0000000000000000e+00  -3.0154489248342711e-02 2.5228211243698657e-03 0.0000000000000000e+00  -2.9361088941160247e-02 2.4277326578229584e-02 0.0000000000000000e+00  -3.0341080375161849e-02 4.6268449229796081e-02 0.0000000000000000e+00  -3.0508820771973217e-02 4.6431754218433735e-02 0.0000000000000000e+00  -3.0504626973586663e-02 4.6434524273264652e-02 0.0000000000000000e+00  -3.4295320567475147e-02 5.7895920139787650e-02 0.0000000000000000e+00  -2.2815348290891362e-02 5.7895802778497138e-02 0.0000000000000000e+00  -1.3783523844495243e-02 4.6866768700053442e-02 0.0000000000000000e+00  -7.2048621136705029e-03 4.9053270582184220e-02 0.0000000000000000e+00  -7.0530685288102725e-03 4.9096481129518588e-02 0.0000000000000000e+00  -7.0507629663004636e-03 4.9095298376827239e-02 0.0000000000000000e+00  2.0687847092908453e-05 4.8198997011187697e-02 0.0000000000000000e+00  2.0681242644140282e-05 4.8199592469798352e-02 0.0000000000000000e+00  8.5459645594992267e-06 4.8169512835241290e-02 0.0000000000000000e+00  -3.4968331961417626e-04 4.8279094419411264e-02 0.0000000000000000e+00  -4.1636129061682181e-04 4.8721696158362138e-02 0.0000000000000000e+00  -3.6500872138891063e-04 4.8750000000000002e-02 0.0000000000000000e+00  -4.7613923301301003e-04 4.8750000000000002e-02 0.0000000000000000e+00  -4.2498088318580491e-04 4.8721659631677260e-02 0.0000000000000000e+00  2.2198288797814488e-02 5.7974770264136062e-02 0.0000000000000000e+00  3.3746479879196982e-02 5.7974859646470513e-02 0.0000000000000000e+00  2.9933964973314502e-02 4.6444771389449017e-02 0.0000000000000000e+00  2.9938195830067637e-02 4.6441975990674240e-02 0.0000000000000000e+00  2.9769033708066685e-02 4.6277115029379555e-02 0.0000000000000000e+00  2.9772061673250073e-02 2.4440493178529928e-03 0.0000000000000000e+00  2.9938659088227331e-02 2.2811452290880355e-03 0.0000000000000000e+00  2.9934488941201997e-02 2.2783872455501065e-03 0.0000000000000000e+00  3.3705734637881818e-02 -9.1243847010016779e-03 0.0000000000000000e+00  2.2284448611614837e-02 -9.1243540269682830e-03 0.0000000000000000e+00  6.7523965939631763e-03 -2.6666456802433537e-04 0.0000000000000000e+00  6.5918834184963658e-03 -3.0801225860122960e-04 0.0000000000000000e+00  6.5894046867239660e-03 -3.0684988946507336e-04 0.0000000000000000e+00  8.0048153540421025e-04 -8.7187567767627321e-04 0.0000000000000000e+00  -4.9657552543204561e-04 5.2346317258399153e-04 0.0000000000000000e+00  -4.9654469395061715e-04 5.2249420083406756e-04 0.0000000000000000e+00  -4.8097014820312566e-04 5.6615943846317581e-04 0.0000000000000000e+00  -6.0429680677530108e-05 2.8374968750239105e-05 0.0000000000000000e+00  -1.1247823120839361e-04 0.0000000000000000e+00 0.0000000000000000e+00  0.0000000000000000e+00 0.0000000000000000e+00 0.0000000000000000e+00  -8.1996057886443881e-03 2.1979643763109416e-02 0.0000000000000000e+00  -8.2005289330420329e-03 2.1976717106058839e-02 0.0000000000000000e+00  -9.5036678327863940e-03 2.2238437556681995e-02 0.0000000000000000e+00  -8.1601572988738991e-03 2.1785898869632985e-02 0.0000000000000000e+00  -9.5038038913758879e-03 2.2236917808461206e-02 0.0000000000000000e+00  -1.0117136116584837e-04 6.2277199030284888e-05 0.0000000000000000e+00  -9.5058251758204076e-03 2.2135830781729187e-02 0.0000000000000000e+00  -1.0478300167525171e-04 6.2444719705302760e-05 0.0000000000000000e+00  -9.1805484528334706e-03 8.8152348897633150e-03 0.0000000000000000e+00  -1.0471474923628662e-04 6.2477647762968148e-05 0.0000000000000000e+00  -2.4991021672528252e-04 5.4917522713320208e-05 0.0000000000000000e+00  -2.4843758435569811e-04 5.5417349661640362e-05 0.0000000000000000e+00  -2.4840251029845144e-04 5.5396109944091831e-05 0.0000000000000000e+00  9.3920220643736417e-03 9.7304388440330493e-03 0.0000000000000000e+00  5.5601978102527202e-03 1.1102547623071311e-02 0.0000000000000000e+00  9.4764090286585511e-03 9.7670445450523322e-03 0.0000000000000000e+00  -9.7097076148828579e-03 9.6751177073422269e-03 0.0000000000000000e+00  9.4775934619971136e-03 9.7662666470580382e-03 0.0000000000000000e+00  -9.7905914063016793e-03 9.7339708500120033e-03 0.0000000000000000e+00  5.7379963888315091e-03 9.8042895833558175e-03 0.0000000000000000e+00  -9.7916872933964515e-03 9.7325928659566067e-03 0.0000000000000000e+00  5.7319777689596122e-03 9.8078231247349257e-03 0.0000000000000000e+00  -1.0679978401663046e-02 1.0872304632827203e-02 0.0000000000000000e+00  5.3973218423294216e-03 9.7017663894210186e-03 0.0000000000000000e+00  -5.8814018942711932e-03 9.7568279561425515e-03 0.0000000000000000e+00  6.2198930335871031e-04 1.3805220653495406e-03 0.0000000000000000e+00  -5.8752946335091129e-03 9.7615648229259430e-03 0.0000000000000000e+00  -5.5415362896193456e-03 9.6082907063035194e-03 0.0000000000000000e+00  9.1590792036871527e-03 2.2270278304858018e-02 0.0000000000000000e+00  9.1588522996413346e-03 2.2268719242193556e-02 0.0000000000000000e+00  7.8941346572015455e-03 2.1760289562074837e-02 0.0000000000000000e+00  9.1751184845221077e-03 2.2162663304234026e-02 0.0000000000000000e+00  7.8949107025876649e-03 2.1757358286136137e-02 0.0000000000000000e+00  1.4814537048403437e-04 5.2935106269132573e-05 0.0000000000000000e+00  7.8577085593327604e-03 2.1567915231293543e-02 0.0000000000000000e+00  1.4599449592990075e-04 5.4770718413621960e-05 0.0000000000000000e+00  1.8137753644808018e-03 2.8096690592442513e-03 0.0000000000000000e+00  1.4605142305994495e-04 5.4809348063423986e-05 0.0000000000000000e+00  -1.5528556900980104e-06 6.0091816751375426e-05 0.0000000000000000e+00  7.7195834754042044e-07 6.2251524090709779e-05 0.0000000000000000e+00  8.3161337704063338e-07 6.2211088147619335e-05 0.0000000000000000e+00  1.6620316753563832e-03 2.4369122970540801e-02 0.0000000000000000e+00  -2.4547403988106659e-03 2.6379828067647423e-02 0.0000000000000000e+00  1.7845672576680769e-03 2.4346165585985801e-02 0.0000000000000000e+00  -2.7332610604529548e-02 2.3313289558353659e-02 0.0000000000000000e+00  1.7863610264285696e-03 2.4346830112142278e-02 0.0000000000000000e+00  -2.7498570167168959e-02 2.3253902453512464e-02 0.0000000000000000e+00  1.8957760371566090e-03 2.4748566854257675e-02 0.0000000000000000e+00  -2.7501127884254840e-02 2.3255492554383604e-02 0.0000000000000000e+00  1.8940842104814850e-03 2.4749862547730334e-02 0.0000000000000000e+00  -3.2421957301911386e-02 2.4525604517359741e-02 0.0000000000000000e+00  1.7800540638530898e-03 2.4701130828196641e-02 0.0000000000000000e+00  -2.7282733695348858e-02 2.5505140296644933e-02 0.0000000000000000e+00  -2.3535439384889125e-03 2.2654969246660002e-02 0.0000000000000000e+00  -2.7280581990126493e-02 2.5506044614482731e-02 0.0000000000000000e+00  -2.7139389006328549e-02 2.5475853254965781e-02 0.0000000000000000e+00  -4.7848654024395821e-04 4.8690019345425620e-02 0.0000000000000000e+00  -4.7857947736480407e-04 4.8690068211325120e-02 0.0000000000000000e+00  -6.2492902010955387e-04 4.8697596657215549e-02 0.0000000000000000e+00  -4.7400523335289842e-04 4.8691388565623245e-02 0.0000000000000000e+00  -6.2487286244327657e-04 4.8697636544208590e-02 0.0000000000000000e+00  -8.3971014154882832e-03 2.7014059336226300e-02 0.0000000000000000e+00  -6.2689447682443868e-04 4.8699577288979994e-02 0.0000000000000000e+00  -8.4318618215444199e-03 2.6805426954628880e-02 0.0000000000000000e+00  -9.0176993098312185e-03 4.0397412943492778e-02 0.0000000000000000e+00  -8.4310779811201282e-03 2.6802197847710228e-02 0.0000000000000000e+00  -9.6879179418901465e-03 2.6901248128027369e-02 0.0000000000000000e+00  -9.6911464520130410e-03 2.6797531742445830e-02 0.0000000000000000e+00  -9.6914295830171204e-03 2.6799028580731996e-02 0.0000000000000000e+00  1.5501091576476314e-04 3.7480082923951566e-02 0.0000000000000000e+00  1.5502577156661088e-04 3.7478469298520230e-02 0.0000000000000000e+00  -7.4928810452883673e-04 3.7339951858298130e-02 0.0000000000000000e+00  1.6071326408095206e-04 3.7369887042977848e-02 0.0000000000000000e+00  -7.4951124761106686e-04 3.7338320685451745e-02 0.0000000000000000e+00  3.1703800621955651e-04 1.1722601634281044e-02 0.0000000000000000e+00  -7.4659394755869453e-04 3.7230199479191949e-02 0.0000000000000000e+00  3.0301725834407822e-04 1.1637313143977977e-02 0.0000000000000000e+00  -2.9594768516021980e-03 2.4454663785742261e-02 0.0000000000000000e+00  3.0323095189850466e-04 1.1636091676183321e-02 0.0000000000000000e+00  -5.8693375055521150e-04 1.1710314499990260e-02 0.0000000000000000e+00  -5.8686002520749085e-04 1.1610851954203529e-02 0.0000000000000000e+00  -5.8701005406419356e-04 1.1612287541259604e-02 0.0000000000000000e+00  2.6749272116388067e-02 2.3154602828707033e-02 0.0000000000000000e+00  1.9939936836483912e-02 2.5711032608678491e-02 0.0000000000000000e+00  2.6941406421256840e-02 2.3086798422641313e-02 0.0000000000000000e+00  -2.1625847625488200e-03 2.4368141774415396e-02 0.0000000000000000e+00  2.6944403814701069e-02 2.3088663929628082e-02 0.0000000000000000e+00  -2.2700764627143245e-03 2.4334593169733368e-02 0.0000000000000000e+00  2.6953736073423211e-02 2.5350145441798089e-02 0.0000000000000000e+00  -2.2715991086012443e-03 2.4335418377132375e-02 0.0000000000000000e+00  2.6951333776945734e-02 2.5351938647561172e-02 0.0000000000000000e+00  -5.2763204340607493e-03 2.4587564029876729e-02 0.0000000000000000e+00  2.6795319089836109e-02 2.5283955953112804e-02 0.0000000000000000e+00  -2.1647389062048748e-03 2.4716817848321443e-02 0.0000000000000000e+00  2.0056681359259500e-02 2.2767487292333740e-02 0.0000000000000000e+00  -2.1634981969566695e-03 2.4717246140574460e-02 0.0000000000000000e+00  -2.0741190645685490e-03 2.4701924516375061e-02 0.0000000000000000e+00  4.8065695454327824e-03 3.9446760645433371e-02 0.0000000000000000e+00  1.7194484293332700e-04 4.7428973395865909e-02 0.0000000000000000e+00  5.1316484963106678e-03 3.9251409309917475e-02 0.0000000000000000e+00  -5.4137390897809404e-03 3.9509274531881855e-02 0.0000000000000000e+00  5.1375405586782247e-03 3.9257125887236510e-02 0.0000000000000000e+00  -5.7215297444217546e-03 3.9376458050041620e-02 0.0000000000000000e+00  9.3271960017086101e-03 3.9147482333934433e-02 0.0000000000000000e+00  -5.7270799571563580e-03 3.9380539295872742e-02 0.0000000000000000e+00  9.3260369085710459e-03 3.9146475768003279e-02 0.0000000000000000e+00  -1.0817103553720113e-02 3.8179034226716167e-02 0.0000000000000000e+00  9.2408689239877606e-03 3.9189509007459877e-02 0.0000000000000000e+00  -9.9463324560585629e-03 3.9335863848430574e-02 0.0000000000000000e+00  5.3837052596791201e-03 3.7856805245145626e-02 0.0000000000000000e+00  -9.9447620484498355e-03 3.9335094020730217e-02 0.0000000000000000e+00  -9.8380757997250552e-03 3.9370025947275941e-02 0.0000000000000000e+00  -2.1520624780476771e-04 4.8695728534901568e-02 0.0000000000000000e+00  -2.1523420209374727e-04 4.8695749997250674e-02 0.0000000000000000e+00  -3.6304356367763442e-04 4.8689638204289079e-02 0.0000000000000000e+00  -2.1434936737272232e-04 4.8696904167758133e-02 0.0000000000000000e+00  -3.6299963675177649e-04 4.8689648655493238e-02 0.0000000000000000e+00  9.1026809576403890e-03 2.6861903388417555e-02 0.0000000000000000e+00  -3.6609305356449210e-04 4.8688172382489660e-02 0.0000000000000000e+00  9.0979364417266284e-03 2.6758888978960678e-02 0.0000000000000000e+00  1.5058573871958461e-03 4.5830803468071189e-02 0.0000000000000000e+00  9.0978512573789416e-03 2.6757373639782825e-02 0.0000000000000000e+00  7.8219130721857485e-03 2.6960678768388296e-02 0.0000000000000000e+00  7.8487493566476354e-03 2.6766978503688293e-02 0.0000000000000000e+00  7.8493989192310199e-03 2.6769874732727125e-02 0.0000000000000000e+00  4.8892450651841267e-03 4.9732952916289791e-02 0.0000000000000000e+00  3.5312251159056655e-03 5.0012780901200447e-02 0.0000000000000000e+00  2.2905271172041276e-03 5.0098018530194806e-02 0.0000000000000000e+00  1.2317370924128349e-03 4.9911951073836600e-02 0.0000000000000000e+00  -1.5352224998717122e-04 4.9299977512834638e-02 0.0000000000000000e+00  -5.3713841320988519e-04 4.8956852398544838e-02 0.0000000000000000e+00  -7.6898560752208659e-04 4.8660934944699065e-02 0.0000000000000000e+00  -8.6252800499953290e-04 4.8403159652075520e-02 0.0000000000000000e+00  -4.1500266080329122e-05 4.6796405181189670e-05 0.0000000000000000e+00  -4.9519768319313822e-05 7.2337605362416074e-05 0.0000000000000000e+00  -5.3324300702770057e-05 1.1556236131753526e-04 0.0000000000000000e+00  -5.9381681905619420e-05 1.7132032789910100e-04 0.0000000000000000e+00  -5.6711787590891586e-05 2.5318143772685905e-04 0.0000000000000000e+00  -2.8522707774700121e-05 3.5674421590452211e-04 0.0000000000000000e+00  1.1962740341710461e-04 6.0142913452146667e-04 0.0000000000000000e+00  2.5816893930574123e-04 6.4289833287954829e-04 0.0000000000000000e+00  -5.2391208016655619e-03 -1.0095497008656583e-03 0.0000000000000000e+00  -3.7337310026765492e-03 -1.3624710519377740e-03 0.0000000000000000e+00  -2.3748350262018181e-03 -1.2880493816982575e-03 0.0000000000000000e+00  -1.3439242434499278e-03 -1.0803671724187018e-03 0.0000000000000000e+00  -5.6257262667355735e-04 -7.1130472994234469e-04 0.0000000000000000e+00  -3.3695926824733804e-05 -3.2257956847708764e-04 0.0000000000000000e+00  2.6036883755198363e-04 3.3755639014605165e-05 0.0000000000000000e+00  3.9249002511374339e-04 3.1945642603243500e-04 0.0000000000000000e+00  -8.8972207625318267e-03 7.5105593511023744e-04 0.0000000000000000e+00  -1.1179999553314432e-02 1.5910374750555453e-03 0.0000000000000000e+00  -1.5884102874101781e-02 1.6577045295726447e-03 0.0000000000000000e+00  -1.8024767557832055e-02 8.0254292674166990e-04 0.0000000000000000e+00  -1.9899245688766637e-02 -5.6946116030410089e-04 0.0000000000000000e+00  -2.1376687261737130e-02 -2.3728933385661474e-03 0.0000000000000000e+00  -2.2359538426947764e-02 -4.4895426923334744e-03 0.0000000000000000e+00  -2.2784958175482633e-02 -6.7841251368024437e-03 0.0000000000000000e+00  -3.1812982352344574e-02 -9.1120754135642478e-03 0.0000000000000000e+00  -2.9515687000532503e-02 -9.1120410833427194e-03 0.0000000000000000e+00  -2.7218508063055185e-02 -9.1120097131820385e-03 0.0000000000000000e+00  -2.4921133867380131e-02 -9.1120419784540569e-03 0.0000000000000000e+00  -3.1647655920091257e-02 7.5607990386138612e-04 0.0000000000000000e+00  -3.2724003163756156e-02 -1.0242684535869009e-03 0.0000000000000000e+00  -3.3523348725623105e-02 -2.9448661342943430e-03 0.0000000000000000e+00  -3.4027075956935868e-02 -4.9635239508355683e-03 0.0000000000000000e+00  -3.4224200650709316e-02 -7.0346552710445244e-03 0.0000000000000000e+00  -2.8680248351941037e-02 4.4436958338857305e-03 0.0000000000000000e+00  -2.7763315155753105e-02 6.6900082423100426e-03 0.0000000000000000e+00  -2.7435911995243600e-02 9.1168873050249746e-03 0.0000000000000000e+00  -2.7755986093737011e-02 1.1564835979510815e-02 0.0000000000000000e+00  -2.8674398716371140e-02 1.3925356124375362e-02 0.0000000000000000e+00  -2.9914197297520859e-02 1.5958430295498541e-02 0.0000000000000000e+00  -3.0762922772032672e-02 1.7845964323839534e-02 0.0000000000000000e+00  -2.9838230601111900e-02 2.0745546148728849e-02 0.0000000000000000e+00  -3.0089810954891241e-02 2.7987329921551285e-02 0.0000000000000000e+00  -3.0670529343746738e-02 3.0972886017688751e-02 0.0000000000000000e+00  -3.0157381109146800e-02 3.2851921137156861e-02 0.0000000000000000e+00  -2.8847187906652388e-02 3.4868704278080052e-02 0.0000000000000000e+00  -2.7954334708115713e-02 3.7231085731827561e-02 0.0000000000000000e+00  -2.7625796116845174e-02 3.9679704216463704e-02 0.0000000000000000e+00  -2.7949494256492312e-02 4.2102225813709836e-02 0.0000000000000000e+00  -2.8870498378732855e-02 4.4346865483040412e-02 0.0000000000000000e+00  -3.4409339590498279e-02 5.5819624313674425e-02 0.0000000000000000e+00  -3.4212178498417380e-02 5.3749690632542778e-02 0.0000000000000000e+00  -3.3708960614278125e-02 5.1732145965194577e-02 0.0000000000000000e+00  -3.2909776325069917e-02 4.9812520552133997e-02 0.0000000000000000e+00  -3.1834188644955186e-02 4.8033303370218182e-02 0.0000000000000000e+00  -2.5111491881399547e-02 5.7895832177050952e-02 0.0000000000000000e+00  -2.7407402618619670e-02 5.7895888890461565e-02 0.0000000000000000e+00  -2.9703414176735346e-02 5.7895893674939920e-02 0.0000000000000000e+00  -3.1999394564026312e-02 5.7895917584727043e-02 0.0000000000000000e+00  -2.2976615145065726e-02 5.5569251949817114e-02 0.0000000000000000e+00  -2.2551030260228793e-02 5.3276125694140745e-02 0.0000000000000000e+00  -2.1568849319317372e-02 5.1160144613195783e-02 0.0000000000000000e+00  -2.0091979325544285e-02 4.9358077950489840e-02 0.0000000000000000e+00  -1.8218302816079404e-02 4.7986982786966614e-02 0.0000000000000000e+00  -1.6076603182005728e-02 4.7131668659248331e-02 0.0000000000000000e+00  -1.1374157384385086e-02 4.7200575738399114e-02 0.0000000000000000e+00  -9.1060551652690364e-03 4.8024231020607440e-02 0.0000000000000000e+00  2.8761680890635843e-05 4.8398385948121014e-02 0.0000000000000000e+00  -9.1349671598403310e-05 4.8673400906501699e-02 0.0000000000000000e+00  -3.6423909463372277e-04 4.9008103768095945e-02 0.0000000000000000e+00  -8.5660024208342243e-04 4.9378968181107728e-02 0.0000000000000000e+00  -1.6380253844037423e-03 4.9750497316038277e-02 0.0000000000000000e+00  -2.6349647739661191e-03 4.9984999392774690e-02 0.0000000000000000e+00  -3.9809372269492115e-03 5.0025582507450615e-02 0.0000000000000000e+00  -5.4466899142453342e-03 4.9736151157037639e-02 0.0000000000000000e+00  -1.1315385656260328e-04 4.8088989096935840e-02 0.0000000000000000e+00  -2.5627730901618451e-04 4.8147376256231736e-02 0.0000000000000000e+00  -4.0461485629844055e-04 4.8390300844548359e-02 0.0000000000000000e+00  -4.2741282765022966e-04 4.8498940922891670e-02 0.0000000000000000e+00  -4.3056209537039865e-04 4.8572508508049048e-02 0.0000000000000000e+00  -4.3146249126220997e-04 4.8637374917110614e-02 0.0000000000000000e+00  -4.1936324667331699e-04 4.8675684298610522e-02 0.0000000000000000e+00  -4.1632822244570735e-04 4.8702673318383689e-02 0.0000000000000000e+00  -3.6520179526440603e-04 4.8740626541274590e-02 0.0000000000000000e+00  -3.6656594742673891e-04 4.8732584006355724e-02 0.0000000000000000e+00  -3.6924973500400865e-04 4.8725434610477812e-02 0.0000000000000000e+00  -3.7420617776853457e-04 4.8721586758389723e-02 0.0000000000000000e+00  -3.8325407278192206e-04 4.8720072402810032e-02 0.0000000000000000e+00  -3.9792180493634975e-04 4.8721350241957465e-02 0.0000000000000000e+00  -4.7298119036839404e-04 4.8750000000000002e-02 0.0000000000000000e+00  -4.6