<?xml version="1.0"?>
<VTKFile type="UnstructuredGrid"  version="0.1"  >
<UnstructuredGrid>
<Piece  NumberOfPoints="4855" NumberOfCells="8780">
<Points>
<DataArray  type="Float64"  NumberOfComponents="3"  format="ascii">0.9483880164242298 0.6836931311526558 0  0.9494264999197789 0.6847056440044139 0  0.9494005292759887 0.6847228078606633 0  0.9735520289385229 0.7444444444444445 0  0.9494005292759886 0.8041660810282256 0  0.94942649991978 0.8041832448844759 0  0.9483880175070514 0.8051957566534116 0  3.131175874138137e-16 0.09811450876034808 0  0.06838800723463068 0.1543033514199101 0  0.05161198249294494 0.1948042433465922 0  0.0505735000802211 0.1958167551155251 0  0.05059947072401128 0.1958339189717744 0  0.0505994707240113 0.3152771921393367 0  0.05057350008021998 0.315294355995587 0  0.05161198357913653 0.3163068688507105 0  0.06838800723463068 0.356807759691201 0  3.252606517456513e-16 0.4129966023507631 0  -1.795438797635995e-16 0.4839416311832997 0  0.07083274769489223 0.4605116403870998 0  0.07084991155114129 0.4605376110308903 0  0.07186242331670639 0.4594991286215342 0  0.1696402113702762 0.5 0  0.07186242332008326 0.5405008713818427 0  0.0708499115511413 0.5394623889691096 0  0.07083274769489219 0.5394883596129002 0  -1.925543058334256e-16 0.5160583688167003 0  1.484923295436147e-15 0.5870033976492365 0  0.06838800723463068 0.643192240308799 0  0.05161198249294541 0.6836931322354806 0  0.05057350008022109 0.6847056440044139 0  0.0505994707240113 0.6847228078606633 0  0.0505994707240113 0.8041660810282256 0  0.05057350008021999 0.804183244884476 0  0.05161198249294764 0.8051957566534106 0  0.06838800723463068 0.84569664858009 0  1.485790657174135e-15 0.9018854912396524 0  0 1 0  1 1 0  0.9999999999999987 0.9018854912396523 0  1.000000000000001 0.5870033976492375 0  1 0.5160583688167003 0  0.9291672523051078 0.5394883596129003 0  0.9291500884488585 0.5394623889691117 0  0.9281375755937461 0.5405008724680134 0  0.9281375755937372 0.4594991275319777 0  0.9291500884488586 0.4605376110308884 0  0.9291672523051077 0.4605116403870997 0  1 0.4839416311832997 0  0.9999999999999987 0.4129966023507635 0  0.948388017507054 0.31630686776452 0  0.94942649991978 0.3152943559955871 0  0.9494005292759886 0.3152771921393367 0  0.9735520289385229 0.2555555555555555 0  0.9494005292759888 0.1958339189717744 0  0.9494264999197789 0.1958167551155251 0  0.9483880164208631 0.1948042422604003 0  1.000000000000001 0.09811450876034861 0  1 0 0  0 0 0  0.1958339189717744 0.2950439151684559 0  0.1958167551155252 0.2950179445246672 0  0.3152771921393367 0.2950439151684557 0  0.1948042433481841 0.2960564269357975 0  0.3152943559955858 0.2950179445246651 0  0.1948042422604031 0.2150546830875326 0  0.3163068677645244 0.2960564269373949 0  0.1958167551155251 0.2160931665864439 0  0.4140846558147206 0.2555555555555555 0  0.1958339189717744 0.2160671959426553 0  0.3163068688489276 0.215054683089313 0  0.3152771921393367 0.2160671959426553 0  0.3152943559955858 0.2160931665864459 0  0.5405008724680257 0.3163068688507107 0  0.5572768961235196 0.356807759691201 0  0.5394623889691089 0.3152943559955871 0  0.459499128618165 0.3163068677645201 0  0.5394883596129003 0.3152771921393367 0  0.4605376110308911 0.3152943559955871 0  0.5394883596129001 0.1958339189717744 0  0.4605116403870998 0.3152771921393367 0  0.53946238896911 0.1958167551155251 0  0.4846631400496339 0.2555555555555555 0  0.5405008724680251 0.1948042422604009 0  0.4605116403870998 0.1958339189717744 0  0.5572768961235196 0.1543033514199101 0  0.46053761103089 0.1958167551155251 0  0.4594991286269881 0.1948042433554141 0  0.6847228078606633 0.2950439151684559 0  0.684705644004414 0.2950179445246672 0  0.8041660810282256 0.2950439151684557 0  0.683693131164073 0.2960564280087975 0  0.8041832448844747 0.2950179445246651 0  0.6836931322354718 0.2150546841737125 0  0.8051957566534156 0.2960564269373971 0  0.6847056440044141 0.2160931665864439 0  0.9029735447036096 0.2555555555555555 0  0.6847228078606632 0.2160671959426553 0  0.8051957577274008 0.2150546830997286 0  0.8041660810282256 0.2160671959426553 0  0.8041832448844747 0.2160931665864459 0  0.2960564280235811 0.560751313295155 0  0.3128324516790751 0.6012522041356455 0  0.2950179445246645 0.5597388004400315 0  0.2150546830875235 0.5607513132951615 0  0.2950439151684557 0.5597216365837812 0  0.2160931665864466 0.5597388004400314 0  0.2950439151684558 0.4402783634162188 0  0.2160671959426553 0.5597216365837812 0  0.2950179445246656 0.4402611995599696 0  0.2402186956051895 0.5 0  0.29605642693739 0.439248687791036 0  0.2160671959426553 0.4402783634162189 0  0.3128324516790751 0.3987477958643545 0  0.2160931665864455 0.4402611995599696 0  0.2150546830875296 0.4392486867048446 0  0.1958339189717743 0.7839328040573448 0  0.1958167551155252 0.7839068334135562 0  0.3152771921393367 0.7839328040573447 0  0.1948042422604028 0.7849453169124678 0  0.3152943559955858 0.783906833413554 0  0.1948042433465913 0.7039435730626098 0  0.3163068677645284 0.7849453158262878 0  0.1958167551155251 0.7049820554753328 0  0.4140846558147206 0.7444444444444445 0  0.1958339189717744 0.7049560848315441 0  0.3163068688486237 0.7039435719785058 0  0.3152771921393367 0.7049560848315441 0  0.3152943559955858 0.7049820554753349 0  0.4402783634162188 0.5394883596129003 0  0.4402611995599696 0.5394623889691117 0  0.5597216365837812 0.5394883596129002 0  0.4392486867048468 0.5405008724680237 0  0.5597388004400302 0.5394623889691096 0  0.4392486877998708 0.4594991286270004 0  0.5607513122089726 0.540500871381843 0  0.4402611995599696 0.4605376110308884 0  0.6585291002591651 0.5 0  0.4402783634162188 0.4605116403870998 0  0.5607513121946796 0.45949912863245 0  0.5597216365837812 0.4605116403870998 0  0.5597388004400302 0.4605376110308904 0  0.78494531690701 0.5607513132896949 0  0.8017213405679641 0.6012522041356455 0  0.7839068334135535 0.5597388004400315 0  0.7039435730626069 0.5607513122089671 0  0.7839328040573448 0.5597216365837812 0  0.7049820554753355 0.5597388004400314 0  0.7839328040573448 0.4402783634162188 0  0.7049560848315441 0.5597216365837812 0  0.7839068334135545 0.4402611995599696 0  0.7291075844940784 0.5 0  0.784945315826279 0.4392486877910359 0  0.7049560848315444 0.4402783634162188 0  0.8017213405679641 0.3987477958643545 0  0.7049820554753344 0.4402611995599696 0  0.7039435719764182 0.4392486867048443 0  0.5405008724625655 0.8051957577341393 0  0.5572768961235196 0.84569664858009 0  0.539462388969109 0.804183244884476 0  0.4594991286181648 0.8051957566534091 0  0.5394883596129003 0.8041660810282256 0  0.4605376110308911 0.804183244884476 0  0.5394883596129003 0.6847228078606633 0  0.4605116403870998 0.8041660810282256 0  0.53946238896911 0.6847056440044139 0  0.4846631400496339 0.7444444444444445 0  0.5405008713818347 0.6836931322354802 0  0.4605116403870998 0.6847228078606633 0  0.5572768961235196 0.643192240308799 0  0.46053761103089 0.6847056440044139 0  0.4594991275353449 0.6836931311526599 0  0.6847228078606633 0.7839328040573448 0  0.684705644004414 0.7839068334135562 0  0.8041660810282256 0.7839328040573447 0  0.6836931311493016 0.7849453169124578 0  0.8041832448844747 0.783906833413554 0  0.68369313223548 0.7039435730626096 0  0.805195756653417 0.7849453158262875 0  0.6847056440044141 0.7049820554753328 0  0.9029735447036096 0.7444444444444445 0  0.6847228078606633 0.7049560848315441 0  0.805195757738809 0.7039435719772094 0  0.8041660810282256 0.7049560848315441 0  0.8041832448844747 0.7049820554753349 0  0.9578164230213342 0.6948838683471341 0  0.9645772892192558 0.7062137009141434 0  0.9695236884064815 0.7184451175460498 0  0.972538971146615 0.7312896684428197 0  0.9725389711466151 0.7575992204460691 0  0.9695236884064815 0.7704437713428391 0  0.9645772892192558 0.7826751879747456 0  0.9578164230213342 0.7940050205417549 0  0.01437766570919127 0.09711967848259151 0  0.02854851642641832 0.09974531144948819 0  0.04161535472570586 0.1058251712658871 0  0.05275088139110013 0.1149743244732108 0  0.06125007411586489 0.1266135117968212 0  0.06657482449792251 0.1400058227212122 0  0.06643634307317195 0.1691277076584997 0  0.06071435336153361 0.1829418078690686 0  0.04134737123322858 0.3039103077764334 0  0.03416190609801732 0.2911362521989113 0  0.02925217947541549 0.2773267630846004 0  0.02676106927623143 0.2628837102534819 0  0.02676106927623143 0.2482274008576293 0  0.02925217947541547 0.2337843480265108 0  0.03416190609801727 0.2199748589121999 0  0.04134737123322851 0.2072008033346779 0  0.06071435387356935 0.328169304128914 0  0.06643634320569657 0.3419834039471998 0  0.06657482449792249 0.371105288389899 0  0.06125007411586481 0.3844975993142901 0  0.05275088139109994 0.3961367866379005 0  0.04161535472570563 0.4052859398452242 0  0.02854851642641818 0.411365799661623 0  0.01437766570919127 0.4139914326285196 0  0 0.4697526254167924 0  0 0.455563619650285 0  0 0.4413746138837777 0  0 0.4271856081172704 0  0.06095233986089402 0.4687284952262988 0  0.04995687430503332 0.4753797281664747 0  0.03809234373417287 0.4803165365228644 0  0.02562418374773841 0.4834284730529493 0  0.01283133446055119 0.4846459169037758 0  0.08372485599813187 0.4503967593658507 0  0.09753895276796982 0.4446747697099958 0  0.1123633055586467 0.4427231038764812 0  0.1271876590095525 0.4446747646950606 0  0.1410017577150834 0.45039674967774 0  0.1528641934757506 0.4594991149204779 0  0.161966560724962 0.471361549141524 0  0.1676885480442292 0.4851756468792086 0  0.1676885480443665 0.514824353120279 0  0.1619665607254926 0.528638450857557 0  0.1528641934768762 0.5405008850783964 0  0.1410017577169217 0.5496032503211987 0  0.1271876590121153 0.5553252353042526 0  0.1123633055618306 0.5572768961235188 0  0.09753895277155772 0.5553252302909656 0  0.08372485600180817 0.5496032406362719 0  0.0128313344605512 0.5153540830962242 0  0.0256241837477384 0.5165715269470507 0  0.03809234373417282 0.5196834634771356 0  0.04995687430503334 0.5246202718335253 0  0.06095233986089401
[...]
<PointData  Vectors="$u$"> 
<DataArray  type="Float64"  Name="$u$"  NumberOfComponents="3" format="ascii">1.0294995152034078e-03 7.2985945106684488e-03 0.0000000000000000e+00  1.0061477023067028e-03 7.3120482060118116e-03 0.0000000000000000e+00  1.0058316692831632e-03 7.3116367012720307e-03 0.0000000000000000e+00  1.2451795335522811e-04 7.4651815844757035e-03 0.0000000000000000e+00  -1.0180864924463875e-04 7.1891262058784954e-03 0.0000000000000000e+00  -1.0180894791767582e-04 7.1891827017994160e-03 0.0000000000000000e+00  -9.8132617077099124e-05 7.1843721735351971e-03 0.0000000000000000e+00  -2.1581212281105829e-05 1.1438551047107041e-05 0.0000000000000000e+00  1.7897375871658745e-06 2.2047653338174466e-04 0.0000000000000000e+00  1.4515020619661483e-04 3.1661635198662521e-04 0.0000000000000000e+00  1.4882663095883129e-04 3.1202390625871199e-04 0.0000000000000000e+00  1.4882705716911507e-04 3.1207712317359325e-04 0.0000000000000000e+00  -9.5860903048959536e-04 1.8908664779395280e-04 0.0000000000000000e+00  -9.5892638750168387e-04 1.8867077301221730e-04 0.0000000000000000e+00  -9.8223582194020939e-04 2.0239574038095589e-04 0.0000000000000000e+00  -1.9521202513170168e-03 5.5381798434779258e-04 0.0000000000000000e+00  -3.2499321715858021e-03 -1.0389282916243392e-03 0.0000000000000000e+00  -4.9376458306784818e-03 -1.0389861127120112e-03 0.0000000000000000e+00  -4.3809125963909920e-03 6.4593286315556449e-04 0.0000000000000000e+00  -4.3815284517513368e-03 6.4634015015978003e-04 0.0000000000000000e+00  -4.3569229910843015e-03 6.7040675535973886e-04 0.0000000000000000e+00  -4.5434675259980522e-03 3.7458039988163324e-03 0.0000000000000000e+00  -4.3530578716973996e-03 6.8304172541932837e-03 0.0000000000000000e+00  -4.3776599373430139e-03 6.8544425785060327e-03 0.0000000000000000e+00  -4.3770444278108857e-03 6.8548493383142886e-03 0.0000000000000000e+00  -4.9332886709054910e-03 8.5382419720706187e-03 0.0000000000000000e+00  -3.2470791331516828e-03 8.5381869104207454e-03 0.0000000000000000e+00  -1.9507633709336925e-03 6.9465508905747790e-03 0.0000000000000000e+00  -9.8095181321423888e-04 7.2981822057973048e-03 0.0000000000000000e+00  -9.5780862094135160e-04 7.3121957645709747e-03 0.0000000000000000e+00  -9.5749234939601733e-04 7.3117782801601231e-03 0.0000000000000000e+00  1.5098771325965937e-04 7.1884358563884315e-03 0.0000000000000000e+00  1.5098659672576007e-04 7.1884874950946072e-03 0.0000000000000000e+00  1.4729783053058016e-04 7.1839542056338981e-03 0.0000000000000000e+00  3.4800912144502857e-06 7.2806885052907246e-03 0.0000000000000000e+00  -1.8251626182431077e-05 7.4885153792239416e-03 0.0000000000000000e+00  7.2389083568509340e-06 7.4999999999999997e-03 0.0000000000000000e+00  4.1404536278698666e-05 7.4999999999999997e-03 0.0000000000000000e+00  6.6910445035936361e-05 7.4883912964647690e-03 0.0000000000000000e+00  3.2945442590475425e-03 8.5384914904492876e-03 0.0000000000000000e+00  4.9804995361714451e-03 8.5385525763969124e-03 0.0000000000000000e+00  4.4243414769834597e-03 6.8553511116838809e-03 0.0000000000000000e+00  4.4249571138910079e-03 6.8549439279356698e-03 0.0000000000000000e+00  4.4003705501866018e-03 6.8308802016020971e-03 0.0000000000000000e+00  4.4055117646084390e-03 6.6827357706098162e-04 0.0000000000000000e+00  4.4301255751426358e-03 6.4418218120001580e-04 0.0000000000000000e+00  4.4295093894599529e-03 6.4377464346818461e-04 0.0000000000000000e+00  4.9867860353208487e-03 -1.0427628493378258e-03 0.0000000000000000e+00  3.2974604556939044e-03 -1.0426982881820447e-03 0.0000000000000000e+00  1.0281122469223789e-03 2.0123565713390547e-04 0.0000000000000000e+00  1.0049786442154593e-03 1.8755162697988855e-04 0.0000000000000000e+00  1.0046625083874059e-03 1.8796580119862923e-04 0.0000000000000000e+00  1.2173951922722546e-04 3.3372614682891634e-05 0.0000000000000000e+00  -1.0580908160499308e-04 3.1076103828420594e-04 0.0000000000000000e+00  -1.0580416606325235e-04 3.1070999078415545e-04 0.0000000000000000e+00  -1.0153944401545185e-04 3.1538190867278393e-04 0.0000000000000000e+00  6.3407870242465327e-05 1.1426917266804842e-05 0.0000000000000000e+00  3.7880604540954253e-05 0.0000000000000000e+00 0.0000000000000000e+00  0.0000000000000000e+00 0.0000000000000000e+00 0.0000000000000000e+00  -1.1813425514584329e-03 3.4887863742636980e-03 0.0000000000000000e+00  -1.1813367049387153e-03 3.4887132395621623e-03 0.0000000000000000e+00  -1.5151894164700187e-03 3.4125231518002353e-03 0.0000000000000000e+00  -1.1771729590983439e-03 3.4761303167377242e-03 0.0000000000000000e+00  -1.5152704993434732e-03 3.4124203957383577e-03 0.0000000000000000e+00  -5.1499244879142892e-05 1.9348980188278771e-05 0.0000000000000000e+00  -1.5152640986851906e-03 3.4004766937700457e-03 0.0000000000000000e+00  -5.2931774662968699e-05 1.9161560847881735e-05 0.0000000000000000e+00  -1.4447920178401151e-03 9.7364014959411174e-04 0.0000000000000000e+00  -5.2906831714690573e-05 1.9171640634197776e-05 0.0000000000000000e+00  -1.2702253983341657e-04 1.5740255490902091e-05 0.0000000000000000e+00  -1.2509843681908904e-04 1.6323205548505553e-05 0.0000000000000000e+00  -1.2505605630326288e-04 1.6300022709081922e-05 0.0000000000000000e+00  1.5297572065098247e-03 1.2142665733978610e-03 0.0000000000000000e+00  9.2502888100772884e-04 1.3317828050331791e-03 0.0000000000000000e+00  1.5403798950220759e-03 1.2173389550529218e-03 0.0000000000000000e+00  -1.4856528723349029e-03 1.2136303987235356e-03 0.0000000000000000e+00  1.5404515863873607e-03 1.2173604841528313e-03 0.0000000000000000e+00  -1.4958003312418886e-03 1.2171619370403726e-03 0.0000000000000000e+00  6.6665381738299865e-04 1.2511396034504704e-03 0.0000000000000000e+00  -1.4958638671694596e-03 1.2171703879562557e-03 0.0000000000000000e+00  6.6630254880708931e-04 1.2516520305060038e-03 0.0000000000000000e+00  -1.4433493918648700e-03 1.4812901138885708e-03 0.0000000000000000e+00  6.4520035292784598e-04 1.2321481292597617e-03 0.0000000000000000e+00  -6.2474033672119144e-04 1.2501677099970344e-03 0.0000000000000000e+00  1.6286807598287108e-04 5.6271231358769340e-04 0.0000000000000000e+00  -6.2438447431058339e-04 1.2506847802450020e-03 0.0000000000000000e+00  -6.0318032070663533e-04 1.2312194402316647e-03 0.0000000000000000e+00  1.5612010712846112e-03 3.4107679874246497e-03 0.0000000000000000e+00  1.5612777421987591e-03 3.4106644415971442e-03 0.0000000000000000e+00  1.2277296445126914e-03 3.4895593240154917e-03 0.0000000000000000e+00  1.5616177106553793e-03 3.3984216186456946e-03 0.0000000000000000e+00  1.2277259324714137e-03 3.4894923706778476e-03 0.0000000000000000e+00  1.6914902141237361e-04 1.5776219600718238e-05 0.0000000000000000e+00  1.2236716544018937e-03 3.4776546978459305e-03 0.0000000000000000e+00  1.6709680903941287e-04 1.6195227130306299e-05 0.0000000000000000e+00  9.5551239924376245e-05 6.9444798316705661e-04 0.0000000000000000e+00  1.6714024772413838e-04 1.6217849763375423e-05 0.0000000000000000e+00  9.3481528952905533e-05 1.9267500022264906e-05 0.0000000000000000e+00  9.5077475470313564e-05 1.9422285224951708e-05 0.0000000000000000e+00  9.5109871621299334e-05 1.9406304981463454e-05 0.0000000000000000e+00  5.1053079912868492e-04 3.6840973896812880e-03 0.0000000000000000e+00  -2.2602797696360622e-04 4.0002454029994181e-03 0.0000000000000000e+00  5.2882982003220531e-04 3.6774157427350374e-03 0.0000000000000000e+00  -3.9603256643357398e-03 3.6063102580776163e-03 0.0000000000000000e+00  5.2904965902021868e-04 3.6776711360777545e-03 0.0000000000000000e+00  -3.9808488510654546e-03 3.6025538549994238e-03 0.0000000000000000e+00  5.2676523328206337e-04 3.8279610737925740e-03 0.0000000000000000e+00  -3.9810606035930608e-03 3.6027662367576511e-03 0.0000000000000000e+00  5.2654585915915648e-04 3.8282212050363522e-03 0.0000000000000000e+00  -4.5027603606369723e-03 3.7502738976820326e-03 0.0000000000000000e+00  5.0842207570528613e-04 3.8210087263161334e-03 0.0000000000000000e+00  -3.9834321671224074e-03 3.8939159089599312e-03 0.0000000000000000e+00  -2.2900492347576463e-04 3.5028348790013988e-03 0.0000000000000000e+00  -3.9832530081481826e-03 3.8940772646858276e-03 0.0000000000000000e+00  -3.9644792859355729e-03 3.8922370106509088e-03 0.0000000000000000e+00  -4.9925117058694769e-05 7.4806892253095475e-03 0.0000000000000000e+00  -4.9955431761999443e-05 7.4807027697746369e-03 0.0000000000000000e+00  -1.2192644944537177e-04 7.4838241347724545e-03 0.0000000000000000e+00  -4.8338059635977556e-05 7.4806836581911415e-03 0.0000000000000000e+00  -1.2188304997517175e-04 7.4838463124631939e-03 0.0000000000000000e+00  -1.1753945942818236e-03 4.0259222003764970e-03 0.0000000000000000e+00  -1.2398221967826873e-04 7.4842148878431873e-03 0.0000000000000000e+00  -1.1792353176494430e-03 4.0132081804607296e-03 0.0000000000000000e+00  -1.4323598454897843e-03 6.5374733025466408e-03 0.0000000000000000e+00  -1.1792470815016371e-03 4.0131324275932013e-03 0.0000000000000000e+00  -1.5130837495375062e-03 4.1034455512329879e-03 0.0000000000000000e+00  -1.5128813638817142e-03 4.0912791414198808e-03 0.0000000000000000e+00  -1.5129610039716040e-03 4.0913822884012727e-03 0.0000000000000000e+00  1.7585794519521842e-04 6.0423504922991018e-03 0.0000000000000000e+00  1.7582355794786312e-04 6.0423262217931721e-03 0.0000000000000000e+00  -1.2681121060116276e-04 6.0409685743948579e-03 0.0000000000000000e+00  1.8015170125679236e-04 6.0350982493665188e-03 0.0000000000000000e+00  -1.2677619526680269e-04 6.0409483620300578e-03 0.0000000000000000e+00  1.7847615139233869e-04 1.4663554998058273e-03 0.0000000000000000e+00  -1.3096894286217226e-04 6.0342551777883280e-03 0.0000000000000000e+00  1.7438611298561265e-04 1.4594289214566478e-03 0.0000000000000000e+00  -9.4569364338396291e-04 3.7462655532674517e-03 0.0000000000000000e+00  1.7441878597328480e-04 1.4594066174883171e-03 0.0000000000000000e+00  -1.3218567942037965e-04 1.4667603606832885e-03 0.0000000000000000e+00  -1.2818652552932684e-04 1.4597227505156933e-03 0.0000000000000000e+00  -1.2815579019480780e-04 1.4597465265734106e-03 0.0000000000000000e+00  4.0068905402894589e-03 3.6094101702003902e-03 0.0000000000000000e+00  2.9905362853115862e-03 3.8564430347509029e-03 0.0000000000000000e+00  4.0286005035819238e-03 3.6049220032462722e-03 0.0000000000000000e+00  -4.5961293461941347e-04 3.6810855204823666e-03 0.0000000000000000e+00  4.0288299241136583e-03 3.6051575900700648e-03 0.0000000000000000e+00  -4.7829185616314092e-04 3.6746813838981567e-03 0.0000000000000000e+00  4.0336677242915212e-03 3.9011851805216746e-03 0.0000000000000000e+00  -4.7851453900091929e-04 3.6749348976614919e-03 0.0000000000000000e+00  4.0334412635465383e-03 3.9014192142716041e-03 0.0000000000000000e+00  -9.2797201550944171e-04 3.7484262320188373e-03 0.0000000000000000e+00  4.0121926464013148e-03 3.8969333782774272e-03 0.0000000000000000e+00  -4.8057900944101082e-04 3.8211500452414809e-03 0.0000000000000000e+00  2.9922263271289261e-03 3.6462377030857594e-03 0.0000000000000000e+00  -4.8040273510178668e-04 3.8213407972438563e-03 0.0000000000000000e+00  -4.6444499122474503e-04 3.8169567839579821e-03 0.0000000000000000e+00  6.4749965760975707e-04 6.2703411964155492e-03 0.0000000000000000e+00  1.6527737291901318e-04 6.9356285576428738e-03 0.0000000000000000e+00  6.6812814352590040e-04 6.2505956259216915e-03 0.0000000000000000e+00  -5.9862142859923480e-04 6.2696305359341963e-03 0.0000000000000000e+00  6.6847983700717823e-04 6.2511120335164688e-03 0.0000000000000000e+00  -6.1985629982902631e-04 6.2509412377346110e-03 0.0000000000000000e+00  1.5440140244262560e-03 6.2847374806432573e-03 0.0000000000000000e+00  -6.2020696795709121e-04 6.2514419167501644e-03 0.0000000000000000e+00  1.5439445411060545e-03 6.2847561876071753e-03 0.0000000000000000e+00  -1.4375935141602934e-03 6.0206517579384873e-03 0.0000000000000000e+00  1.5333062318907073e-03 6.2877896975213629e-03 0.0000000000000000e+00  -1.4925449858401731e-03 6.2839867127842015e-03 0.0000000000000000e+00  9.2765207231474940e-04 6.1679212333640293e-03 0.0000000000000000e+00  -1.4924774928289615e-03 6.2839937599324294e-03 0.0000000000000000e+00  -1.4819189664808151e-03 6.2880017535746234e-03 0.0000000000000000e+00  1.7056591462591812e-04 7.4837228882545731e-03 0.0000000000000000e+00  1.7051843836601212e-04 7.4837485505010130e-03 0.0000000000000000e+00  9.8086659653250462e-05 7.4806124507582044e-03 0.0000000000000000e+00  1.7272744703978295e-04 7.4843816859793298e-03 0.0000000000000000e+00  9.8103186723869743e-05 7.4806161955199126e-03 0.0000000000000000e+00  1.5617771771190064e-03 4.1005819992848058e-03 0.0000000000000000e+00  9.6916853206053692e-05 7.4799366060013051e-03 0.0000000000000000e+00  1.5616644211777547e-03 4.0885101557577791e-03 0.0000000000000000e+00  9.8506855300163181e-05 6.8125722929122563e-03 0.0000000000000000e+00  1.5615843598161812e-03 4.0884067974679373e-03 0.0000000000000000e+00  1.2239318093458106e-03 4.0283076076961816e-03 0.0000000000000000e+00  1.2280675842787773e-03 4.0155754560195029e-03 0.0000000000000000e+00  1.2280611115933491e-03 4.0156497770750090e-03 0.0000000000000000e+00  7.9824562584136977e-04 7.4205676350174591e-03 0.0000000000000000e+00  6.0182701355655593e-04 7.4836497736033101e-03 0.0000000000000000e+00  4.2001054839118621e-04 7.5084350629556571e-03 0.0000000000000000e+00  2.5958597561497493e-04 7.4994476982576316e-03 0.0000000000000000e+00  1.8776324928372387e-05 7.4131851776433055e-03 0.0000000000000000e+00  -5.6503802513944740e-05 7.3512010113497856e-03 0.0000000000000000e+00  -1.0067369908167303e-04 7.2874309412789924e-03 0.0000000000000000e+00  -1.1620416301068697e-04 7.2306039391818880e-03 0.0000000000000000e+00  -2.1050750264443518e-05 2.0367017378440477e-05 0.0000000000000000e+00  -2.3740922790276768e-05 3.2708193111178123e-05 0.0000000000000000e+00  -2.6714767287445632e-05 5.1795537864895724e-05 0.0000000000000000e+00  -3.0123078980404308e-05 7.8879058222605978e-05 0.0000000000000000e+00  -2.8955542331389036e-05 1.1655666644580787e-04 0.0000000000000000e+00  -2.0530142499453177e-05 1.6525274394397561e-04 0.0000000000000000e+00  4.2155506118264607e-05 2.8057211626945048e-04 0.0000000000000000e+00  9.7722386825828175e-05 3.2029931326798807e-04 0.0000000000000000e+00  -7.2882219731895269e-04 7.1326278115678302e-05 0.0000000000000000e+00  -5.1237306282680127e-04 8.5459844110929334e-06 0.0000000000000000e+00  -3.1674157423823281e-04 -7.8647255633590377e-06 0.0000000000000000e+00  -1.4852408814109496e-04 1.4334882205435551e-05 0.0000000000000000e+00  -1.4587370655191457e-05 6.3430476338001440e-05 0.0000000000000000e+00  8.2109864719388538e-05 1.2923122694416552e-04 0.0000000000000000e+00  1.4090674012282145e-04 2.0017570373853796e-04 0.0000000000000000e+00  1.6255619114024375e-04 2.6551327605262281e-04 0.0000000000000000e+00  -1.2629112803773882e-03 3.5690768097945517e-04 0.0000000000000000e+00  -1.6018389260712025e-03 4.8637609913969044e-04 0.0000000000000000e+00  -2.2792913486545541e-03 5.3147809353377453e-04 0.0000000000000000e+00  -2.5838226704577882e-03 4.1600406639051134e-04 0.0000000000000000e+00  -2.8524900353713496e-03 2.1700135438239981e-04 0.0000000000000000e+00  -3.0671871197356323e-03 -4.8181713878212747e-05 0.0000000000000000e+00  -3.2112051181567036e-03 -3.5952616727477692e-04 0.0000000000000000e+00  -3.2736017904889192e-03 -6.9684568923136705e-04 0.0000000000000000e+00  -4.6001279636847499e-03 -1.0389896333514747e-03 0.0000000000000000e+00  -4.2625913937523064e-03 -1.0389784041510235e-03 0.0000000000000000e+00  -3.9250560909998497e-03 -1.0389476939994459e-03 0.0000000000000000e+00  -3.5875169437969601e-03 -1.0389383183377677e-03 0.0000000000000000e+00  -4.5760284154285529e-03 4.1078283097867248e-04 0.0000000000000000e+00  -4.7340731393416633e-03 1.4923745487240890e-04 0.0000000000000000e+00  -4.8514347485286010e-03 -1.3293113794119588e-04 0.0000000000000000e+00  -4.9254401737167256e-03 -4.2947809865208884e-04 0.0000000000000000e+00  -4.9543958748254607e-03 -7.3376932097841843e-04 0.0000000000000000e+00  -4.1415450595531705e-03 9.5398537321466454e-04 0.0000000000000000e+00  -4.0064487303767818e-03 1.2884091745001972e-03 0.0000000000000000e+00  -3.9590683401069561e-03 1.6579117924405290e-03 0.0000000000000000e+00  -3.9982890585140299e-03 2.0432305629731712e-03 0.0000000000000000e+00  -4.1073261087991942e-03 2.4345010215915401e-03 0.0000000000000000e+00  -4.2662768168966513e-03 2.8053497790018014e-03 0.0000000000000000e+00  -4.4191193885531246e-03 3.1535956739731116e-03 0.0000000000000000e+00  -4.5094229861013307e-03 3.4613697131054824e-03 0.0000000000000000e+00  -4.5162590512458859e-03 4.0418758042145304e-03 0.0000000000000000e+00  -4.4160537583124481e-03 4.3595293099650241e-03 0.0000000000000000e+00  -4.2599492814785842e-03 4.6951018409371742e-03 0.0000000000000000e+00  -4.1044248951896158e-03 5.0671294153304220e-03 0.0000000000000000e+00  -3.9956227850473551e-03 5.4578670625196959e-03 0.0000000000000000e+00  -3.9558898268779001e-03 5.8438722802931593e-03 0.0000000000000000e+00  -4.0029471881661309e-03 6.2128055009044326e-03 0.0000000000000000e+00  -4.1380450861308107e-03 6.5470446633757867e-03 0.0000000000000000e+00  -4.9500230323170601e-03 8.2332959197701904e-03 0.0000000000000000e+00  -4.9210906019186039e-03 7.9292768947435838e-03 0.0000000000000000e+00  -4.8471514937694447e-03 7.6329967257499276e-03 0.0000000000000000e+00  -4.7298998447024183e-03 7.3510760412751680e-03 0.0000000000000000e+00  -4.5719816400705410e-03 7.0897640686156029e-03 0.0000000000000000e+00  -3.5843513785129215e-03 8.5381883276201657e-03 0.0000000000000000e+00  -3.9215944288462099e-03 8.5382061309353142e-03 0.0000000000000000e+00  -4.2588316081282485e-03 8.5382393096033564e-03 0.0000000000000000e+00  -4.5960714673513037e-03 8.5382455872309842e-03 0.0000000000000000e+00  -3.2707283714913781e-03 8.1964004419856958e-03 0.0000000000000000e+00  -3.2083383520984899e-03 7.8594154336667776e-03 0.0000000000000000e+00  -3.0645550465249615e-03 7.5481669791903220e-03 0.0000000000000000e+00  -2.8498911739536894e-03 7.2834930362729554e-03 0.0000000000000000e+00  -2.5815411581804437e-03 7.0846530404753893e-03 0.0000000000000000e+00  -2.2770145821187603e-03 6.9687856389974902e-03 0.0000000000000000e+00  -1.6003301890790884e-03 7.0147406540247486e-03 0.0000000000000000e+00  -1.2616647309808564e-03 7.1438728644408799e-03 0.0000000000000000e+00  1.6517021899259312e-04 7.2351407656334561e-03 0.0000000000000000e+00  1.4317922527474916e-04 7.3007381291671598e-03 0.0000000000000000e+00  8.4174228564436337e-05 7.3718485963869375e-03 0.0000000000000000e+00  -1.2558180660418368e-05 7.4372990653082680e-03 0.0000000000000000e+00  -1.4717175434238928e-04 7.4871468907029438e-03 0.0000000000000000e+00  -3.1441383613738913e-04 7.5079828974021637e-03 0.0000000000000000e+00  -5.1111344019937825e-04 7.4924310422838708e-03 0.0000000000000000e+00  -7.2661245693625670e-04 7.4299233521277659e-03 0.0000000000000000e+00  1.0087800405667842e-04 7.1805309799561267e-03 0.0000000000000000e+00  4.5322058308381639e-05 7.2187358220320843e-03 0.0000000000000000e+00  -1.6104720523316152e-05 7.3358317018587501e-03 0.0000000000000000e+00  -2.5294726811728148e-05 7.3836739026837449e-03 0.0000000000000000e+00  -2.6372216156235300e-05 7.4201969030221453e-03 0.0000000000000000e+00  -2.4081697176875416e-05 7.4484996515710548e-03 0.0000000000000000e+00  -1.9970132961644252e-05 7.4669602711488672e-03 0.0000000000000000e+00  -1.8005890701503440e-05 7.4793941317910836e-03 0.0000000000000000e+00  7.0462282553943973e-06 7.4961178522034546e-03 0.0000000000000000e+00  6.3338315218000630e-06 7.4926283945909592e-03 0.0000000000000000e+00  4.8279699635969632e-06 7.4898966153421681e-03 0.0000000000000000e+00  2.2066868366496807e-06 7.4881186687124224e-03 0.0000000000000000e+00  -2.3214508108954640e-06 7.4877811638504720e-03 0.0000000000000000e+00  -9.4139642438190351e-06 7.4882640131268942e-03 0.0000000000000000e+00  4.2797639306941543e-05 7.4999999999999997e-03 0.0000000000000000e+00  4.4871832522640207e-05 7.4999999999999997e