<?xml version="1.0"?>
<VTKFile type="UnstructuredGrid"  version="0.1"  >
<UnstructuredGrid>
<Piece  NumberOfPoints="4855" NumberOfCells="8780">
<Points>
<DataArray  type="Float64"  NumberOfComponents="3"  format="ascii">0.9483880164242298 0.6836931311526558 0  0.9494264999197789 0.6847056440044139 0  0.9494005292759887 0.6847228078606633 0  0.9735520289385229 0.7444444444444445 0  0.9494005292759886 0.8041660810282256 0  0.94942649991978 0.8041832448844759 0  0.9483880175070514 0.8051957566534116 0  3.131175874138137e-16 0.09811450876034808 0  0.06838800723463068 0.1543033514199101 0  0.05161198249294494 0.1948042433465922 0  0.0505735000802211 0.1958167551155251 0  0.05059947072401128 0.1958339189717744 0  0.0505994707240113 0.3152771921393367 0  0.05057350008021998 0.315294355995587 0  0.05161198357913653 0.3163068688507105 0  0.06838800723463068 0.356807759691201 0  3.252606517456513e-16 0.4129966023507631 0  -1.795438797635995e-16 0.4839416311832997 0  0.07083274769489223 0.4605116403870998 0  0.07084991155114129 0.4605376110308903 0  0.07186242331670639 0.4594991286215342 0  0.1696402113702762 0.5 0  0.07186242332008326 0.5405008713818427 0  0.0708499115511413 0.5394623889691096 0  0.07083274769489219 0.5394883596129002 0  -1.925543058334256e-16 0.5160583688167003 0  1.484923295436147e-15 0.5870033976492365 0  0.06838800723463068 0.643192240308799 0  0.05161198249294541 0.6836931322354806 0  0.05057350008022109 0.6847056440044139 0  0.0505994707240113 0.6847228078606633 0  0.0505994707240113 0.8041660810282256 0  0.05057350008021999 0.804183244884476 0  0.05161198249294764 0.8051957566534106 0  0.06838800723463068 0.84569664858009 0  1.485790657174135e-15 0.9018854912396524 0  0 1 0  1 1 0  0.9999999999999987 0.9018854912396523 0  1.000000000000001 0.5870033976492375 0  1 0.5160583688167003 0  0.9291672523051078 0.5394883596129003 0  0.9291500884488585 0.5394623889691117 0  0.9281375755937461 0.5405008724680134 0  0.9281375755937372 0.4594991275319777 0  0.9291500884488586 0.4605376110308884 0  0.9291672523051077 0.4605116403870997 0  1 0.4839416311832997 0  0.9999999999999987 0.4129966023507635 0  0.948388017507054 0.31630686776452 0  0.94942649991978 0.3152943559955871 0  0.9494005292759886 0.3152771921393367 0  0.9735520289385229 0.2555555555555555 0  0.9494005292759888 0.1958339189717744 0  0.9494264999197789 0.1958167551155251 0  0.9483880164208631 0.1948042422604003 0  1.000000000000001 0.09811450876034861 0  1 0 0  0 0 0  0.1958339189717744 0.2950439151684559 0  0.1958167551155252 0.2950179445246672 0  0.3152771921393367 0.2950439151684557 0  0.1948042433481841 0.2960564269357975 0  0.3152943559955858 0.2950179445246651 0  0.1948042422604031 0.2150546830875326 0  0.3163068677645244 0.2960564269373949 0  0.1958167551155251 0.2160931665864439 0  0.4140846558147206 0.2555555555555555 0  0.1958339189717744 0.2160671959426553 0  0.3163068688489276 0.215054683089313 0  0.3152771921393367 0.2160671959426553 0  0.3152943559955858 0.2160931665864459 0  0.5405008724680257 0.3163068688507107 0  0.5572768961235196 0.356807759691201 0  0.5394623889691089 0.3152943559955871 0  0.459499128618165 0.3163068677645201 0  0.5394883596129003 0.3152771921393367 0  0.4605376110308911 0.3152943559955871 0  0.5394883596129001 0.1958339189717744 0  0.4605116403870998 0.3152771921393367 0  0.53946238896911 0.1958167551155251 0  0.4846631400496339 0.2555555555555555 0  0.5405008724680251 0.1948042422604009 0  0.4605116403870998 0.1958339189717744 0  0.5572768961235196 0.1543033514199101 0  0.46053761103089 0.1958167551155251 0  0.4594991286269881 0.1948042433554141 0  0.6847228078606633 0.2950439151684559 0  0.684705644004414 0.2950179445246672 0  0.8041660810282256 0.2950439151684557 0  0.683693131164073 0.2960564280087975 0  0.8041832448844747 0.2950179445246651 0  0.6836931322354718 0.2150546841737125 0  0.8051957566534156 0.2960564269373971 0  0.6847056440044141 0.2160931665864439 0  0.9029735447036096 0.2555555555555555 0  0.6847228078606632 0.2160671959426553 0  0.8051957577274008 0.2150546830997286 0  0.8041660810282256 0.2160671959426553 0  0.8041832448844747 0.2160931665864459 0  0.2960564280235811 0.560751313295155 0  0.3128324516790751 0.6012522041356455 0  0.2950179445246645 0.5597388004400315 0  0.2150546830875235 0.5607513132951615 0  0.2950439151684557 0.5597216365837812 0  0.2160931665864466 0.5597388004400314 0  0.2950439151684558 0.4402783634162188 0  0.2160671959426553 0.5597216365837812 0  0.2950179445246656 0.4402611995599696 0  0.2402186956051895 0.5 0  0.29605642693739 0.439248687791036 0  0.2160671959426553 0.4402783634162189 0  0.3128324516790751 0.3987477958643545 0  0.2160931665864455 0.4402611995599696 0  0.2150546830875296 0.4392486867048446 0  0.1958339189717743 0.7839328040573448 0  0.1958167551155252 0.7839068334135562 0  0.3152771921393367 0.7839328040573447 0  0.1948042422604028 0.7849453169124678 0  0.3152943559955858 0.783906833413554 0  0.1948042433465913 0.7039435730626098 0  0.3163068677645284 0.7849453158262878 0  0.1958167551155251 0.7049820554753328 0  0.4140846558147206 0.7444444444444445 0  0.1958339189717744 0.7049560848315441 0  0.3163068688486237 0.7039435719785058 0  0.3152771921393367 0.7049560848315441 0  0.3152943559955858 0.7049820554753349 0  0.4402783634162188 0.5394883596129003 0  0.4402611995599696 0.5394623889691117 0  0.5597216365837812 0.5394883596129002 0  0.4392486867048468 0.5405008724680237 0  0.5597388004400302 0.5394623889691096 0  0.4392486877998708 0.4594991286270004 0  0.5607513122089726 0.540500871381843 0  0.4402611995599696 0.4605376110308884 0  0.6585291002591651 0.5 0  0.4402783634162188 0.4605116403870998 0  0.5607513121946796 0.45949912863245 0  0.5597216365837812 0.4605116403870998 0  0.5597388004400302 0.4605376110308904 0  0.78494531690701 0.5607513132896949 0  0.8017213405679641 0.6012522041356455 0  0.7839068334135535 0.5597388004400315 0  0.7039435730626069 0.5607513122089671 0  0.7839328040573448 0.5597216365837812 0  0.7049820554753355 0.5597388004400314 0  0.7839328040573448 0.4402783634162188 0  0.7049560848315441 0.5597216365837812 0  0.7839068334135545 0.4402611995599696 0  0.7291075844940784 0.5 0  0.784945315826279 0.4392486877910359 0  0.7049560848315444 0.4402783634162188 0  0.8017213405679641 0.3987477958643545 0  0.7049820554753344 0.4402611995599696 0  0.7039435719764182 0.4392486867048443 0  0.5405008724625655 0.8051957577341393 0  0.5572768961235196 0.84569664858009 0  0.539462388969109 0.804183244884476 0  0.4594991286181648 0.8051957566534091 0  0.5394883596129003 0.8041660810282256 0  0.4605376110308911 0.804183244884476 0  0.5394883596129003 0.6847228078606633 0  0.4605116403870998 0.8041660810282256 0  0.53946238896911 0.6847056440044139 0  0.4846631400496339 0.7444444444444445 0  0.5405008713818347 0.6836931322354802 0  0.4605116403870998 0.6847228078606633 0  0.5572768961235196 0.643192240308799 0  0.46053761103089 0.6847056440044139 0  0.4594991275353449 0.6836931311526599 0  0.6847228078606633 0.7839328040573448 0  0.684705644004414 0.7839068334135562 0  0.8041660810282256 0.7839328040573447 0  0.6836931311493016 0.7849453169124578 0  0.8041832448844747 0.783906833413554 0  0.68369313223548 0.7039435730626096 0  0.805195756653417 0.7849453158262875 0  0.6847056440044141 0.7049820554753328 0  0.9029735447036096 0.7444444444444445 0  0.6847228078606633 0.7049560848315441 0  0.805195757738809 0.7039435719772094 0  0.8041660810282256 0.7049560848315441 0  0.8041832448844747 0.7049820554753349 0  0.9578164230213342 0.6948838683471341 0  0.9645772892192558 0.7062137009141434 0  0.9695236884064815 0.7184451175460498 0  0.972538971146615 0.7312896684428197 0  0.9725389711466151 0.7575992204460691 0  0.9695236884064815 0.7704437713428391 0  0.9645772892192558 0.7826751879747456 0  0.9578164230213342 0.7940050205417549 0  0.01437766570919127 0.09711967848259151 0  0.02854851642641832 0.09974531144948819 0  0.04161535472570586 0.1058251712658871 0  0.05275088139110013 0.1149743244732108 0  0.06125007411586489 0.1266135117968212 0  0.06657482449792251 0.1400058227212122 0  0.06643634307317195 0.1691277076584997 0  0.06071435336153361 0.1829418078690686 0  0.04134737123322858 0.3039103077764334 0  0.03416190609801732 0.2911362521989113 0  0.02925217947541549 0.2773267630846004 0  0.02676106927623143 0.2628837102534819 0  0.02676106927623143 0.2482274008576293 0  0.02925217947541547 0.2337843480265108 0  0.03416190609801727 0.2199748589121999 0  0.04134737123322851 0.2072008033346779 0  0.06071435387356935 0.328169304128914 0  0.06643634320569657 0.3419834039471998 0  0.06657482449792249 0.371105288389899 0  0.06125007411586481 0.3844975993142901 0  0.05275088139109994 0.3961367866379005 0  0.04161535472570563 0.4052859398452242 0  0.02854851642641818 0.411365799661623 0  0.01437766570919127 0.4139914326285196 0  0 0.4697526254167924 0  0 0.455563619650285 0  0 0.4413746138837777 0  0 0.4271856081172704 0  0.06095233986089402 0.4687284952262988 0  0.04995687430503332 0.4753797281664747 0  0.03809234373417287 0.4803165365228644 0  0.02562418374773841 0.4834284730529493 0  0.01283133446055119 0.4846459169037758 0  0.08372485599813187 0.4503967593658507 0  0.09753895276796982 0.4446747697099958 0  0.1123633055586467 0.4427231038764812 0  0.1271876590095525 0.4446747646950606 0  0.1410017577150834 0.45039674967774 0  0.1528641934757506 0.4594991149204779 0  0.161966560724962 0.471361549141524 0  0.1676885480442292 0.4851756468792086 0  0.1676885480443665 0.514824353120279 0  0.1619665607254926 0.528638450857557 0  0.1528641934768762 0.5405008850783964 0  0.1410017577169217 0.5496032503211987 0  0.1271876590121153 0.5553252353042526 0  0.1123633055618306 0.5572768961235188 0  0.09753895277155772 0.5553252302909656 0  0.08372485600180817 0.5496032406362719 0  0.0128313344605512 0.5153540830962242 0  0.0256241837477384 0.5165715269470507 0  0.03809234373417282 0.5196834634771356 0  0.04995687430503334 0.5246202718335253 0  0.06095233986089401
[...]
<PointData  Vectors="$u$"> 
<DataArray  type="Float64"  Name="$u$"  NumberOfComponents="3" format="ascii">5.1386300857143776e-04 3.6418720674288411e-03 0.0000000000000000e+00  5.0217514539238530e-04 3.6490604738718419e-03 0.0000000000000000e+00  5.0201275635362462e-04 3.6488455513792994e-03 0.0000000000000000e+00  6.2056705173148109e-05 3.7253334706164338e-03 0.0000000000000000e+00  -4.8182838238702185e-05 3.5885937273283921e-03 0.0000000000000000e+00  -4.8178388056364879e-05 3.5886123893585425e-03 0.0000000000000000e+00  -4.6303767094388112e-05 3.5866926233114227e-03 0.0000000000000000e+00  -1.1094729148744015e-05 5.9594897627932051e-06 0.0000000000000000e+00  1.2487419786803490e-06 1.1281577832586196e-04 0.0000000000000000e+00  7.3422163348480171e-05 1.6366960321760799e-04 0.0000000000000000e+00  7.5297334168740416e-05 1.6183713188273739e-04 0.0000000000000000e+00  7.5302034858323915e-05 1.6185443957151898e-04 0.0000000000000000e+00  -4.7437786848873698e-04 1.0162961517389500e-04 0.0000000000000000e+00  -4.7453932806586793e-04 1.0141506612427109e-04 0.0000000000000000e+00  -4.8610710244696795e-04 1.0864247740875277e-04 0.0000000000000000e+00  -9.6874594903777157e-04 2.8553990994766503e-04 0.0000000000000000e+00  -1.6152730070436298e-03 -5.0781728655297149e-04 0.0000000000000000e+00  -2.4567901837662539e-03 -5.0785350608949004e-04 0.0000000000000000e+00  -2.1792402516787246e-03 3.3226248049048307e-04 0.0000000000000000e+00  -2.1795472725852682e-03 3.3246557761770431e-04 0.0000000000000000e+00  -2.1672815431972720e-03 3.4447373470569432e-04 0.0000000000000000e+00  -2.2618146928992016e-03 1.8722562250406520e-03 0.0000000000000000e+00  -2.1649470477627976e-03 3.4063267775810112e-03 0.0000000000000000e+00  -2.1772200699788731e-03 3.4183355421021026e-03 0.0000000000000000e+00  -2.1769128822249433e-03 3.4185386952081437e-03 0.0000000000000000e+00  -2.4544813590755363e-03 4.2586850796711784e-03 0.0000000000000000e+00  -1.6129218085427538e-03 4.2586495236225843e-03 0.0000000000000000e+00  -9.6654216149101504e-04 3.4650224405086767e-03 0.0000000000000000e+00  -4.8357815910916044e-04 3.6422537986129542e-03 0.0000000000000000e+00  -4.7207842694348677e-04 3.6496282862365182e-03 0.0000000000000000e+00  -4.7191735983204424e-04 3.6494125524274461e-03 0.0000000000000000e+00  7.9465130260941206e-05 3.5889573377301948e-03 0.0000000000000000e+00  7.9460722347737169e-05 3.5889746544193121e-03 0.0000000000000000e+00  7.7622549604080044e-05 3.5871537567005482e-03 0.0000000000000000e+00  5.2361309810823064e-06 3.6376593138637645e-03 0.0000000000000000e+00  -5.8814102927387845e-06 3.7440567177006172e-03 0.0000000000000000e+00  7.2945271863772942e-06 3.7499999999999999e-03 0.0000000000000000e+00  2.4181853957768835e-05 3.7499999999999999e-03 0.0000000000000000e+00  3.7396391300131660e-05 3.7439624091359226e-03 0.0000000000000000e+00  1.6425353777408617e-03 4.2582639802164488e-03 0.0000000000000000e+00  2.4839896612225266e-03 4.2583008773898852e-03 0.0000000000000000e+00  2.2064591258936046e-03 3.4182337700650453e-03 0.0000000000000000e+00  2.2067663755674875e-03 3.4180304551368430e-03 0.0000000000000000e+00  2.1944979400924372e-03 3.4060077081006206e-03 0.0000000000000000e+00  2.1921883616190367e-03 3.4396850623199203e-04 0.0000000000000000e+00  2.2044619309487300e-03 3.3194538807391235e-04 0.0000000000000000e+00  2.2041546467997113e-03 3.3174208979075810e-04 0.0000000000000000e+00  2.4819731321791359e-03 -5.0918157095629823e-04 0.0000000000000000e+00  1.6396554215381356e-03 -5.0914193687170311e-04 0.0000000000000000e+00  5.0977006240234880e-04 1.0820400392831447e-04 0.0000000000000000e+00  4.9814883664124404e-04 1.0091476743940178e-04 0.0000000000000000e+00  4.9798591425201822e-04 1.0113120886740599e-04 0.0000000000000000e+00  5.7302694457873451e-05 2.3967740824225210e-05 0.0000000000000000e+00  -5.3790352656224181e-05 1.6135139758136280e-04 0.0000000000000000e+00  -5.3784003198734550e-05 1.6133507464110533e-04 0.0000000000000000e+00  -5.1700204661022988e-05 1.6318515244844700e-04 0.0000000000000000e+00  3.1940053838788682e-05 5.9443544243799807e-06 0.0000000000000000e+00  1.8745107152364676e-05 0.0000000000000000e+00 0.0000000000000000e+00  0.0000000000000000e+00 0.0000000000000000e+00 0.0000000000000000e+00  -5.8534390831583335e-04 1.7476292885499900e-03 0.0000000000000000e+00  -5.8533518621333921e-04 1.7475880127392333e-03 0.0000000000000000e+00  -7.5397976673299404e-04 1.7062872951838187e-03 0.0000000000000000e+00  -5.8345088281417615e-04 1.7411427626292737e-03 0.0000000000000000e+00  -7.5402613248266219e-04 1.7062314871768656e-03 0.0000000000000000e+00  -2.5995721167591645e-05 1.0117378431558061e-05 0.0000000000000000e+00  -7.5381317670805670e-04 1.7000999717762676e-03 0.0000000000000000e+00  -2.6726266969229199e-05 9.9673335203220147e-06 0.0000000000000000e+00  -7.2181653369839723e-04 4.9968673846211811e-04 0.0000000000000000e+00  -2.6713878077290633e-05 9.9718572080544269e-06 0.0000000000000000e+00  -6.5197205931646782e-05 8.5079152423485959e-06 0.0000000000000000e+00  -6.4120701700502529e-05 8.7426269415189823e-06 0.0000000000000000e+00  -6.4097779043837449e-05 8.7307731104014686e-06 0.0000000000000000e+00  7.5819440321257380e-04 6.1026987422763157e-04 0.0000000000000000e+00  4.6026454359376673e-04 6.6943827684968127e-04 0.0000000000000000e+00  7.6340916024658873e-04 6.1137312036143817e-04 0.0000000000000000e+00  -7.3472915923323515e-04 6.0984950392504740e-04 0.0000000000000000e+00  7.6344862787998489e-04 6.1139185014371517e-04 0.0000000000000000e+00  -7.3981792669429035e-04 6.1112651829199225e-04 0.0000000000000000e+00  3.3574065619324808e-04 6.2762156174283451e-04 0.0000000000000000e+00  -7.3985474917049568e-04 6.1114064702657189e-04 0.0000000000000000e+00  3.3556823475661346e-04 6.2787941137333939e-04 0.0000000000000000e+00  -7.1763032130775940e-04 7.3911045476816569e-04 0.0000000000000000e+00  3.2554700417243852e-04 6.1783163736584402e-04 0.0000000000000000e+00  -3.1500617771447459e-04 6.2705966421340836e-04 0.0000000000000000e+00  8.3898756652564540e-05 2.8582943143907487e-04 0.0000000000000000e+00  -3.1483168815540734e-04 6.2731957102577797e-04 0.0000000000000000e+00  -3.0475475858946529e-04 6.1728858487845656e-04 0.0000000000000000e+00  7.7824725158059634e-04 1.7045965853911575e-03 0.0000000000000000e+00  7.7829221080465041e-04 1.7045403830090598e-03 0.0000000000000000e+00  6.0998541052415499e-04 1.7482669525839115e-03 0.0000000000000000e+00  7.7818765558873375e-04 1.6982950483738562e-03 0.0000000000000000e+00  6.0997643465742304e-04 1.7482272314206209e-03 0.0000000000000000e+00  8.6169662827560587e-05 8.4917249523024757e-06 0.0000000000000000e+00  6.0815727886510528e-04 1.7420208984951003e-03 0.0000000000000000e+00  8.5015669018110874e-05 8.6517065129385570e-06 0.0000000000000000e+00  4.3753651862850061e-05 3.5272692405789654e-04 0.0000000000000000e+00  8.5039314632247390e-05 8.6633735714139440e-06 0.0000000000000000e+00  4.6863415574814539e-05 1.0193980606604664e-05 0.0000000000000000e+00  4.7703801599089502e-05 1.0187818880418890e-05 0.0000000000000000e+00  4.7720125224586652e-05 1.0180460649457727e-05 0.0000000000000000e+00  2.5834707403967914e-04 1.8425526777432427e-03 0.0000000000000000e+00  -1.0744250780013048e-04 1.9996458022867288e-03 0.0000000000000000e+00  2.6735568470175216e-04 1.8388270809365304e-03 0.0000000000000000e+00  -1.9670768248955454e-03 1.8016958743339163e-03 0.0000000000000000e+00  2.6746835789532414e-04 1.8389617487262219e-03 0.0000000000000000e+00  -1.9774536958972813e-03 1.7992176520397998e-03 0.0000000000000000e+00  2.6448196958367106e-04 1.9139170207306544e-03 0.0000000000000000e+00  -1.9775669026782846e-03 1.7993369410850943e-03 0.0000000000000000e+00  2.6437001967844777e-04 1.9140538925587550e-03 0.0000000000000000e+00  -2.2326917513199383e-03 1.8743747962442730e-03 0.0000000000000000e+00  2.5548064295891526e-04 1.9100638338200365e-03 0.0000000000000000e+00  -1.9790572358213835e-03 1.9475742613306152e-03 0.0000000000000000e+00  -1.1063457438291920e-04 1.7518211362547288e-03 0.0000000000000000e+00  -1.9789611379386141e-03 1.9476658782685958e-03 0.0000000000000000e+00  -1.9693843162359630e-03 1.9462798789827941e-03 0.0000000000000000e+00  -2.1722568378463394e-05 3.7398962222902621e-03 0.0000000000000000e+00  -2.1737670615401574e-05 3.7399024912848069e-03 0.0000000000000000e+00  -5.8939026396731432e-05 3.7413980563851821e-03 0.0000000000000000e+00  -2.0908807062358997e-05 3.7398308239275230e-03 0.0000000000000000e+00  -5.8916111126308787e-05 3.7414091146526825e-03 0.0000000000000000e+00  -5.8078943792716107e-04 2.0090417333239710e-03 0.0000000000000000e+00  -6.0059806189601529e-05 3.7415308326223373e-03 0.0000000000000000e+00  -5.8249027200921860e-04 2.0025754140854802e-03 0.0000000000000000e+00  -7.1298389337447567e-04 3.2566280235350213e-03 0.0000000000000000e+00  -5.8250192610799360e-04 2.0025332678218224e-03 0.0000000000000000e+00  -7.5097437959321142e-04 2.0513284132968332e-03 0.0000000000000000e+00  -7.5109193016424593e-04 2.0450825895803331e-03 0.0000000000000000e+00  -7.5113794108211244e-04 2.0451387728041043e-03 0.0000000000000000e+00  9.1846834859156593e-05 3.0176196981338407e-03 0.0000000000000000e+00  9.1832440328653501e-05 3.0176042155250970e-03 0.0000000000000000e+00  -6.1861822128928353e-05 3.0174520046253725e-03 0.0000000000000000e+00  9.3950289965471495e-05 3.0138032552289263e-03 0.0000000000000000e+00  -6.1848986101676641e-05 3.0174370003548932e-03 0.0000000000000000e+00  9.1417168418650576e-05 7.3620050191666839e-04 0.0000000000000000e+00  -6.3849690382690542e-05 3.0138005564730756e-03 0.0000000000000000e+00  8.9342080447731457e-05 7.3251090404855327e-04 0.0000000000000000e+00  -4.7282293445401809e-04 1.8733196265295071e-03 0.0000000000000000e+00  8.9356606564057922e-05 7.3249645227327310e-04 0.0000000000000000e+00  -6.6304242017102289e-05 7.3626136123684295e-04 0.0000000000000000e+00  -6.4302733705002836e-05 7.3254850377094647e-04 0.0000000000000000e+00  -6.4289640041200683e-05 7.3256363837870405e-04 0.0000000000000000e+00  1.9967973133785833e-03 1.8032916110359428e-03 0.0000000000000000e+00  1.4918951261221470e-03 1.9246022108532347e-03 0.0000000000000000e+00  2.0074425301238753e-03 1.8007868649683929e-03 0.0000000000000000e+00  -2.2774412543659519e-04 1.8400589691785632e-03 0.0000000000000000e+00  2.0075588150760214e-03 1.8009089585421982e-03 0.0000000000000000e+00  -2.3695457729565523e-04 1.8363767340833169e-03 0.0000000000000000e+00  2.0045682238171579e-03 1.9513711153397581e-03 0.0000000000000000e+00  -2.3706952706643815e-04 1.8365125862535578e-03 0.0000000000000000e+00  2.0044517147689077e-03 1.9514952352696945e-03 0.0000000000000000e+00  -4.5923273969545198e-04 1.8727885938419979e-03 0.0000000000000000e+00  1.9939464814918871e-03 1.9488712699981363e-03 0.0000000000000000e+00  -2.3955821420384790e-04 1.9095726557915135e-03 0.0000000000000000e+00  1.4886575796856359e-03 1.8261444965153991e-03 0.0000000000000000e+00  -2.3946482651262461e-04 1.9096781304143579e-03 0.0000000000000000e+00  -2.3140897680255817e-04 1.9070167822644655e-03 0.0000000000000000e+00  3.3077123615184775e-04 3.1332735993167965e-03 0.0000000000000000e+00  8.8429958589750630e-05 3.4630608818337115e-03 0.0000000000000000e+00  3.4066604417912249e-04 3.1230401092146266e-03 0.0000000000000000e+00  -2.9913606156956106e-04 3.1326509999084051e-03 0.0000000000000000e+00  3.4084007626185075e-04 3.1233019913932212e-03 0.0000000000000000e+00  -3.0918442106946375e-04 3.1228375420120904e-03 0.0000000000000000e+00  7.6756323382539478e-04 3.1394725640369811e-03 0.0000000000000000e+00  -3.0935707675366247e-04 3.1230924750306551e-03 0.0000000000000000e+00  7.6752430280545769e-04 3.1394916083921217e-03 0.0000000000000000e+00  -7.1198179331103707e-04 3.0106095325203928e-03 0.0000000000000000e+00  7.6230889250368463e-04 3.1404888747384213e-03 0.0000000000000000e+00  -7.3665356226637418e-04 3.1388771181169099e-03 0.0000000000000000e+00  4.6394588880494740e-04 3.0801180392314408e-03 0.0000000000000000e+00  -7.3661444400529674e-04 3.1388921175884098e-03 0.0000000000000000e+00  -7.3135954771564823e-04 3.1402908466121116e-03 0.0000000000000000e+00  9.0634595175186140e-05 3.7412991756251898e-03 0.0000000000000000e+00  9.0610483358785480e-05 3.7413113055735801e-03 0.0000000000000000e+00  5.3004488441626076e-05 3.7398877066525888e-03 0.0000000000000000e+00  9.1783904811306959e-05 3.7415092079413296e-03 0.0000000000000000e+00  5.3013541033115412e-05 3.7398895737611577e-03 0.0000000000000000e+00  7.8125590620369153e-04 2.0495071559327453e-03 0.0000000000000000e+00  5.2366767168466381e-05 3.7395217584947726e-03 0.0000000000000000e+00  7.8140110546345669e-04 2.0433383088590282e-03 0.0000000000000000e+00  4.8854598189784548e-05 3.4002509855309698e-03 0.0000000000000000e+00  7.8135567159323899e-04 2.0432824827873392e-03 0.0000000000000000e+00  6.1105422750966799e-04 2.0094407960823124e-03 0.0000000000000000e+00  6.1290261949084861e-04 2.0030077579833274e-03 0.0000000000000000e+00  6.1289314384706142e-04 2.0030491448730478e-03 0.0000000000000000e+00  3.9802894647782388e-04 3.7030579393753558e-03 0.0000000000000000e+00  2.9987149668140841e-04 3.7347525124659707e-03 0.0000000000000000e+00  2.0913154558807194e-04 3.7469192353980574e-03 0.0000000000000000e+00  1.2924065374485507e-04 3.7424714000063222e-03 0.0000000000000000e+00  9.7134582852028606e-06 3.6992578486643854e-03 0.0000000000000000e+00  -2.7423210112251082e-05 3.6685415964259429e-03 0.0000000000000000e+00  -4.8919078127762395e-05 3.6367850957672023e-03 0.0000000000000000e+00  -5.6057849592978633e-05 3.6089688560075354e-03 0.0000000000000000e+00  -1.0828518079388680e-05 1.0563210996333421e-05 0.0000000000000000e+00  -1.2054195743953815e-05 1.7050965814197929e-05 0.0000000000000000e+00  -1.3615618652939850e-05 2.6843086748161999e-05 0.0000000000000000e+00  -1.5248701752398447e-05 4.1022547601967970e-05 0.0000000000000000e+00  -1.4501853822497954e-05 6.0394790933840928e-05 0.0000000000000000e+00  -1.0532170965673054e-05 8.5065088391943084e-05 0.0000000000000000e+00  2.1686826544555220e-05 1.4303241620452567e-04 0.0000000000000000e+00  4.9497552040606570e-05 1.6405540985104863e-04 0.0000000000000000e+00  -3.5977773846533482e-04 4.2872017416447393e-05 0.0000000000000000e+00  -2.5157182344888500e-04 1.1524332228568646e-05 0.0000000000000000e+00  -1.5407713065177688e-04 3.2162484438162893e-06 0.0000000000000000e+00  -7.0159651446445077e-05 1.4368864163321714e-05 0.0000000000000000e+00  -3.7901020054523621e-06 3.9062157068443544e-05 0.0000000000000000e+00  4.3938837787120519e-05 7.1767078386576153e-05 0.0000000000000000e+00  7.2667227700906416e-05 1.0687254198134890e-04 0.0000000000000000e+00  8.2879610289307700e-05 1.3900135737847315e-04 0.0000000000000000e+00  -6.2587033170235834e-04 1.8650623964639254e-04 0.0000000000000000e+00  -7.9428877515215143e-04 2.5207910337937960e-04 0.0000000000000000e+00  -1.1317277240682571e-03 2.7450581509125673e-04 0.0000000000000000e+00  -1.2834522499147001e-03 2.1729181191995650e-04 0.0000000000000000e+00  -1.4172580336952354e-03 1.1835449201546568e-04 0.0000000000000000e+00  -1.5242093428049137e-03 -1.3763631572584396e-05 0.0000000000000000e+00  -1.5959818004547849e-03 -1.6903788631260830e-04 0.0000000000000000e+00  -1.6270762349759366e-03 -3.3724885046169581e-04 0.0000000000000000e+00  -2.2884990355849779e-03 -5.0785476829316571e-04 0.0000000000000000e+00  -2.1201992071329147e-03 -5.0784831325697741e-04 0.0000000000000000e+00  -1.9518984285239486e-03 -5.0783123847266678e-04 0.0000000000000000e+00  -1.7835971492695822e-03 -5.0782158866601338e-04 0.0000000000000000e+00  -2.2764996872573118e-03 2.1500882228846728e-04 0.0000000000000000e+00  -2.3552928062473373e-03 8.4602864117009732e-05 0.0000000000000000e+00  -2.4138057063845483e-03 -5.6087326717961449e-05 0.0000000000000000e+00  -2.4507043862223837e-03 -2.0394590411439731e-04 0.0000000000000000e+00  -2.4651419384397774e-03 -3.5566860429082247e-04 0.0000000000000000e+00  -2.0599594579161652e-03 4.8598796940191324e-04 0.0000000000000000e+00  -1.9924834349116516e-03 6.5291678574325163e-04 0.0000000000000000e+00  -1.9685054765696906e-03 8.3765759855419569e-04 0.0000000000000000e+00  -1.9870995309583302e-03 1.0303599471621549e-03 0.0000000000000000e+00  -2.0409713945090903e-03 1.2270371901601639e-03 0.0000000000000000e+00  -2.1179068403498072e-03 1.4134586891403397e-03 0.0000000000000000e+00  -2.1945412644172146e-03 1.5892138238711370e-03 0.0000000000000000e+00  -2.2427431686202308e-03 1.7394728689049605e-03 0.0000000000000000e+00  -2.2455958766243300e-03 2.0099064111489618e-03 0.0000000000000000e+00  -2.1925811836996430e-03 2.1668748104939225e-03 0.0000000000000000e+00  -2.1156874804683099e-03 2.3364293089911444e-03 0.0000000000000000e+00  -2.0387941571645405e-03 2.5233260746276272e-03 0.0000000000000000e+00  -1.9854376147517383e-03 2.7197148444639109e-03 0.0000000000000000e+00  -1.9664469025523490e-03 2.9130766276947309e-03 0.0000000000000000e+00  -1.9901910038833313e-03 3.0977672534688080e-03 0.0000000000000000e+00  -2.0576777441175765e-03 3.2648186533397188e-03 0.0000000000000000e+00  -2.4628328987283767e-03 4.1064920903293401e-03 0.0000000000000000e+00  -2.4483930089404990e-03 3.9547628895074006e-03 0.0000000000000000e+00  -2.4114934321150579e-03 3.8068983042217814e-03 0.0000000000000000e+00  -2.3529788930633710e-03 3.6661998535538927e-03 0.0000000000000000e+00  -2.2741733096251415e-03 3.5357859755816056e-03 0.0000000000000000e+00  -1.7812482286900016e-03 4.2586518860348484e-03 0.0000000000000000e+00  -1.9495613287740772e-03 4.2586642429726226e-03 0.0000000000000000e+00  -2.1178716023428279e-03 4.2586822734565245e-03 0.0000000000000000e+00  -2.2861815183536621e-03 4.2586868071648422e-03 0.0000000000000000e+00  -1.6247239351091349e-03 4.0880693118894480e-03 0.0000000000000000e+00  -1.5936188918518122e-03 3.9198593159945842e-03 0.0000000000000000e+00  -1.5218649597738502e-03 3.7645274921500518e-03 0.0000000000000000e+00  -1.4147989335430485e-03 3.6325057191414927e-03 0.0000000000000000e+00  -1.2810223067820866e-03 3.5334968717666169e-03 0.0000000000000000e+00  -1.1292298068239159e-03 3.4759885077236983e-03 0.0000000000000000e+00  -7.9180644801187948e-04 3.4988312324046129e-03 0.0000000000000000e+00  -6.2329149659442714e-04 3.5642494600510444e-03 0.0000000000000000e+00  8.7166930428047554e-05 3.6119006440045389e-03 0.0000000000000000e+00  7.6834256402453512e-05 3.6442329902918917e-03 0.0000000000000000e+00  4.7870726797425799e-05 3.6794240169388615e-03 0.0000000000000000e+00  -7.1957669687916728e-08 3.7120712946863864e-03 0.0000000000000000e+00  -6.6782645830650757e-05 3.7369703375862914e-03 0.0000000000000000e+00  -1.5030855803272562e-04 3.7476460410394499e-03 0.0000000000000000e+00  -2.4850536671800020e-04 3.7396400712695040e-03 0.0000000000000000e+00  -3.5625303540004439e-04 3.7084635218537281e-03 0.0000000000000000e+00  5.4445127546273495e-05 3.5867250849457985e-03 0.0000000000000000e+00  2.6808457951022953e-05 3.6069737354377223e-03 0.0000000000000000e+00  -4.3070691078310821e-06 3.6656662454277985e-03 0.0000000000000000e+00  -9.3178601288905031e-06 3.6898852266883512e-03 0.0000000000000000e+00  -9.8807549719170721e-06 3.7087224292493429e-03 0.0000000000000000e+00  -8.5925982193357962e-06 3.7232236050997688e-03 0.0000000000000000e+00  -6.6902500816077239e-06 3.7328365365245624e-03 0.0000000000000000e+00  -5.7487573888078644e-06 3.7393156875175334e-03 0.0000000000000000e+00  7.1899637839354558e-06 3.7480115911093211e-03 0.0000000000000000e+00  6.8223436850075672e-06 3.7462119460349745e-03 0.0000000000000000e+00  6.0441126216193329e-06 3.7448006273279521e-03 0.0000000000000000e+00  4.6755541642215804e-06 3.7438699853440637e-03 0.0000000000000000e+00  2.3396857430020395e-06 3.7436838994825607e-03 0.0000000000000000e+00  -1.3269986419851561e-06 3.7439010123706089e-03 0.0000000000000000e+00  2.4916261598694052e-05 3.7499999999999999e-03 0.0000000000000000e+00  2.5988989221853170e-05 3.7499999999999999e-0