<?xml version="1.0"?>
<VTKFile type="UnstructuredGrid"  version="0.1"  >
<UnstructuredGrid>
<Piece  NumberOfPoints="4855" NumberOfCells="8780">
<Points>
<DataArray  type="Float64"  NumberOfComponents="3"  format="ascii">0.9483880164242298 0.6836931311526558 0  0.9494264999197789 0.6847056440044139 0  0.9494005292759887 0.6847228078606633 0  0.9735520289385229 0.7444444444444445 0  0.9494005292759886 0.8041660810282256 0  0.94942649991978 0.8041832448844759 0  0.9483880175070514 0.8051957566534116 0  3.131175874138137e-16 0.09811450876034808 0  0.06838800723463068 0.1543033514199101 0  0.05161198249294494 0.1948042433465922 0  0.0505735000802211 0.1958167551155251 0  0.05059947072401128 0.1958339189717744 0  0.0505994707240113 0.3152771921393367 0  0.05057350008021998 0.315294355995587 0  0.05161198357913653 0.3163068688507105 0  0.06838800723463068 0.356807759691201 0  3.252606517456513e-16 0.4129966023507631 0  -1.795438797635995e-16 0.4839416311832997 0  0.07083274769489223 0.4605116403870998 0  0.07084991155114129 0.4605376110308903 0  0.07186242331670639 0.4594991286215342 0  0.1696402113702762 0.5 0  0.07186242332008326 0.5405008713818427 0  0.0708499115511413 0.5394623889691096 0  0.07083274769489219 0.5394883596129002 0  -1.925543058334256e-16 0.5160583688167003 0  1.484923295436147e-15 0.5870033976492365 0  0.06838800723463068 0.643192240308799 0  0.05161198249294541 0.6836931322354806 0  0.05057350008022109 0.6847056440044139 0  0.0505994707240113 0.6847228078606633 0  0.0505994707240113 0.8041660810282256 0  0.05057350008021999 0.804183244884476 0  0.05161198249294764 0.8051957566534106 0  0.06838800723463068 0.84569664858009 0  1.485790657174135e-15 0.9018854912396524 0  0 1 0  1 1 0  0.9999999999999987 0.9018854912396523 0  1.000000000000001 0.5870033976492375 0  1 0.5160583688167003 0  0.9291672523051078 0.5394883596129003 0  0.9291500884488585 0.5394623889691117 0  0.9281375755937461 0.5405008724680134 0  0.9281375755937372 0.4594991275319777 0  0.9291500884488586 0.4605376110308884 0  0.9291672523051077 0.4605116403870997 0  1 0.4839416311832997 0  0.9999999999999987 0.4129966023507635 0  0.948388017507054 0.31630686776452 0  0.94942649991978 0.3152943559955871 0  0.9494005292759886 0.3152771921393367 0  0.9735520289385229 0.2555555555555555 0  0.9494005292759888 0.1958339189717744 0  0.9494264999197789 0.1958167551155251 0  0.9483880164208631 0.1948042422604003 0  1.000000000000001 0.09811450876034861 0  1 0 0  0 0 0  0.1958339189717744 0.2950439151684559 0  0.1958167551155252 0.2950179445246672 0  0.3152771921393367 0.2950439151684557 0  0.1948042433481841 0.2960564269357975 0  0.3152943559955858 0.2950179445246651 0  0.1948042422604031 0.2150546830875326 0  0.3163068677645244 0.2960564269373949 0  0.1958167551155251 0.2160931665864439 0  0.4140846558147206 0.2555555555555555 0  0.1958339189717744 0.2160671959426553 0  0.3163068688489276 0.215054683089313 0  0.3152771921393367 0.2160671959426553 0  0.3152943559955858 0.2160931665864459 0  0.5405008724680257 0.3163068688507107 0  0.5572768961235196 0.356807759691201 0  0.5394623889691089 0.3152943559955871 0  0.459499128618165 0.3163068677645201 0  0.5394883596129003 0.3152771921393367 0  0.4605376110308911 0.3152943559955871 0  0.5394883596129001 0.1958339189717744 0  0.4605116403870998 0.3152771921393367 0  0.53946238896911 0.1958167551155251 0  0.4846631400496339 0.2555555555555555 0  0.5405008724680251 0.1948042422604009 0  0.4605116403870998 0.1958339189717744 0  0.5572768961235196 0.1543033514199101 0  0.46053761103089 0.1958167551155251 0  0.4594991286269881 0.1948042433554141 0  0.6847228078606633 0.2950439151684559 0  0.684705644004414 0.2950179445246672 0  0.8041660810282256 0.2950439151684557 0  0.683693131164073 0.2960564280087975 0  0.8041832448844747 0.2950179445246651 0  0.6836931322354718 0.2150546841737125 0  0.8051957566534156 0.2960564269373971 0  0.6847056440044141 0.2160931665864439 0  0.9029735447036096 0.2555555555555555 0  0.6847228078606632 0.2160671959426553 0  0.8051957577274008 0.2150546830997286 0  0.8041660810282256 0.2160671959426553 0  0.8041832448844747 0.2160931665864459 0  0.2960564280235811 0.560751313295155 0  0.3128324516790751 0.6012522041356455 0  0.2950179445246645 0.5597388004400315 0  0.2150546830875235 0.5607513132951615 0  0.2950439151684557 0.5597216365837812 0  0.2160931665864466 0.5597388004400314 0  0.2950439151684558 0.4402783634162188 0  0.2160671959426553 0.5597216365837812 0  0.2950179445246656 0.4402611995599696 0  0.2402186956051895 0.5 0  0.29605642693739 0.439248687791036 0  0.2160671959426553 0.4402783634162189 0  0.3128324516790751 0.3987477958643545 0  0.2160931665864455 0.4402611995599696 0  0.2150546830875296 0.4392486867048446 0  0.1958339189717743 0.7839328040573448 0  0.1958167551155252 0.7839068334135562 0  0.3152771921393367 0.7839328040573447 0  0.1948042422604028 0.7849453169124678 0  0.3152943559955858 0.783906833413554 0  0.1948042433465913 0.7039435730626098 0  0.3163068677645284 0.7849453158262878 0  0.1958167551155251 0.7049820554753328 0  0.4140846558147206 0.7444444444444445 0  0.1958339189717744 0.7049560848315441 0  0.3163068688486237 0.7039435719785058 0  0.3152771921393367 0.7049560848315441 0  0.3152943559955858 0.7049820554753349 0  0.4402783634162188 0.5394883596129003 0  0.4402611995599696 0.5394623889691117 0  0.5597216365837812 0.5394883596129002 0  0.4392486867048468 0.5405008724680237 0  0.5597388004400302 0.5394623889691096 0  0.4392486877998708 0.4594991286270004 0  0.5607513122089726 0.540500871381843 0  0.4402611995599696 0.4605376110308884 0  0.6585291002591651 0.5 0  0.4402783634162188 0.4605116403870998 0  0.5607513121946796 0.45949912863245 0  0.5597216365837812 0.4605116403870998 0  0.5597388004400302 0.4605376110308904 0  0.78494531690701 0.5607513132896949 0  0.8017213405679641 0.6012522041356455 0  0.7839068334135535 0.5597388004400315 0  0.7039435730626069 0.5607513122089671 0  0.7839328040573448 0.5597216365837812 0  0.7049820554753355 0.5597388004400314 0  0.7839328040573448 0.4402783634162188 0  0.7049560848315441 0.5597216365837812 0  0.7839068334135545 0.4402611995599696 0  0.7291075844940784 0.5 0  0.784945315826279 0.4392486877910359 0  0.7049560848315444 0.4402783634162188 0  0.8017213405679641 0.3987477958643545 0  0.7049820554753344 0.4402611995599696 0  0.7039435719764182 0.4392486867048443 0  0.5405008724625655 0.8051957577341393 0  0.5572768961235196 0.84569664858009 0  0.539462388969109 0.804183244884476 0  0.4594991286181648 0.8051957566534091 0  0.5394883596129003 0.8041660810282256 0  0.4605376110308911 0.804183244884476 0  0.5394883596129003 0.6847228078606633 0  0.4605116403870998 0.8041660810282256 0  0.53946238896911 0.6847056440044139 0  0.4846631400496339 0.7444444444444445 0  0.5405008713818347 0.6836931322354802 0  0.4605116403870998 0.6847228078606633 0  0.5572768961235196 0.643192240308799 0  0.46053761103089 0.6847056440044139 0  0.4594991275353449 0.6836931311526599 0  0.6847228078606633 0.7839328040573448 0  0.684705644004414 0.7839068334135562 0  0.8041660810282256 0.7839328040573447 0  0.6836931311493016 0.7849453169124578 0  0.8041832448844747 0.783906833413554 0  0.68369313223548 0.7039435730626096 0  0.805195756653417 0.7849453158262875 0  0.6847056440044141 0.7049820554753328 0  0.9029735447036096 0.7444444444444445 0  0.6847228078606633 0.7049560848315441 0  0.805195757738809 0.7039435719772094 0  0.8041660810282256 0.7049560848315441 0  0.8041832448844747 0.7049820554753349 0  0.9578164230213342 0.6948838683471341 0  0.9645772892192558 0.7062137009141434 0  0.9695236884064815 0.7184451175460498 0  0.972538971146615 0.7312896684428197 0  0.9725389711466151 0.7575992204460691 0  0.9695236884064815 0.7704437713428391 0  0.9645772892192558 0.7826751879747456 0  0.9578164230213342 0.7940050205417549 0  0.01437766570919127 0.09711967848259151 0  0.02854851642641832 0.09974531144948819 0  0.04161535472570586 0.1058251712658871 0  0.05275088139110013 0.1149743244732108 0  0.06125007411586489 0.1266135117968212 0  0.06657482449792251 0.1400058227212122 0  0.06643634307317195 0.1691277076584997 0  0.06071435336153361 0.1829418078690686 0  0.04134737123322858 0.3039103077764334 0  0.03416190609801732 0.2911362521989113 0  0.02925217947541549 0.2773267630846004 0  0.02676106927623143 0.2628837102534819 0  0.02676106927623143 0.2482274008576293 0  0.02925217947541547 0.2337843480265108 0  0.03416190609801727 0.2199748589121999 0  0.04134737123322851 0.2072008033346779 0  0.06071435387356935 0.328169304128914 0  0.06643634320569657 0.3419834039471998 0  0.06657482449792249 0.371105288389899 0  0.06125007411586481 0.3844975993142901 0  0.05275088139109994 0.3961367866379005 0  0.04161535472570563 0.4052859398452242 0  0.02854851642641818 0.411365799661623 0  0.01437766570919127 0.4139914326285196 0  0 0.4697526254167924 0  0 0.455563619650285 0  0 0.4413746138837777 0  0 0.4271856081172704 0  0.06095233986089402 0.4687284952262988 0  0.04995687430503332 0.4753797281664747 0  0.03809234373417287 0.4803165365228644 0  0.02562418374773841 0.4834284730529493 0  0.01283133446055119 0.4846459169037758 0  0.08372485599813187 0.4503967593658507 0  0.09753895276796982 0.4446747697099958 0  0.1123633055586467 0.4427231038764812 0  0.1271876590095525 0.4446747646950606 0  0.1410017577150834 0.45039674967774 0  0.1528641934757506 0.4594991149204779 0  0.161966560724962 0.471361549141524 0  0.1676885480442292 0.4851756468792086 0  0.1676885480443665 0.514824353120279 0  0.1619665607254926 0.528638450857557 0  0.1528641934768762 0.5405008850783964 0  0.1410017577169217 0.5496032503211987 0  0.1271876590121153 0.5553252353042526 0  0.1123633055618306 0.5572768961235188 0  0.09753895277155772 0.5553252302909656 0  0.08372485600180817 0.5496032406362719 0  0.0128313344605512 0.5153540830962242 0  0.0256241837477384 0.5165715269470507 0  0.03809234373417282 0.5196834634771356 0  0.04995687430503334 0.5246202718335253 0  0.06095233986089401
[...]
<PointData  Tensors="$\sigma$"> 
<DataArray  type="Float64"  Name="$\sigma$"  NumberOfComponents="9" format="ascii">-5.0861672064903687e+03 -5.7394436004131621e+03 0.0000000000000000e+00 -5.7394436004131621e+03 -6.9952306297727546e+03 0.0000000000000000e+00 0.0000000000000000e+00 0.0000000000000000e+00 0.0000000000000000e+00  -6.6446598066352180e+03 -6.0397674005256958e+03 0.0000000000000000e+00 -6.0397674005256977e+03 -4.4574609050723302e+03 0.0000000000000000e+00 0.0000000000000000e+00 0.0000000000000000e+00 0.0000000000000000e+00  -5.2404145264884592e+03 -5.7859982335882887e+03 0.0000000000000000e+00 -5.7859982335882924e+03 -6.3840781913559304e+03 0.0000000000000000e+00 0.0000000000000000e+00 0.0000000000000000e+00 0.0000000000000000e+00  -2.6893551788376072e+02 -4.1569581265323097e+02 0.0000000000000000e+00 -4.1569581265323160e+02 -1.1720975549533940e+04 0.0000000000000000e+00 0.0000000000000000e+00 0.0000000000000000e+00 0.0000000000000000e+00  -4.7858461363285405e+03 5.8298757718232600e+03 0.0000000000000000e+00 5.8298757718232764e+03 -6.4519829377796214e+03 0.0000000000000000e+00 0.0000000000000000e+00 0.0000000000000000e+00 0.0000000000000000e+00  -8.5012522556675249e+03 6.1904543575312537e+03 0.0000000000000000e+00 6.1904543575312537e+03 -6.6034264817317107e+03 0.0000000000000000e+00 0.0000000000000000e+00 0.0000000000000000e+00 0.0000000000000000e+00  -3.7491051044753340e+03 5.0077016642544131e+03 0.0000000000000000e+00 5.0077016642544149e+03 -4.7140276464012550e+03 0.0000000000000000e+00 0.0000000000000000e+00 0.0000000000000000e+00 0.0000000000000000e+00  6.7291824693134814e+01 3.3906548520461208e+00 0.0000000000000000e+00 3.3906548520461239e+00 2.7413334858627881e+01 0.0000000000000000e+00 0.0000000000000000e+00 0.0000000000000000e+00 0.0000000000000000e+00  -1.7446554629286741e+01 7.7553502921327890e+01 0.0000000000000000e+00 7.7553502921327294e+01 8.2705013723691027e+03 0.0000000000000000e+00 0.0000000000000000e+00 0.0000000000000000e+00 0.0000000000000000e+00  -4.0502348959378282e+03 4.5464789449568962e+03 0.0000000000000000e+00 4.5464789449568989e+03 -5.7567738591677171e+03 0.0000000000000000e+00 0.0000000000000000e+00 0.0000000000000000e+00 0.0000000000000000e+00  -7.9689932126309650e+03 6.4566900553476280e+03 0.0000000000000000e+00 6.4566900553476289e+03 -5.6823430761064255e+03 0.0000000000000000e+00 0.0000000000000000e+00 0.0000000000000000e+00 0.0000000000000000e+00  -4.7712917725573798e+03 5.5919263734610731e+03 0.0000000000000000e+00 5.5919263734610768e+03 -6.0953370731175801e+03 0.0000000000000000e+00 0.0000000000000000e+00 0.0000000000000000e+00 0.0000000000000000e+00  -4.9065149554620057e+03 -5.7800613572903621e+03 0.0000000000000000e+00 -5.7800613572903649e+03 -6.5444039806528581e+03 0.0000000000000000e+00 0.0000000000000000e+00 0.0000000000000000e+00 0.0000000000000000e+00  -8.1262790984579997e+03 -5.9357577373291242e+03 0.0000000000000000e+00 -5.9357577373291351e+03 -4.5018099310772923e+03 0.0000000000000000e+00 0.0000000000000000e+00 0.0000000000000000e+00 0.0000000000000000e+00  -3.8350867694327253e+03 -5.8399145777389322e+03 0.0000000000000000e+00 -5.8399145777389176e+03 -6.8889840975958696e+03 0.0000000000000000e+00 0.0000000000000000e+00 0.0000000000000000e+00 0.0000000000000000e+00  3.2066441501125433e+02 -1.9791614105636249e+01 0.0000000000000000e+00 -1.9791614105636160e+01 1.2400448216409659e+03 0.0000000000000000e+00 0.0000000000000000e+00 0.0000000000000000e+00 0.0000000000000000e+00  2.2764383762696050e+00 2.0968139354677175e+00 0.0000000000000000e+00 2.0968139354677189e+00 -7.9889262748076169e+00 0.0000000000000000e+00 0.0000000000000000e+00 0.0000000000000000e+00 0.0000000000000000e+00  -2.2597238569464095e+00 7.8434109130971041e-01 0.0000000000000000e+00 7.8434109130971097e-01 3.3565622030302822e+00 0.0000000000000000e+00 0.0000000000000000e+00 0.0000000000000000e+00 0.0000000000000000e+00  -3.8297137589595152e+01 3.0699795718436043e+01 0.0000000000000000e+00 3.0699795718436032e+01 -1.6380706668423777e+01 0.0000000000000000e+00 0.0000000000000000e+00 0.0000000000000000e+00 0.0000000000000000e+00  -2.1376192488318478e+02 1.1547261362774539e+02 0.0000000000000000e+00 1.1547261362774537e+02 -1.4175222261248874e+02 0.0000000000000000e+00 0.0000000000000000e+00 0.0000000000000000e+00 0.0000000000000000e+00  5.8154476610586947e+01 4.6521480809117236e+01 0.0000000000000000e+00 4.6521480809117186e+01 -3.0492675122113585e+01 0.0000000000000000e+00 0.0000000000000000e+00 0.0000000000000000e+00 0.0000000000000000e+00  6.2205933334013862e+03 -2.6966499264844731e+02 0.0000000000000000e+00 -2.6966499264844714e+02 1.9121739130562819e+04 0.0000000000000000e+00 0.0000000000000000e+00 0.0000000000000000e+00 0.0000000000000000e+00  5.8877150684259743e+00 -7.9010171475889123e+01 0.0000000000000000e+00 -7.9010171475888967e+01 -2.9039651926514907e+01 0.0000000000000000e+00 0.0000000000000000e+00 0.0000000000000000e+00 0.0000000000000000e+00  1.2029398483280639e+02 2.0265465941237522e+02 0.0000000000000000e+00 2.0265465941237517e+02 1.3618014383648890e+02 0.0000000000000000e+00 0.0000000000000000e+00 0.0000000000000000e+00 0.0000000000000000e+00  -2.6021489082588555e+01 -2.6766650133804269e+01 0.0000000000000000e+00 -2.6766650133804248e+01 -1.2452105488698605e+01 0.0000000000000000e+00 0.0000000000000000e+00 0.0000000000000000e+00 0.0000000000000000e+00  9.6354374013310629e-01 6.0928618404136758e-01 0.0000000000000000e+00 6.0928618404136548e-01 3.0958906876524295e+00 0.0000000000000000e+00 0.0000000000000000e+00 0.0000000000000000e+00 0.0000000000000000e+00  -8.3687732111478006e+00 -8.5717087545889434e+00 0.0000000000000000e+00 -8.5717087545889417e+00 4.8017393417841403e-01 0.0000000000000000e+00 0.0000000000000000e+00 0.0000000000000000e+00 0.0000000000000000e+00  -2.1548609487276863e+01 -5.6649781139323316e+01 0.0000000000000000e+00 -5.6649781139323771e+01 1.3857177869025240e+03 0.0000000000000000e+00 0.0000000000000000e+00 0.0000000000000000e+00 0.0000000000000000e+00  -5.0923554407427264e+03 5.7156518296637560e+03 0.0000000000000000e+00 5.7156518296637505e+03 -7.6832957838775501e+03 0.0000000000000000e+00 0.0000000000000000e+00 0.0000000000000000e+00 0.0000000000000000e+00  -6.7854221699965537e+03 5.9881845834859723e+03 0.0000000000000000e+00 5.9881845834859732e+03 -3.3381757871270806e+03 0.0000000000000000e+00 0.0000000000000000e+00 0.0000000000000000e+00 0.0000000000000000e+00  -5.0143536539800862e+03 5.7311995618904184e+03 0.0000000000000000e+00 5.7311995618904211e+03 -6.8621552846870354e+03 0.0000000000000000e+00 0.0000000000000000e+00 0.0000000000000000e+00 0.0000000000000000e+00  -4.9934224621660369e+03 -5.8473364571154689e+03 0.0000000000000000e+00 -5.8473364571154725e+03 -6.4342861644097211e+03 0.0000000000000000e+00 0.0000000000000000e+00 0.0000000000000000e+00 0.0000000000000000e+00  -7.9251804554925029e+03 -6.2486197004524101e+03 0.0000000000000000e+00 -6.2486197004524092e+03 -6.5557495020634224e+03 0.0000000000000000e+00 0.0000000000000000e+00 0.0000000000000000e+00 0.0000000000000000e+00  -3.9445166865941364e+03 -4.7451891801796228e+03 0.0000000000000000e+00 -4.7451891801796164e+03 -4.5544239105586848e+03 0.0000000000000000e+00 0.0000000000000000e+00 0.0000000000000000e+00 0.0000000000000000e+00  6.5631570677443108e+01 -3.4492763365594931e+02 0.0000000000000000e+00 -3.4492763365595061e+02 7.8996765533526495e+03 0.0000000000000000e+00 0.0000000000000000e+00 0.0000000000000000e+00 0.0000000000000000e+00  -1.0455766119798086e+02 4.5058785674060921e+01 0.0000000000000000e+00 4.5058785674060928e+01 -4.3213709853487934e+01 0.0000000000000000e+00 0.0000000000000000e+00 0.0000000000000000e+00 0.0000000000000000e+00  3.4216011003174298e+00 1.0223908056296324e+01 0.0000000000000000e+00 1.0223908056296329e+01 6.3526781087071913e+02 0.0000000000000000e+00 0.0000000000000000e+00 0.0000000000000000e+00 0.0000000000000000e+00  1.4829111640215480e+00 -1.4592886390028433e+01 0.0000000000000000e+00 -1.4592886390028491e+01 6.4851964405147908e+02 0.0000000000000000e+00 0.0000000000000000e+00 0.0000000000000000e+00 0.0000000000000000e+00  6.1706653953792170e+01 -2.5824700316357196e+00 0.0000000000000000e+00 -2.5824700316356211e+00 -2.0324716118322307e+01 0.0000000000000000e+00 0.0000000000000000e+00 0.0000000000000000e+00 0.0000000000000000e+00  -1.1762807145205857e+01 -2.3305287365686440e+00 0.0000000000000000e+00 -2.3305287365686453e+00 -2.1420662536847495e+00 0.0000000000000000e+00 0.0000000000000000e+00 0.0000000000000000e+00 0.0000000000000000e+00  9.1405416846029264e-01 5.0383192464203352e-01 0.0000000000000000e+00 5.0383192464203319e-01 5.4237619450000119e-01 0.0000000000000000e+00 0.0000000000000000e+00 0.0000000000000000e+00 0.0000000000000000e+00  -1.9405331072722824e+01 1.4497255337464473e+01 0.0000000000000000e+00 1.4497255337464431e+01 -1.3704519990469619e+01 0.0000000000000000e+00 0.0000000000000000e+00 0.0000000000000000e+00 0.0000000000000000e+00  -4.3424990512570453e+01 -6.5880599448847136e+01 0.0000000000000000e+00 -6.5880599448847178e+01 1.9986489048089993e+01 0.0000000000000000e+00 0.0000000000000000e+00 0.0000000000000000e+00 0.0000000000000000e+00  4.8951880321978869e+01 6.6184294661478788e+01 0.0000000000000000e+00 6.6184294661478859e+01 -2.0697177914026636e+01 0.0000000000000000e+00 0.0000000000000000e+00 0.0000000000000000e+00 0.0000000000000000e+00  -1.3347778255966972e+01 -6.6842626492951666e+01 0.0000000000000000e+00 -6.6842626492951538e+01 -6.6402497028705866e+01 0.0000000000000000e+00 0.0000000000000000e+00 0.0000000000000000e+00 0.0000000000000000e+00  -1.7931446626760021e+02 -1.3732301359711315e+02 0.0000000000000000e+00 -1.3732301359711312e+02 -1.5905742151605071e+02 0.0000000000000000e+00 0.0000000000000000e+00 0.0000000000000000e+00 0.0000000000000000e+00  -4.6495339355402002e+01 -3.1115042143177984e+01 0.0000000000000000e+00 -3.1115042143178034e+01 -6.0528772456835913e+00 0.0000000000000000e+00 0.0000000000000000e+00 0.0000000000000000e+00 0.0000000000000000e+00  -1.2224313473209099e+00 -5.2198155605704122e-01 0.0000000000000000e+00 -5.2198155605703977e-01 1.6694908263231658e+00 0.0000000000000000e+00 0.0000000000000000e+00 0.0000000000000000e+00 0.0000000000000000e+00  -4.5441153134961798e+00 -1.8388454340061593e+00 0.0000000000000000e+00 -1.8388454340061564e+00 -3.8746200964230080e+00 0.0000000000000000e+00 0.0000000000000000e+00 0.0000000000000000e+00 0.0000000000000000e+00  -4.8632581752798005e+03 5.7010980648186242e+03 0.0000000000000000e+00 5.7010980648186160e+03 -6.8437402375815300e+03 0.0000000000000000e+00 0.0000000000000000e+00 0.0000000000000000e+00 0.0000000000000000e+00  -6.1983023709408944e+03 6.0332756878231721e+03 0.0000000000000000e+00 6.0332756878231730e+03 -3.7747044236509987e+03 0.0000000000000000e+00 0.0000000000000000e+00 0.0000000000000000e+00 0.0000000000000000e+00  -5.8900793795575610e+03 5.7504314754946745e+03 0.0000000000000000e+00 5.7504314754946718e+03 -7.2076696883027598e+03 0.0000000000000000e+00 0.0000000000000000e+00 0.0000000000000000e+00 0.0000000000000000e+00  -5.6844414913551566e+02 1.0820735087205691e+02 0.0000000000000000e+00 1.0820735087205749e+02 -1.2102135831817470e+04 0.0000000000000000e+00 0.0000000000000000e+00 0.0000000000000000e+00 0.0000000000000000e+00  -4.6921456910911329e+03 -5.7478132484931375e+03 0.0000000000000000e+00 -5.7478132484931375e+03 -5.9895237428441724e+03 0.0000000000000000e+00 0.0000000000000000e+00 0.0000000000000000e+00 0.0000000000000000e+00  -8.1759804848143349e+03 -6.3852635089286432e+03 0.0000000000000000e+00 -6.3852635089286441e+03 -5.9169991883652210e+03 0.0000000000000000e+00 0.0000000000000000e+00 0.0000000000000000e+00 0.0000000000000000e+00  -4.1714932153364152e+03 -4.7336585340310176e+03 0.0000000000000000e+00 -4.7336585340310139e+03 -5.8712956408106838e+03 0.0000000000000000e+00 0.0000000000000000e+00 0.0000000000000000e+00 0.0000000000000000e+00  -2.8446952853098860e+01 2.7373292445990121e+00 0.0000000000000000e+00 2.7373292445989232e+00 -1.8896067902880784e+01 0.0000000000000000e+00 0.0000000000000000e+00 0.0000000000000000e+00 0.0000000000000000e+00  5.8378396376238753e+00 5.1097224417519103e+00 0.0000000000000000e+00 5.1097224417518898e+00 6.4300557568591671e+02 0.0000000000000000e+00 0.0000000000000000e+00 0.0000000000000000e+00 0.0000000000000000e+00  1.5206304939914619e+02 1.2416862447243015e+02 0.0000000000000000e+00 1.2416862447243007e+02 7.6697516964429531e+02 0.0000000000000000e+00 0.0000000000000000e+00 0.0000000000000000e+00 0.0000000000000000e+00  -6.4933025615922134e+03 6.0282422303241801e+03 0.0000000000000000e+00 6.0282422303241801e+03 -5.5368923238525840e+03 0.0000000000000000e+00 0.0000000000000000e+00 0.0000000000000000e+00 0.0000000000000000e+00  -5.4131018201027555e+03 6.1912698497135298e+03 0.0000000000000000e+00 6.1912698497135261e+03 -8.1724173950582726e+03 0.0000000000000000e+00 0.0000000000000000e+00 0.0000000000000000e+00 0.0000000000000000e+00  -5.8556771683756870e+03 -5.8723391050706396e+03 0.0000000000000000e+00 -5.8723391050706432e+03 -5.7531363579181143e+03 0.0000000000000000e+00 0.0000000000000000e+00 0.0000000000000000e+00 0.0000000000000000e+00  -7.1679586111598701e+03 5.9804446264219569e+03 0.0000000000000000e+00 5.9804446264219632e+03 -4.0859396851178799e+03 0.0000000000000000e+00 0.0000000000000000e+00 0.0000000000000000e+00 0.0000000000000000e+00  -8.1700418284850557e+03 -5.8659694233298214e+03 0.0000000000000000e+00 -5.8659694233298160e+03 -8.2506552718474286e+03 0.0000000000000000e+00 0.0000000000000000e+00 0.0000000000000000e+00 0.0000000000000000e+00  -1.2528922667725897e+03 -1.2400963268525543e+03 0.0000000000000000e+00 -1.2400963268525559e+03 -9.5992638605972479e+02 0.0000000000000000e+00 0.0000000000000000e+00 0.0000000000000000e+00 0.0000000000000000e+00  -3.9049402612522053e+03 -6.0047103156866933e+03 0.0000000000000000e+00 -6.0047103156867015e+03 -3.2375658312796249e+03 0.0000000000000000e+00 0.0000000000000000e+00 0.0000000000000000e+00 0.0000000000000000e+00  -4.0490315400198074e+02 -4.6119751899899438e+02 0.0000000000000000e+00 -4.6119751899899518e+02 -9.4606229932710619e+02 0.0000000000000000e+00 0.0000000000000000e+00 0.0000000000000000e+00 0.0000000000000000e+00  3.7424652048391767e+03 3.1963634615299691e+02 0.0000000000000000e+00 3.1963634615299708e+02 1.6384914185174348e+04 0.0000000000000000e+00 0.0000000000000000e+00 0.0000000000000000e+00 0.0000000000000000e+00  -7.0557911981177608e+02 -6.2122968482401905e+02 0.0000000000000000e+00 -6.2122968482401825e+02 -3.7303146310376508e+02 0.0000000000000000e+00 0.0000000000000000e+00 0.0000000000000000e+00 0.0000000000000000e+00  -1.3847412284762843e+03 1.4579479627165024e+03 0.0000000000000000e+00 1.4579479627164997e+03 -1.2058342755186384e+03 0.0000000000000000e+00 0.0000000000000000e+00 0.0000000000000000e+00 0.0000000000000000e+00  -1.1978291883118920e+03 8.4247196177081571e+02 0.0000000000000000e+00 8.4247196177081514e+02 -6.3236652005500605e+02 0.0000000000000000e+00 0.0000000000000000e+00 0.0000000000000000e+00 0.0000000000000000e+00  4.3099849482826437e+02 -1.8839916816675276e+02 0.0000000000000000e+00 -1.8839916816675051e+02 -2.3534232268457652e+02 0.0000000000000000e+00 0.0000000000000000e+00 0.0000000000000000e+00 0.0000000000000000e+00  -4.4688981650021042e+03 -6.1322324578652097e+03 0.0000000000000000e+00 -6.1322324578652106e+03 -5.8677239621612980e+03 0.0000000000000000e+00 0.0000000000000000e+00 0.0000000000000000e+00 0.0000000000000000e+00  8.6607396875140876e+02 1.6492751575669949e+01 0.0000000000000000e+00 1.6492751575671001e+01 8.7764447595555393e+03 0.0000000000000000e+00 0.0000000000000000e+00 0.0000000000000000e+00 0.0000000000000000e+00  -6.7666093936411971e+03 -5.9000489246273191e+03 0.0000000000000000e+00 -5.9000489246273155e+03 -4.4899283462584262e+03 0.0000000000000000e+00 0.0000000000000000e+00 0.0000000000000000e+00 0.0000000000000000e+00  -4.5070224486987508e+03 6.0353253619347424e+03 0.0000000000000000e+00 6.0353253619347470e+03 -6.9797013653838148e+03 0.0000000000000000e+00 0.0000000000000000e+00 0.0000000000000000e+00 0.0000000000000000e+00  -5.8167754553098757e+03 -5.7667526338452535e+03 0.0000000000000000e+00 -5.7667526338452572e+03 -7.6206129673189844e+03 0.0000000000000000e+00 0.0000000000000000e+00 0.0000000000000000e+00 0.0000000000000000e+00  -6.1571035492387955e+03 5.9818149981322485e+03 0.0000000000000000e+00 5.9818149981322449e+03 -2.8811528563539887e+03 0.0000000000000000e+00 0.0000000000000000e+00 0.0000000000000000e+00 0.0000000000000000e+00  1.6823180069535185e+03 5.5080699033566925e+03 0.0000000000000000e+00 5.5080699033566925e+03 -6.8609228110117747e+03 0.0000000000000000e+00 0.0000000000000000e+00 0.0000000000000000e+00 0.0000000000000000e+00  -6.3676268962987160e+03 5.6933507447398961e+03 0.0000000000000000e+00 5.6933507447398997e+03 -8.2033903294856318e+03 0.0000000000000000e+00 0.0000000000000000e+00 0.0000000000000000e+00 0.0000000000000000e+00  -1.6686472922887628e+04 9.7011826218735514e+03 0.0000000000000000e+00 9.7011826218735514e+03 -1.9461564667228184e+04 0.0000000000000000e+00 0.0000000000000000e+00 0.0000000000000000e+00 0.0000000000000000e+00  -1.7923714732914391e+02 3.3737743578199564e+02 0.0000000000000000e+00 3.3737743578199854e+02 -1.2290576178297895e+04 0.0000000000000000e+00 0.0000000000000000e+00 0.0000000000000000e+00 0.0000000000000000e+00  -1.8111741017684406e+03 -1.3192647840536431e+03 0.0000000000000000e+00 -1.3192647840536433e+03 9.2505342294249713e+03 0.0000000000000000e+00 0.0000000000000000e+00 0.0000000000000000e+00 0.0000000000000000e+00  -4.1106320969660728e+03 -5.1078683221398060e+03 0.0000000000000000e+00 -5.1078683221398014e+03 -6.9494383996068455e+03 0.0000000000000000e+00 0.0000000000000000e+00 0.0000000000000000e+00 0.0000000000000000e+00  9.2938071016479068e+02 -9.4717573225514082e+02 0.0000000000000000e+00 -9.4717573225514047e+02 1.3339189779456676e+04 0.0000000000000000e+00 0.0000000000000000e+00 0.0000000000000000e+00 0.0000000000000000e+00  -1.1887536231651316e+04 -9.2108271610073771e+03 0.0000000000000000e+00 -9.2108271610073771e+03 -1.7182051453261229e+04 0.0000000000000000e+00 0.0000000000000000e+00 0.0000000000000000e+00 0.0000000000000000e+00  -1.3474912209746817e+03 1.5496919990283368e+02 0.0000000000000000e+00 1.5496919990282794e+02 7.4589858090078624e+03 0.0000000000000000e+00 0.0000000000000000e+00 0.0000000000000000e+00 0.0000000000000000e+00  -5.2388215504591335e+03 5.8842364685232296e+03 0.0000000000000000e+00 5.8842364685232342e+03 -4.8740132601646537e+03 0.0000000000000000e+00 0.0000000000000000e+00 0.0000000000000000e+00 0.0000000000000000e+00  -9.3883380538666934e+03 5.9572653814838668e+03 0.0000000000000000e+00 5.9572653814838613e+03 -1.0156668756211160e+04 0.0000000000000000e+00 0.0000000000000000e+00 0.0000000000000000e+00 0.0000000000000000e+00  -7.0918440021094757e+03 -6.0308264778077755e+03 0.0000000000000000e+00 -6.0308264778077701e+03 -6.2545317281603357e+03 0.0000000000000000e+00 0.0000000000000000e+00 0.0000000000000000e+00 0.0000000000000000e+00  -3.2334083980890705e+03 5.9139483924863898e+03 0.0000000000000000e+00 5.9139483924863898e+03 -1.9531321383311995e+03 0.0000000000000000e+00 0.0000000000000000e+00 0.0000000000000000e+00 0.0000000000000000e+00  -5.6816404786496923e+03 -6.0969861134032390e+03 0.0000000000000000e+00 -6.0969861134032399e+03 -7.5032687174807852e+03 0.0000000000000000e+00 0.0000000000000000e+00 0.0000000000000000e+00 0.0000000000000000e+00  -1.4866288717686366e+03 -1.3415255390307502e+03 0.0000000000000000e+00 -1.3415255390307489e+03 -1.1304795383734502e+03 0.0000000000000000e+00 0.0000000000000000e+00 0.0000000000000000e+00 0.0000000000000000e+00  -5.8901802181660951e+03 -6.1019662085414902e+03 0.0000000000000000e+00 -6.1019662085414911e+03 -3.7992572384880873e+03 0.0000000000000000e+00 0.0000000000000000e+00 0.0000000000000000e+00 0.0000000000000000e+00  1.3000181812398775e+03 9.8153915919803239e+02 0.0000000000000000e+00 9.8153915919803103e+02 5