<?xml version="1.0"?>
<VTKFile type="UnstructuredGrid"  version="0.1"  >
<UnstructuredGrid>
<Piece  NumberOfPoints="4855" NumberOfCells="8780">
<Points>
<DataArray  type="Float64"  NumberOfComponents="3"  format="ascii">0.9483880164242298 0.6836931311526558 0  0.9494264999197789 0.6847056440044139 0  0.9494005292759887 0.6847228078606633 0  0.9735520289385229 0.7444444444444445 0  0.9494005292759886 0.8041660810282256 0  0.94942649991978 0.8041832448844759 0  0.9483880175070514 0.8051957566534116 0  3.131175874138137e-16 0.09811450876034808 0  0.06838800723463068 0.1543033514199101 0  0.05161198249294494 0.1948042433465922 0  0.0505735000802211 0.1958167551155251 0  0.05059947072401128 0.1958339189717744 0  0.0505994707240113 0.3152771921393367 0  0.05057350008021998 0.315294355995587 0  0.05161198357913653 0.3163068688507105 0  0.06838800723463068 0.356807759691201 0  3.252606517456513e-16 0.4129966023507631 0  -1.795438797635995e-16 0.4839416311832997 0  0.07083274769489223 0.4605116403870998 0  0.07084991155114129 0.4605376110308903 0  0.07186242331670639 0.4594991286215342 0  0.1696402113702762 0.5 0  0.07186242332008326 0.5405008713818427 0  0.0708499115511413 0.5394623889691096 0  0.07083274769489219 0.5394883596129002 0  -1.925543058334256e-16 0.5160583688167003 0  1.484923295436147e-15 0.5870033976492365 0  0.06838800723463068 0.643192240308799 0  0.05161198249294541 0.6836931322354806 0  0.05057350008022109 0.6847056440044139 0  0.0505994707240113 0.6847228078606633 0  0.0505994707240113 0.8041660810282256 0  0.05057350008021999 0.804183244884476 0  0.05161198249294764 0.8051957566534106 0  0.06838800723463068 0.84569664858009 0  1.485790657174135e-15 0.9018854912396524 0  0 1 0  1 1 0  0.9999999999999987 0.9018854912396523 0  1.000000000000001 0.5870033976492375 0  1 0.5160583688167003 0  0.9291672523051078 0.5394883596129003 0  0.9291500884488585 0.5394623889691117 0  0.9281375755937461 0.5405008724680134 0  0.9281375755937372 0.4594991275319777 0  0.9291500884488586 0.4605376110308884 0  0.9291672523051077 0.4605116403870997 0  1 0.4839416311832997 0  0.9999999999999987 0.4129966023507635 0  0.948388017507054 0.31630686776452 0  0.94942649991978 0.3152943559955871 0  0.9494005292759886 0.3152771921393367 0  0.9735520289385229 0.2555555555555555 0  0.9494005292759888 0.1958339189717744 0  0.9494264999197789 0.1958167551155251 0  0.9483880164208631 0.1948042422604003 0  1.000000000000001 0.09811450876034861 0  1 0 0  0 0 0  0.1958339189717744 0.2950439151684559 0  0.1958167551155252 0.2950179445246672 0  0.3152771921393367 0.2950439151684557 0  0.1948042433481841 0.2960564269357975 0  0.3152943559955858 0.2950179445246651 0  0.1948042422604031 0.2150546830875326 0  0.3163068677645244 0.2960564269373949 0  0.1958167551155251 0.2160931665864439 0  0.4140846558147206 0.2555555555555555 0  0.1958339189717744 0.2160671959426553 0  0.3163068688489276 0.215054683089313 0  0.3152771921393367 0.2160671959426553 0  0.3152943559955858 0.2160931665864459 0  0.5405008724680257 0.3163068688507107 0  0.5572768961235196 0.356807759691201 0  0.5394623889691089 0.3152943559955871 0  0.459499128618165 0.3163068677645201 0  0.5394883596129003 0.3152771921393367 0  0.4605376110308911 0.3152943559955871 0  0.5394883596129001 0.1958339189717744 0  0.4605116403870998 0.3152771921393367 0  0.53946238896911 0.1958167551155251 0  0.4846631400496339 0.2555555555555555 0  0.5405008724680251 0.1948042422604009 0  0.4605116403870998 0.1958339189717744 0  0.5572768961235196 0.1543033514199101 0  0.46053761103089 0.1958167551155251 0  0.4594991286269881 0.1948042433554141 0  0.6847228078606633 0.2950439151684559 0  0.684705644004414 0.2950179445246672 0  0.8041660810282256 0.2950439151684557 0  0.683693131164073 0.2960564280087975 0  0.8041832448844747 0.2950179445246651 0  0.6836931322354718 0.2150546841737125 0  0.8051957566534156 0.2960564269373971 0  0.6847056440044141 0.2160931665864439 0  0.9029735447036096 0.2555555555555555 0  0.6847228078606632 0.2160671959426553 0  0.8051957577274008 0.2150546830997286 0  0.8041660810282256 0.2160671959426553 0  0.8041832448844747 0.2160931665864459 0  0.2960564280235811 0.560751313295155 0  0.3128324516790751 0.6012522041356455 0  0.2950179445246645 0.5597388004400315 0  0.2150546830875235 0.5607513132951615 0  0.2950439151684557 0.5597216365837812 0  0.2160931665864466 0.5597388004400314 0  0.2950439151684558 0.4402783634162188 0  0.2160671959426553 0.5597216365837812 0  0.2950179445246656 0.4402611995599696 0  0.2402186956051895 0.5 0  0.29605642693739 0.439248687791036 0  0.2160671959426553 0.4402783634162189 0  0.3128324516790751 0.3987477958643545 0  0.2160931665864455 0.4402611995599696 0  0.2150546830875296 0.4392486867048446 0  0.1958339189717743 0.7839328040573448 0  0.1958167551155252 0.7839068334135562 0  0.3152771921393367 0.7839328040573447 0  0.1948042422604028 0.7849453169124678 0  0.3152943559955858 0.783906833413554 0  0.1948042433465913 0.7039435730626098 0  0.3163068677645284 0.7849453158262878 0  0.1958167551155251 0.7049820554753328 0  0.4140846558147206 0.7444444444444445 0  0.1958339189717744 0.7049560848315441 0  0.3163068688486237 0.7039435719785058 0  0.3152771921393367 0.7049560848315441 0  0.3152943559955858 0.7049820554753349 0  0.4402783634162188 0.5394883596129003 0  0.4402611995599696 0.5394623889691117 0  0.5597216365837812 0.5394883596129002 0  0.4392486867048468 0.5405008724680237 0  0.5597388004400302 0.5394623889691096 0  0.4392486877998708 0.4594991286270004 0  0.5607513122089726 0.540500871381843 0  0.4402611995599696 0.4605376110308884 0  0.6585291002591651 0.5 0  0.4402783634162188 0.4605116403870998 0  0.5607513121946796 0.45949912863245 0  0.5597216365837812 0.4605116403870998 0  0.5597388004400302 0.4605376110308904 0  0.78494531690701 0.5607513132896949 0  0.8017213405679641 0.6012522041356455 0  0.7839068334135535 0.5597388004400315 0  0.7039435730626069 0.5607513122089671 0  0.7839328040573448 0.5597216365837812 0  0.7049820554753355 0.5597388004400314 0  0.7839328040573448 0.4402783634162188 0  0.7049560848315441 0.5597216365837812 0  0.7839068334135545 0.4402611995599696 0  0.7291075844940784 0.5 0  0.784945315826279 0.4392486877910359 0  0.7049560848315444 0.4402783634162188 0  0.8017213405679641 0.3987477958643545 0  0.7049820554753344 0.4402611995599696 0  0.7039435719764182 0.4392486867048443 0  0.5405008724625655 0.8051957577341393 0  0.5572768961235196 0.84569664858009 0  0.539462388969109 0.804183244884476 0  0.4594991286181648 0.8051957566534091 0  0.5394883596129003 0.8041660810282256 0  0.4605376110308911 0.804183244884476 0  0.5394883596129003 0.6847228078606633 0  0.4605116403870998 0.8041660810282256 0  0.53946238896911 0.6847056440044139 0  0.4846631400496339 0.7444444444444445 0  0.5405008713818347 0.6836931322354802 0  0.4605116403870998 0.6847228078606633 0  0.5572768961235196 0.643192240308799 0  0.46053761103089 0.6847056440044139 0  0.4594991275353449 0.6836931311526599 0  0.6847228078606633 0.7839328040573448 0  0.684705644004414 0.7839068334135562 0  0.8041660810282256 0.7839328040573447 0  0.6836931311493016 0.7849453169124578 0  0.8041832448844747 0.783906833413554 0  0.68369313223548 0.7039435730626096 0  0.805195756653417 0.7849453158262875 0  0.6847056440044141 0.7049820554753328 0  0.9029735447036096 0.7444444444444445 0  0.6847228078606633 0.7049560848315441 0  0.805195757738809 0.7039435719772094 0  0.8041660810282256 0.7049560848315441 0  0.8041832448844747 0.7049820554753349 0  0.9578164230213342 0.6948838683471341 0  0.9645772892192558 0.7062137009141434 0  0.9695236884064815 0.7184451175460498 0  0.972538971146615 0.7312896684428197 0  0.9725389711466151 0.7575992204460691 0  0.9695236884064815 0.7704437713428391 0  0.9645772892192558 0.7826751879747456 0  0.9578164230213342 0.7940050205417549 0  0.01437766570919127 0.09711967848259151 0  0.02854851642641832 0.09974531144948819 0  0.04161535472570586 0.1058251712658871 0  0.05275088139110013 0.1149743244732108 0  0.06125007411586489 0.1266135117968212 0  0.06657482449792251 0.1400058227212122 0  0.06643634307317195 0.1691277076584997 0  0.06071435336153361 0.1829418078690686 0  0.04134737123322858 0.3039103077764334 0  0.03416190609801732 0.2911362521989113 0  0.02925217947541549 0.2773267630846004 0  0.02676106927623143 0.2628837102534819 0  0.02676106927623143 0.2482274008576293 0  0.02925217947541547 0.2337843480265108 0  0.03416190609801727 0.2199748589121999 0  0.04134737123322851 0.2072008033346779 0  0.06071435387356935 0.328169304128914 0  0.06643634320569657 0.3419834039471998 0  0.06657482449792249 0.371105288389899 0  0.06125007411586481 0.3844975993142901 0  0.05275088139109994 0.3961367866379005 0  0.04161535472570563 0.4052859398452242 0  0.02854851642641818 0.411365799661623 0  0.01437766570919127 0.4139914326285196 0  0 0.4697526254167924 0  0 0.455563619650285 0  0 0.4413746138837777 0  0 0.4271856081172704 0  0.06095233986089402 0.4687284952262988 0  0.04995687430503332 0.4753797281664747 0  0.03809234373417287 0.4803165365228644 0  0.02562418374773841 0.4834284730529493 0  0.01283133446055119 0.4846459169037758 0  0.08372485599813187 0.4503967593658507 0  0.09753895276796982 0.4446747697099958 0  0.1123633055586467 0.4427231038764812 0  0.1271876590095525 0.4446747646950606 0  0.1410017577150834 0.45039674967774 0  0.1528641934757506 0.4594991149204779 0  0.161966560724962 0.471361549141524 0  0.1676885480442292 0.4851756468792086 0  0.1676885480443665 0.514824353120279 0  0.1619665607254926 0.528638450857557 0  0.1528641934768762 0.5405008850783964 0  0.1410017577169217 0.5496032503211987 0  0.1271876590121153 0.5553252353042526 0  0.1123633055618306 0.5572768961235188 0  0.09753895277155772 0.5553252302909656 0  0.08372485600180817 0.5496032406362719 0  0.0128313344605512 0.5153540830962242 0  0.0256241837477384 0.5165715269470507 0  0.03809234373417282 0.5196834634771356 0  0.04995687430503334 0.5246202718335253 0  0.06095233986089401
[...]
<PointData  Tensors="$\sigma$"> 
<DataArray  type="Float64"  Name="$\sigma$"  NumberOfComponents="9" format="ascii">-4.7412760303347659e+03 -5.7335526117777081e+03 0.0000000000000000e+00 -5.7335526117777108e+03 -6.4435614067724491e+03 0.0000000000000000e+00 0.0000000000000000e+00 0.0000000000000000e+00 0.0000000000000000e+00  -7.3172512106429940e+03 -6.0693031285549232e+03 0.0000000000000000e+00 -6.0693031285549196e+03 -5.5711116003577745e+03 0.0000000000000000e+00 0.0000000000000000e+00 0.0000000000000000e+00 0.0000000000000000e+00  -5.1867345343601783e+03 -5.9024713767158919e+03 0.0000000000000000e+00 -5.9024713767158910e+03 -6.0020648182451241e+03 0.0000000000000000e+00 0.0000000000000000e+00 0.0000000000000000e+00 0.0000000000000000e+00  -1.0463235544884208e+01 -3.5844008612416843e+02 0.0000000000000000e+00 -3.5844008612416866e+02 -1.1510952109203705e+04 0.0000000000000000e+00 0.0000000000000000e+00 0.0000000000000000e+00 0.0000000000000000e+00  -5.1648743468354060e+03 6.0776998589986333e+03 0.0000000000000000e+00 6.0776998589986470e+03 -6.7702988529502918e+03 0.0000000000000000e+00 0.0000000000000000e+00 0.0000000000000000e+00 0.0000000000000000e+00  -8.1514113496132959e+03 5.9453617840242914e+03 0.0000000000000000e+00 5.9453617840242896e+03 -6.0349090968356822e+03 0.0000000000000000e+00 0.0000000000000000e+00 0.0000000000000000e+00 0.0000000000000000e+00  -3.8081225127572770e+03 5.3145097115485778e+03 0.0000000000000000e+00 5.3145097115485760e+03 -5.0232690130263027e+03 0.0000000000000000e+00 0.0000000000000000e+00 0.0000000000000000e+00 0.0000000000000000e+00  7.6638426598207857e+01 4.1639874600307625e+00 0.0000000000000000e+00 4.1639874600307865e+00 3.1294957901096367e+01 0.0000000000000000e+00 0.0000000000000000e+00 0.0000000000000000e+00 0.0000000000000000e+00  -3.4452434513251994e+01 7.8222543488268997e+01 0.0000000000000000e+00 7.8222543488268698e+01 8.3062233531421916e+03 0.0000000000000000e+00 0.0000000000000000e+00 0.0000000000000000e+00 0.0000000000000000e+00  -4.2924558760954187e+03 4.7479071430178192e+03 0.0000000000000000e+00 4.7479071430178246e+03 -6.2376940874703123e+03 0.0000000000000000e+00 0.0000000000000000e+00 0.0000000000000000e+00 0.0000000000000000e+00  -7.4084618087418576e+03 6.2304315224507409e+03 0.0000000000000000e+00 6.2304315224507427e+03 -4.8357249231516798e+03 0.0000000000000000e+00 0.0000000000000000e+00 0.0000000000000000e+00 0.0000000000000000e+00  -5.1641393768471480e+03 5.8694340179588744e+03 0.0000000000000000e+00 5.8694340179588744e+03 -6.4991978264356285e+03 0.0000000000000000e+00 0.0000000000000000e+00 0.0000000000000000e+00 0.0000000000000000e+00  -4.7174583467530792e+03 -5.9062300451392375e+03 0.0000000000000000e+00 -5.9062300451392412e+03 -5.6472765014198221e+03 0.0000000000000000e+00 0.0000000000000000e+00 0.0000000000000000e+00 0.0000000000000000e+00  -8.7341084820638644e+03 -6.0448206010478825e+03 0.0000000000000000e+00 -6.0448206010478943e+03 -5.9338940184324765e+03 0.0000000000000000e+00 0.0000000000000000e+00 0.0000000000000000e+00 0.0000000000000000e+00  -3.6169396053372052e+03 -5.7124516273201707e+03 0.0000000000000000e+00 -5.7124516273201571e+03 -6.3653960041794317e+03 0.0000000000000000e+00 0.0000000000000000e+00 0.0000000000000000e+00 0.0000000000000000e+00  3.4266880563111567e+02 -9.7927650395940846e-01 0.0000000000000000e+00 -9.7927650395869903e-01 1.0935357725454185e+03 0.0000000000000000e+00 0.0000000000000000e+00 0.0000000000000000e+00 0.0000000000000000e+00  3.6846646628169060e+00 3.2988700956229549e+00 0.0000000000000000e+00 3.2988700956229584e+00 -8.0413420826253006e+00 0.0000000000000000e+00 0.0000000000000000e+00 0.0000000000000000e+00 0.0000000000000000e+00  -3.6255419501750974e+00 1.1139090294706955e+00 0.0000000000000000e+00 1.1139090294706966e+00 3.6201410654913415e+00 0.0000000000000000e+00 0.0000000000000000e+00 0.0000000000000000e+00 0.0000000000000000e+00  -4.4666345381343163e+01 3.3399687728406633e+01 0.0000000000000000e+00 3.3399687728406619e+01 -1.7495668072754174e+01 0.0000000000000000e+00 0.0000000000000000e+00 0.0000000000000000e+00 0.0000000000000000e+00  -3.2011150140391021e+02 2.1136920186485563e+02 0.0000000000000000e+00 2.1136920186485557e+02 -2.3982667047302823e+02 0.0000000000000000e+00 0.0000000000000000e+00 0.0000000000000000e+00 0.0000000000000000e+00  8.2064198232549117e+01 3.4608965249018766e+01 0.0000000000000000e+00 3.4608965249018745e+01 -1.6787239044973798e+01 0.0000000000000000e+00 0.0000000000000000e+00 0.0000000000000000e+00 0.0000000000000000e+00  6.7180110066809166e+03 -3.1260509642754135e+02 0.0000000000000000e+00 -3.1260509642754124e+02 1.9648176301014497e+04 0.0000000000000000e+00 0.0000000000000000e+00 0.0000000000000000e+00 0.0000000000000000e+00  1.9003170403306701e+01 -7.1265333302813090e+01 0.0000000000000000e+00 -7.1265333302812962e+01 -2.4418257687999052e+01 0.0000000000000000e+00 0.0000000000000000e+00 0.0000000000000000e+00 0.0000000000000000e+00  1.0984482780662778e+02 1.9966331219215539e+02 0.0000000000000000e+00 1.9966331219215539e+02 1.3715047770730399e+02 0.0000000000000000e+00 0.0000000000000000e+00 0.0000000000000000e+00 0.0000000000000000e+00  -2.7801518843756913e+01 -3.0199248206080345e+01 0.0000000000000000e+00 -3.0199248206080323e+01 -1.7029158106785253e+01 0.0000000000000000e+00 0.0000000000000000e+00 0.0000000000000000e+00 0.0000000000000000e+00  -8.7572175719788092e-02 5.1861657633074698e-01 0.0000000000000000e+00 5.1861657633074454e-01 2.7936161798312207e+00 0.0000000000000000e+00 0.0000000000000000e+00 0.0000000000000000e+00 0.0000000000000000e+00  -9.4718413399400756e+00 -8.6659263216885201e+00 0.0000000000000000e+00 -8.6659263216885183e+00 -2.7830788732851514e-01 0.0000000000000000e+00 0.0000000000000000e+00 0.0000000000000000e+00 0.0000000000000000e+00  -3.5120066667165744e+01 -8.8434453990310715e+01 0.0000000000000000e+00 -8.8434453990310757e+01 1.2057779596727055e+03 0.0000000000000000e+00 0.0000000000000000e+00 0.0000000000000000e+00 0.0000000000000000e+00  -4.8633832201132482e+03 5.6741129381320143e+03 0.0000000000000000e+00 5.6741129381320034e+03 -6.8265642885941597e+03 0.0000000000000000e+00 0.0000000000000000e+00 0.0000000000000000e+00 0.0000000000000000e+00  -7.0912920830997537e+03 6.0987834189995883e+03 0.0000000000000000e+00 6.0987834189995892e+03 -4.4084727190641006e+03 0.0000000000000000e+00 0.0000000000000000e+00 0.0000000000000000e+00 0.0000000000000000e+00  -5.1359327375520361e+03 5.7996240374719982e+03 0.0000000000000000e+00 5.7996240374720046e+03 -6.8226849345460341e+03 0.0000000000000000e+00 0.0000000000000000e+00 0.0000000000000000e+00 0.0000000000000000e+00  -5.4264807824001355e+03 -6.1034892672682581e+03 0.0000000000000000e+00 -6.1034892672682672e+03 -6.8760990088309782e+03 0.0000000000000000e+00 0.0000000000000000e+00 0.0000000000000000e+00 0.0000000000000000e+00  -7.5776053200509268e+03 -6.0300462363739198e+03 0.0000000000000000e+00 -6.0300462363739171e+03 -5.9632557798874113e+03 0.0000000000000000e+00 0.0000000000000000e+00 0.0000000000000000e+00 0.0000000000000000e+00  -3.9045302643862096e+03 -4.9464445294266361e+03 0.0000000000000000e+00 -4.9464445294266388e+03 -4.7286386172930452e+03 0.0000000000000000e+00 0.0000000000000000e+00 0.0000000000000000e+00 0.0000000000000000e+00  5.5614610281712203e+01 -3.5123537992561654e+02 0.0000000000000000e+00 -3.5123537992561836e+02 7.9740599890104950e+03 0.0000000000000000e+00 0.0000000000000000e+00 0.0000000000000000e+00 0.0000000000000000e+00  -1.1045123956838374e+02 4.7173650402872070e+01 0.0000000000000000e+00 4.7173650402872092e+01 -4.4212789015964141e+01 0.0000000000000000e+00 0.0000000000000000e+00 0.0000000000000000e+00 0.0000000000000000e+00  2.1990289143300670e+00 1.1185127069897051e+01 0.0000000000000000e+00 1.1185127069897066e+01 6.4538916038794162e+02 0.0000000000000000e+00 0.0000000000000000e+00 0.0000000000000000e+00 0.0000000000000000e+00  1.3425507270918680e-01 -1.5700250699183007e+01 0.0000000000000000e+00 -1.5700250699183050e+01 6.5664118037849664e+02 0.0000000000000000e+00 0.0000000000000000e+00 0.0000000000000000e+00 0.0000000000000000e+00  6.8818401175160758e+01 -2.5134170385343766e+00 0.0000000000000000e+00 -2.5134170385341981e+00 -2.1287805981686237e+01 0.0000000000000000e+00 0.0000000000000000e+00 0.0000000000000000e+00 0.0000000000000000e+00  -1.4451780823919730e+01 -2.5526675241237684e+00 0.0000000000000000e+00 -2.5526675241237711e+00 -1.2110045632234192e+00 0.0000000000000000e+00 0.0000000000000000e+00 0.0000000000000000e+00 0.0000000000000000e+00  7.7016265030999709e-01 7.5851699038426756e-01 0.0000000000000000e+00 7.5851699038426790e-01 -5.0926034198866460e-02 0.0000000000000000e+00 0.0000000000000000e+00 0.0000000000000000e+00 0.0000000000000000e+00  -1.7863865622643903e+01 8.6978296462938118e+00 0.0000000000000000e+00 8.6978296462937674e+00 -8.9986922566172947e+00 0.0000000000000000e+00 0.0000000000000000e+00 0.0000000000000000e+00 0.0000000000000000e+00  -4.7798256493614133e+01 -6.6697295358741044e+01 0.0000000000000000e+00 -6.6697295358741101e+01 2.1473734806186854e+01 0.0000000000000000e+00 0.0000000000000000e+00 0.0000000000000000e+00 0.0000000000000000e+00  6.0791902623224864e+01 6.3550301412895820e+01 0.0000000000000000e+00 6.3550301412895884e+01 -1.8302034581832686e+01 0.0000000000000000e+00 0.0000000000000000e+00 0.0000000000000000e+00 0.0000000000000000e+00  -1.4127258746448360e+01 -6.7931446450811606e+01 0.0000000000000000e+00 -6.7931446450811507e+01 -6.3995636156117264e+01 0.0000000000000000e+00 0.0000000000000000e+00 0.0000000000000000e+00 0.0000000000000000e+00  -2.0087511630347404e+02 -1.5793177564888884e+02 0.0000000000000000e+00 -1.5793177564888884e+02 -1.7923782345092445e+02 0.0000000000000000e+00 0.0000000000000000e+00 0.0000000000000000e+00 0.0000000000000000e+00  -4.6903928685340013e+01 -3.1795504607076008e+01 0.0000000000000000e+00 -3.1795504607076055e+01 -1.0044255905573083e+01 0.0000000000000000e+00 0.0000000000000000e+00 0.0000000000000000e+00 0.0000000000000000e+00  -5.0901424328848000e-01 -1.9341347816785309e-01 0.0000000000000000e+00 -1.9341347816785132e-01 3.2011494086960108e+00 0.0000000000000000e+00 0.0000000000000000e+00 0.0000000000000000e+00 0.0000000000000000e+00  -3.7706159134476485e+00 -1.4751482421476232e+00 0.0000000000000000e+00 -1.4751482421476223e+00 -3.7656419462496435e+00 0.0000000000000000e+00 0.0000000000000000e+00 0.0000000000000000e+00 0.0000000000000000e+00  -4.9886516407541749e+03 5.7146467280283896e+03 0.0000000000000000e+00 5.7146467280283750e+03 -6.5001721693548507e+03 0.0000000000000000e+00 0.0000000000000000e+00 0.0000000000000000e+00 0.0000000000000000e+00  -6.6712423851812991e+03 6.0851723016335854e+03 0.0000000000000000e+00 6.0851723016335864e+03 -4.8304394060108361e+03 0.0000000000000000e+00 0.0000000000000000e+00 0.0000000000000000e+00 0.0000000000000000e+00  -5.5415237741612345e+03 5.8409050052755938e+03 0.0000000000000000e+00 5.8409050052755965e+03 -6.6928624312832389e+03 0.0000000000000000e+00 0.0000000000000000e+00 0.0000000000000000e+00 0.0000000000000000e+00  -3.8393760561372000e+02 -1.6535202617009528e+01 0.0000000000000000e+00 -1.6535202617009102e+01 -1.1887256648555265e+04 0.0000000000000000e+00 0.0000000000000000e+00 0.0000000000000000e+00 0.0000000000000000e+00  -5.0240389482623905e+03 -6.0248601858047450e+03 0.0000000000000000e+00 -6.0248601858047377e+03 -6.1570558000828596e+03 0.0000000000000000e+00 0.0000000000000000e+00 0.0000000000000000e+00 0.0000000000000000e+00  -7.6848205619283417e+03 -6.1638762814070560e+03 0.0000000000000000e+00 -6.1638762814070642e+03 -5.3458383755989971e+03 0.0000000000000000e+00 0.0000000000000000e+00 0.0000000000000000e+00 0.0000000000000000e+00  -4.4334016108595197e+03 -4.9895847583402146e+03 0.0000000000000000e+00 -4.9895847583402119e+03 -6.3559533748095373e+03 0.0000000000000000e+00 0.0000000000000000e+00 0.0000000000000000e+00 0.0000000000000000e+00  -2.2684810710173402e+01 -4.4801895642998407e-01 0.0000000000000000e+00 -4.4801895643009410e-01 -2.1425753430562967e+01 0.0000000000000000e+00 0.0000000000000000e+00 0.0000000000000000e+00 0.0000000000000000e+00  7.0724077636798652e+00 4.3397948349835822e+00 0.0000000000000000e+00 4.3397948349835689e+00 6.5285925535746844e+02 0.0000000000000000e+00 0.0000000000000000e+00 0.0000000000000000e+00 0.0000000000000000e+00  1.5263556616279743e+02 1.2503483204700917e+02 0.0000000000000000e+00 1.2503483204700927e+02 7.7792009765424291e+02 0.0000000000000000e+00 0.0000000000000000e+00 0.0000000000000000e+00 0.0000000000000000e+00  -6.4188150177522894e+03 6.0926882415438158e+03 0.0000000000000000e+00 6.0926882415438113e+03 -5.7575502820193315e+03 0.0000000000000000e+00 0.0000000000000000e+00 0.0000000000000000e+00 0.0000000000000000e+00  -5.0581088513611548e+03 6.2718495315017499e+03 0.0000000000000000e+00 6.2718495315017526e+03 -7.7502995779955500e+03 0.0000000000000000e+00 0.0000000000000000e+00 0.0000000000000000e+00 0.0000000000000000e+00  -6.2718953675785278e+03 -5.9008713588035998e+03 0.0000000000000000e+00 -5.9008713588036080e+03 -5.6174449098947316e+03 0.0000000000000000e+00 0.0000000000000000e+00 0.0000000000000000e+00 0.0000000000000000e+00  -7.5776608953591813e+03 5.9604326426163343e+03 0.0000000000000000e+00 5.9604326426163407e+03 -4.2444502369439679e+03 0.0000000000000000e+00 0.0000000000000000e+00 0.0000000000000000e+00 0.0000000000000000e+00  -8.0567514450040671e+03 -5.8541711883076914e+03 0.0000000000000000e+00 -5.8541711883076778e+03 -8.6586967023288835e+03 0.0000000000000000e+00 0.0000000000000000e+00 0.0000000000000000e+00 0.0000000000000000e+00  -1.2659353305814743e+03 -1.2671154302172990e+03 0.0000000000000000e+00 -1.2671154302173020e+03 -9.8493958551406035e+02 0.0000000000000000e+00 0.0000000000000000e+00 0.0000000000000000e+00 0.0000000000000000e+00  -3.8995031136107505e+03 -6.1497774410988995e+03 0.0000000000000000e+00 -6.1497774410989132e+03 -3.1571973911873574e+03 0.0000000000000000e+00 0.0000000000000000e+00 0.0000000000000000e+00 0.0000000000000000e+00  -4.4887916941920093e+02 -5.1226110311857462e+02 0.0000000000000000e+00 -5.1226110311857337e+02 -1.0190635839469867e+03 0.0000000000000000e+00 0.0000000000000000e+00 0.0000000000000000e+00 0.0000000000000000e+00  3.8564466398173568e+03 3.3978166135294265e+02 0.0000000000000000e+00 3.3978166135294310e+02 1.6601130322405301e+04 0.0000000000000000e+00 0.0000000000000000e+00 0.0000000000000000e+00 0.0000000000000000e+00  -7.3412172172618739e+02 -6.2725994274377138e+02 0.0000000000000000e+00 -6.2725994274377092e+02 -3.5860070494131446e+02 0.0000000000000000e+00 0.0000000000000000e+00 0.0000000000000000e+00 0.0000000000000000e+00  -1.4671753750806231e+03 1.5172270703902816e+03 0.0000000000000000e+00 1.5172270703902809e+03 -1.2436385607855732e+03 0.0000000000000000e+00 0.0000000000000000e+00 0.0000000000000000e+00 0.0000000000000000e+00  -1.1993811833566674e+03 8.4587794580685079e+02 0.0000000000000000e+00 8.4587794580685011e+02 -6.3558066739386220e+02 0.0000000000000000e+00 0.0000000000000000e+00 0.0000000000000000e+00 0.0000000000000000e+00  5.4084848588983334e+02 -2.7642672195640006e+02 0.0000000000000000e+00 -2.7642672195639943e+02 -1.6863434386147921e+02 0.0000000000000000e+00 0.0000000000000000e+00 0.0000000000000000e+00 0.0000000000000000e+00  -4.2090722794346457e+03 -6.0844627169770720e+03 0.0000000000000000e+00 -6.0844627169770711e+03 -5.5821382375079766e+03 0.0000000000000000e+00 0.0000000000000000e+00 0.0000000000000000e+00 0.0000000000000000e+00  9.3749574181589173e+02 5.0551414350993753e+01 0.0000000000000000e+00 5.0551414350994065e+01 9.4021621985011116e+03 0.0000000000000000e+00 0.0000000000000000e+00 0.0000000000000000e+00 0.0000000000000000e+00  -7.5577694040476708e+03 -5.9781270995225505e+03 0.0000000000000000e+00 -5.9781270995225486e+03 -5.4996091240959504e+03 0.0000000000000000e+00 0.0000000000000000e+00 0.0000000000000000e+00 0.0000000000000000e+00  -4.3016575689573665e+03 5.9125094119495934e+03 0.0000000000000000e+00 5.9125094119495980e+03 -6.5515158270882766e+03 0.0000000000000000e+00 0.0000000000000000e+00 0.0000000000000000e+00 0.0000000000000000e+00  -5.4532056233717576e+03 -5.8408018845031456e+03 0.0000000000000000e+00 -5.8408018845031474e+03 -7.0637579345269260e+03 0.0000000000000000e+00 0.0000000000000000e+00 0.0000000000000000e+00 0.0000000000000000e+00  -6.6903079146474556e+03 6.1251410098683064e+03 0.0000000000000000e+00 6.1251410098683036e+03 -4.0051037282870407e+03 0.0000000000000000e+00 0.0000000000000000e+00 0.0000000000000000e+00 0.0000000000000000e+00  2.1164673858481160e+03 5.5991055087144568e+03 0.0000000000000000e+00 5.5991055087144559e+03 -6.8748061953906235e+03 0.0000000000000000e+00 0.0000000000000000e+00 0.0000000000000000e+00 0.0000000000000000e+00  -6.1873684769939518e+03 5.7686048146779913e+03 0.0000000000000000e+00 5.7686048146779958e+03 -7.6859587400927358e+03 0.0000000000000000e+00 0.0000000000000000e+00 0.0000000000000000e+00 0.0000000000000000e+00  -1.7129285878232578e+04 9.7320922879698355e+03 0.0000000000000000e+00 9.7320922879698373e+03 -1.9666385755242201e+04 0.0000000000000000e+00 0.0000000000000000e+00 0.0000000000000000e+00 0.0000000000000000e+00  -2.7735686762571822e+02 3.9320193980539420e+02 0.0000000000000000e+00 3.9320193980539671e+02 -1.2190772736519160e+04 0.0000000000000000e+00 0.0000000000000000e+00 0.0000000000000000e+00 0.0000000000000000e+00  -1.8783168523082149e+03 -1.1671618242483937e+03 0.0000000000000000e+00 -1.1671618242483942e+03 9.2980784352197079e+03 0.0000000000000000e+00 0.0000000000000000e+00 0.0000000000000000e+00 0.0000000000000000e+00  -4.8859498657827180e+03 -6.0130210052207976e+03 0.0000000000000000e+00 -6.0130210052207949e+03 -7.6027087883598742e+03 0.0000000000000000e+00 0.0000000000000000e+00 0.0000000000000000e+00 0.0000000000000000e+00  9.6871298539895702e+02 -1.0338506326303000e+03 0.0000000000000000e+00 -1.0338506326302977e+03 1.3440669799678921e+04 0.0000000000000000e+00 0.0000000000000000e+00 0.0000000000000000e+00 0.0000000000000000e+00  -1.1261417102290266e+04 -8.8664373584768855e+03 0.0000000000000000e+00 -8.8664373584768855e+03 -1.7277995501424299e+04 0.0000000000000000e+00 0.0000000000000000e+00 0.0000000000000000e+00 0.0000000000000000e+00  -1.5156938049314190e+03 9.3339273913832955e+01 0.0000000000000000e+00 9.3339273913824897e+01 8.0474337903254191e+03 0.0000000000000000e+00 0.0000000000000000e+00 0.0000000000000000e+00 0.0000000000000000e+00  -5.3408860082008869e+03 5.9117945654120786e+03 0.0000000000000000e+00 5.9117945654120858e+03 -4.4506639345382264e+03 0.0000000000000000e+00 0.0000000000000000e+00 0.0000000000000000e+00 0.0000000000000000e+00  -9.9932644865841867e+03 5.9671161979767794e+03 0.0000000000000000e+00 5.9671161979767776e+03 -1.1467842304226941e+04 0.0000000000000000e+00 0.0000000000000000e+00 0.0000000000000000e+00 0.0000000000000000e+00  -6.7739280794486067e+03 -6.0619966727076608e+03 0.0000000000000000e+00 -6.0619966727076626e+03 -5.8240083490665493e+03 0.0000000000000000e+00 0.0000000000000000e+00 0.0000000000000000e+00 0.0000000000000000e+00  -2.9943655629437017e+03 6.0586791888142488e+03 0.0000000000000000e+00 6.0586791888142488e+03 -1.4269538659098612e+03 0.0000000000000000e+00 0.0000000000000000e+00 0.0000000000000000e+00 0.0000000000000000e+00  -6.6705606525098747e+03 -6.1970876623517888e+03 0.0000000000000000e+00 -6.1970876623517861e+03 -8.6916778313006780e+03 0.0000000000000000e+00 0.0000000000000000e+00 0.0000000000000000e+00 0.0000000000000000e+00  -1.4837054581388788e+03 -1.3456563788716078e+03 0.0000000000000000e+00 -1.3456563788716069e+03 -1.1330028939018878e+03 0.0000000000000000e+00 0.0000000000000000e+00 0.0000000000000000e+00 0.0000000000000000e+00  -5.3066399932837985e+03 -6.0963784613354183e+03 0.0000000000000000e+00 -6.0963784613354192e+03 -3.0331104606232193e+03 0.0000000000000000e+00 0.0000000000000000e+00 0.0000000000000000e+00 0.0000000000000000e+00  1.3453625751776617e+03 1.0183370141498594e+03 0.0000000000000000e+00 1.018337014149858