<?xml version="1.0"?>
<VTKFile type="UnstructuredGrid"  version="0.1"  >
<UnstructuredGrid>
<Piece  NumberOfPoints="4855" NumberOfCells="8780">
<Points>
<DataArray  type="Float64"  NumberOfComponents="3"  format="ascii">0.9483880164242298 0.6836931311526558 0  0.9494264999197789 0.6847056440044139 0  0.9494005292759887 0.6847228078606633 0  0.9735520289385229 0.7444444444444445 0  0.9494005292759886 0.8041660810282256 0  0.94942649991978 0.8041832448844759 0  0.9483880175070514 0.8051957566534116 0  3.131175874138137e-16 0.09811450876034808 0  0.06838800723463068 0.1543033514199101 0  0.05161198249294494 0.1948042433465922 0  0.0505735000802211 0.1958167551155251 0  0.05059947072401128 0.1958339189717744 0  0.0505994707240113 0.3152771921393367 0  0.05057350008021998 0.315294355995587 0  0.05161198357913653 0.3163068688507105 0  0.06838800723463068 0.356807759691201 0  3.252606517456513e-16 0.4129966023507631 0  -1.795438797635995e-16 0.4839416311832997 0  0.07083274769489223 0.4605116403870998 0  0.07084991155114129 0.4605376110308903 0  0.07186242331670639 0.4594991286215342 0  0.1696402113702762 0.5 0  0.07186242332008326 0.5405008713818427 0  0.0708499115511413 0.5394623889691096 0  0.07083274769489219 0.5394883596129002 0  -1.925543058334256e-16 0.5160583688167003 0  1.484923295436147e-15 0.5870033976492365 0  0.06838800723463068 0.643192240308799 0  0.05161198249294541 0.6836931322354806 0  0.05057350008022109 0.6847056440044139 0  0.0505994707240113 0.6847228078606633 0  0.0505994707240113 0.8041660810282256 0  0.05057350008021999 0.804183244884476 0  0.05161198249294764 0.8051957566534106 0  0.06838800723463068 0.84569664858009 0  1.485790657174135e-15 0.9018854912396524 0  0 1 0  1 1 0  0.9999999999999987 0.9018854912396523 0  1.000000000000001 0.5870033976492375 0  1 0.5160583688167003 0  0.9291672523051078 0.5394883596129003 0  0.9291500884488585 0.5394623889691117 0  0.9281375755937461 0.5405008724680134 0  0.9281375755937372 0.4594991275319777 0  0.9291500884488586 0.4605376110308884 0  0.9291672523051077 0.4605116403870997 0  1 0.4839416311832997 0  0.9999999999999987 0.4129966023507635 0  0.948388017507054 0.31630686776452 0  0.94942649991978 0.3152943559955871 0  0.9494005292759886 0.3152771921393367 0  0.9735520289385229 0.2555555555555555 0  0.9494005292759888 0.1958339189717744 0  0.9494264999197789 0.1958167551155251 0  0.9483880164208631 0.1948042422604003 0  1.000000000000001 0.09811450876034861 0  1 0 0  0 0 0  0.1958339189717744 0.2950439151684559 0  0.1958167551155252 0.2950179445246672 0  0.3152771921393367 0.2950439151684557 0  0.1948042433481841 0.2960564269357975 0  0.3152943559955858 0.2950179445246651 0  0.1948042422604031 0.2150546830875326 0  0.3163068677645244 0.2960564269373949 0  0.1958167551155251 0.2160931665864439 0  0.4140846558147206 0.2555555555555555 0  0.1958339189717744 0.2160671959426553 0  0.3163068688489276 0.215054683089313 0  0.3152771921393367 0.2160671959426553 0  0.3152943559955858 0.2160931665864459 0  0.5405008724680257 0.3163068688507107 0  0.5572768961235196 0.356807759691201 0  0.5394623889691089 0.3152943559955871 0  0.459499128618165 0.3163068677645201 0  0.5394883596129003 0.3152771921393367 0  0.4605376110308911 0.3152943559955871 0  0.5394883596129001 0.1958339189717744 0  0.4605116403870998 0.3152771921393367 0  0.53946238896911 0.1958167551155251 0  0.4846631400496339 0.2555555555555555 0  0.5405008724680251 0.1948042422604009 0  0.4605116403870998 0.1958339189717744 0  0.5572768961235196 0.1543033514199101 0  0.46053761103089 0.1958167551155251 0  0.4594991286269881 0.1948042433554141 0  0.6847228078606633 0.2950439151684559 0  0.684705644004414 0.2950179445246672 0  0.8041660810282256 0.2950439151684557 0  0.683693131164073 0.2960564280087975 0  0.8041832448844747 0.2950179445246651 0  0.6836931322354718 0.2150546841737125 0  0.8051957566534156 0.2960564269373971 0  0.6847056440044141 0.2160931665864439 0  0.9029735447036096 0.2555555555555555 0  0.6847228078606632 0.2160671959426553 0  0.8051957577274008 0.2150546830997286 0  0.8041660810282256 0.2160671959426553 0  0.8041832448844747 0.2160931665864459 0  0.2960564280235811 0.560751313295155 0  0.3128324516790751 0.6012522041356455 0  0.2950179445246645 0.5597388004400315 0  0.2150546830875235 0.5607513132951615 0  0.2950439151684557 0.5597216365837812 0  0.2160931665864466 0.5597388004400314 0  0.2950439151684558 0.4402783634162188 0  0.2160671959426553 0.5597216365837812 0  0.2950179445246656 0.4402611995599696 0  0.2402186956051895 0.5 0  0.29605642693739 0.439248687791036 0  0.2160671959426553 0.4402783634162189 0  0.3128324516790751 0.3987477958643545 0  0.2160931665864455 0.4402611995599696 0  0.2150546830875296 0.4392486867048446 0  0.1958339189717743 0.7839328040573448 0  0.1958167551155252 0.7839068334135562 0  0.3152771921393367 0.7839328040573447 0  0.1948042422604028 0.7849453169124678 0  0.3152943559955858 0.783906833413554 0  0.1948042433465913 0.7039435730626098 0  0.3163068677645284 0.7849453158262878 0  0.1958167551155251 0.7049820554753328 0  0.4140846558147206 0.7444444444444445 0  0.1958339189717744 0.7049560848315441 0  0.3163068688486237 0.7039435719785058 0  0.3152771921393367 0.7049560848315441 0  0.3152943559955858 0.7049820554753349 0  0.4402783634162188 0.5394883596129003 0  0.4402611995599696 0.5394623889691117 0  0.5597216365837812 0.5394883596129002 0  0.4392486867048468 0.5405008724680237 0  0.5597388004400302 0.5394623889691096 0  0.4392486877998708 0.4594991286270004 0  0.5607513122089726 0.540500871381843 0  0.4402611995599696 0.4605376110308884 0  0.6585291002591651 0.5 0  0.4402783634162188 0.4605116403870998 0  0.5607513121946796 0.45949912863245 0  0.5597216365837812 0.4605116403870998 0  0.5597388004400302 0.4605376110308904 0  0.78494531690701 0.5607513132896949 0  0.8017213405679641 0.6012522041356455 0  0.7839068334135535 0.5597388004400315 0  0.7039435730626069 0.5607513122089671 0  0.7839328040573448 0.5597216365837812 0  0.7049820554753355 0.5597388004400314 0  0.7839328040573448 0.4402783634162188 0  0.7049560848315441 0.5597216365837812 0  0.7839068334135545 0.4402611995599696 0  0.7291075844940784 0.5 0  0.784945315826279 0.4392486877910359 0  0.7049560848315444 0.4402783634162188 0  0.8017213405679641 0.3987477958643545 0  0.7049820554753344 0.4402611995599696 0  0.7039435719764182 0.4392486867048443 0  0.5405008724625655 0.8051957577341393 0  0.5572768961235196 0.84569664858009 0  0.539462388969109 0.804183244884476 0  0.4594991286181648 0.8051957566534091 0  0.5394883596129003 0.8041660810282256 0  0.4605376110308911 0.804183244884476 0  0.5394883596129003 0.6847228078606633 0  0.4605116403870998 0.8041660810282256 0  0.53946238896911 0.6847056440044139 0  0.4846631400496339 0.7444444444444445 0  0.5405008713818347 0.6836931322354802 0  0.4605116403870998 0.6847228078606633 0  0.5572768961235196 0.643192240308799 0  0.46053761103089 0.6847056440044139 0  0.4594991275353449 0.6836931311526599 0  0.6847228078606633 0.7839328040573448 0  0.684705644004414 0.7839068334135562 0  0.8041660810282256 0.7839328040573447 0  0.6836931311493016 0.7849453169124578 0  0.8041832448844747 0.783906833413554 0  0.68369313223548 0.7039435730626096 0  0.805195756653417 0.7849453158262875 0  0.6847056440044141 0.7049820554753328 0  0.9029735447036096 0.7444444444444445 0  0.6847228078606633 0.7049560848315441 0  0.805195757738809 0.7039435719772094 0  0.8041660810282256 0.7049560848315441 0  0.8041832448844747 0.7049820554753349 0  0.9578164230213342 0.6948838683471341 0  0.9645772892192558 0.7062137009141434 0  0.9695236884064815 0.7184451175460498 0  0.972538971146615 0.7312896684428197 0  0.9725389711466151 0.7575992204460691 0  0.9695236884064815 0.7704437713428391 0  0.9645772892192558 0.7826751879747456 0  0.9578164230213342 0.7940050205417549 0  0.01437766570919127 0.09711967848259151 0  0.02854851642641832 0.09974531144948819 0  0.04161535472570586 0.1058251712658871 0  0.05275088139110013 0.1149743244732108 0  0.06125007411586489 0.1266135117968212 0  0.06657482449792251 0.1400058227212122 0  0.06643634307317195 0.1691277076584997 0  0.06071435336153361 0.1829418078690686 0  0.04134737123322858 0.3039103077764334 0  0.03416190609801732 0.2911362521989113 0  0.02925217947541549 0.2773267630846004 0  0.02676106927623143 0.2628837102534819 0  0.02676106927623143 0.2482274008576293 0  0.02925217947541547 0.2337843480265108 0  0.03416190609801727 0.2199748589121999 0  0.04134737123322851 0.2072008033346779 0  0.06071435387356935 0.328169304128914 0  0.06643634320569657 0.3419834039471998 0  0.06657482449792249 0.371105288389899 0  0.06125007411586481 0.3844975993142901 0  0.05275088139109994 0.3961367866379005 0  0.04161535472570563 0.4052859398452242 0  0.02854851642641818 0.411365799661623 0  0.01437766570919127 0.4139914326285196 0  0 0.4697526254167924 0  0 0.455563619650285 0  0 0.4413746138837777 0  0 0.4271856081172704 0  0.06095233986089402 0.4687284952262988 0  0.04995687430503332 0.4753797281664747 0  0.03809234373417287 0.4803165365228644 0  0.02562418374773841 0.4834284730529493 0  0.01283133446055119 0.4846459169037758 0  0.08372485599813187 0.4503967593658507 0  0.09753895276796982 0.4446747697099958 0  0.1123633055586467 0.4427231038764812 0  0.1271876590095525 0.4446747646950606 0  0.1410017577150834 0.45039674967774 0  0.1528641934757506 0.4594991149204779 0  0.161966560724962 0.471361549141524 0  0.1676885480442292 0.4851756468792086 0  0.1676885480443665 0.514824353120279 0  0.1619665607254926 0.528638450857557 0  0.1528641934768762 0.5405008850783964 0  0.1410017577169217 0.5496032503211987 0  0.1271876590121153 0.5553252353042526 0  0.1123633055618306 0.5572768961235188 0  0.09753895277155772 0.5553252302909656 0  0.08372485600180817 0.5496032406362719 0  0.0128313344605512 0.5153540830962242 0  0.0256241837477384 0.5165715269470507 0  0.03809234373417282 0.5196834634771356 0  0.04995687430503334 0.5246202718335253 0  0.06095233986089401
[...]
<PointData  Tensors="$\sigma$"> 
<DataArray  type="Float64"  Name="$\sigma$"  NumberOfComponents="9" format="ascii">-4.9809718340449863e+03 -5.7249507694378553e+03 0.0000000000000000e+00 -5.7249507694378572e+03 -6.8539816355086705e+03 0.0000000000000000e+00 0.0000000000000000e+00 0.0000000000000000e+00 0.0000000000000000e+00  -6.8744745759431216e+03 -6.0547961062760187e+03 0.0000000000000000e+00 -6.0547961062760205e+03 -4.7934505368050241e+03 0.0000000000000000e+00 0.0000000000000000e+00 0.0000000000000000e+00 0.0000000000000000e+00  -5.1860676473039894e+03 -5.8148161894901505e+03 0.0000000000000000e+00 -5.8148161894901514e+03 -6.2279771779324165e+03 0.0000000000000000e+00 0.0000000000000000e+00 0.0000000000000000e+00 0.0000000000000000e+00  -1.8537597523952607e+02 -4.1430071260275372e+02 0.0000000000000000e+00 -4.1430071260275452e+02 -1.1634706975056231e+04 0.0000000000000000e+00 0.0000000000000000e+00 0.0000000000000000e+00 0.0000000000000000e+00  -4.8857112211538188e+03 5.9244732989689137e+03 0.0000000000000000e+00 5.9244732989689264e+03 -6.5568151822857944e+03 0.0000000000000000e+00 0.0000000000000000e+00 0.0000000000000000e+00 0.0000000000000000e+00  -8.4154885858447233e+03 6.1095473184256798e+03 0.0000000000000000e+00 6.1095473184256771e+03 -6.4440489571654953e+03 0.0000000000000000e+00 0.0000000000000000e+00 0.0000000000000000e+00 0.0000000000000000e+00  -3.7702736266704987e+03 5.0956644478741700e+03 0.0000000000000000e+00 5.0956644478741709e+03 -4.7986204240060388e+03 0.0000000000000000e+00 0.0000000000000000e+00 0.0000000000000000e+00 0.0000000000000000e+00  6.9859237875501933e+01 3.6194509765323337e+00 0.0000000000000000e+00 3.6194509765323581e+00 2.8474433436053012e+01 0.0000000000000000e+00 0.0000000000000000e+00 0.0000000000000000e+00 0.0000000000000000e+00  -2.1998626244979032e+01 7.7953206821058060e+01 0.0000000000000000e+00 7.7953206821058060e+01 8.2813408253761299e+03 0.0000000000000000e+00 0.0000000000000000e+00 0.0000000000000000e+00 0.0000000000000000e+00  -4.1186114828611071e+03 4.6089058640749936e+03 0.0000000000000000e+00 4.6089058640749945e+03 -5.8928375945486387e+03 0.0000000000000000e+00 0.0000000000000000e+00 0.0000000000000000e+00 0.0000000000000000e+00  -7.8286788233278185e+03 6.3905449571489498e+03 0.0000000000000000e+00 6.3905449571489471e+03 -5.4593801820250656e+03 0.0000000000000000e+00 0.0000000000000000e+00 0.0000000000000000e+00 0.0000000000000000e+00  -4.8766297380756996e+03 5.6763328533828817e+03 0.0000000000000000e+00 5.6763328533828872e+03 -6.2068580274361566e+03 0.0000000000000000e+00 0.0000000000000000e+00 0.0000000000000000e+00 0.0000000000000000e+00  -4.8649051560330618e+03 -5.7950333334412062e+03 0.0000000000000000e+00 -5.7950333334412080e+03 -6.3274902701048095e+03 0.0000000000000000e+00 0.0000000000000000e+00 0.0000000000000000e+00 0.0000000000000000e+00  -8.2984743386906484e+03 -5.9815865409740209e+03 0.0000000000000000e+00 -5.9815865409740281e+03 -4.8038883539913450e+03 0.0000000000000000e+00 0.0000000000000000e+00 0.0000000000000000e+00 0.0000000000000000e+00  -3.7396053723629320e+03 -5.7791056157752728e+03 0.0000000000000000e+00 -5.7791056157752591e+03 -6.7775453951280952e+03 0.0000000000000000e+00 0.0000000000000000e+00 0.0000000000000000e+00 0.0000000000000000e+00  3.2781931502876944e+02 -1.5268089184218516e+01 0.0000000000000000e+00 -1.5268089184218272e+01 1.1983879078322432e+03 0.0000000000000000e+00 0.0000000000000000e+00 0.0000000000000000e+00 0.0000000000000000e+00  2.5524541743062343e+00 2.3780328592980484e+00 0.0000000000000000e+00 2.3780328592980511e+00 -8.0344740366806420e+00 0.0000000000000000e+00 0.0000000000000000e+00 0.0000000000000000e+00 0.0000000000000000e+00  -2.5674968441606509e+00 8.6355235036778599e-01 0.0000000000000000e+00 8.6355235036778666e-01 3.4335055051768695e+00 0.0000000000000000e+00 0.0000000000000000e+00 0.0000000000000000e+00 0.0000000000000000e+00  -3.9856922584367354e+01 3.1283867922443577e+01 0.0000000000000000e+00 3.1283867922443559e+01 -1.6517344063377298e+01 0.0000000000000000e+00 0.0000000000000000e+00 0.0000000000000000e+00 0.0000000000000000e+00  -2.3750583359365129e+02 1.3633926752887081e+02 0.0000000000000000e+00 1.3633926752887081e+02 -1.6334577087328631e+02 0.0000000000000000e+00 0.0000000000000000e+00 0.0000000000000000e+00 0.0000000000000000e+00  6.4269192673711430e+01 4.3725949093476146e+01 0.0000000000000000e+00 4.3725949093476117e+01 -2.7173639257125075e+01 0.0000000000000000e+00 0.0000000000000000e+00 0.0000000000000000e+00 0.0000000000000000e+00  6.3615376250622803e+03 -2.7939550639765275e+02 0.0000000000000000e+00 -2.7939550639765167e+02 1.9272185253588363e+04 0.0000000000000000e+00 0.0000000000000000e+00 0.0000000000000000e+00 0.0000000000000000e+00  9.4810291424099606e+00 -7.7083026975904090e+01 0.0000000000000000e+00 -7.7083026975903977e+01 -2.7808848341955485e+01 0.0000000000000000e+00 0.0000000000000000e+00 0.0000000000000000e+00 0.0000000000000000e+00  1.1844361103582187e+02 2.0288562350584860e+02 0.0000000000000000e+00 2.0288562350584857e+02 1.3724494437788323e+02 0.0000000000000000e+00 0.0000000000000000e+00 0.0000000000000000e+00 0.0000000000000000e+00  -2.6467768225918313e+01 -2.7549827136954221e+01 0.0000000000000000e+00 -2.7549827136954200e+01 -1.3467281528582104e+01 0.0000000000000000e+00 0.0000000000000000e+00 0.0000000000000000e+00 0.0000000000000000e+00  7.6518664713335138e-01 6.0781617073786975e-01 0.0000000000000000e+00 6.0781617073786776e-01 3.0709690590712571e+00 0.0000000000000000e+00 0.0000000000000000e+00 0.0000000000000000e+00 0.0000000000000000e+00  -8.6886598737079233e+00 -8.6155874497244280e+00 0.0000000000000000e+00 -8.6155874497244262e+00 3.0034301860038798e-01 0.0000000000000000e+00 0.0000000000000000e+00 0.0000000000000000e+00 0.0000000000000000e+00  -2.4337871894771581e+01 -6.4018207674723271e+01 0.0000000000000000e+00 -6.4018207674723698e+01 1.3347407978246317e+03 0.0000000000000000e+00 0.0000000000000000e+00 0.0000000000000000e+00 0.0000000000000000e+00  -5.0236483872656099e+03 5.6784302014901432e+03 0.0000000000000000e+00 5.6784302014901332e+03 -7.4797195370734398e+03 0.0000000000000000e+00 0.0000000000000000e+00 0.0000000000000000e+00 0.0000000000000000e+00  -6.8709586590791887e+03 6.0236848047997682e+03 0.0000000000000000e+00 6.0236848047997710e+03 -3.6258399635881788e+03 0.0000000000000000e+00 0.0000000000000000e+00 0.0000000000000000e+00 0.0000000000000000e+00  -5.0451547685867527e+03 5.7578176576640353e+03 0.0000000000000000e+00 5.7578176576640399e+03 -6.8040033578152015e+03 0.0000000000000000e+00 0.0000000000000000e+00 0.0000000000000000e+00 0.0000000000000000e+00  -5.1082026768391233e+03 -5.9403490843958007e+03 0.0000000000000000e+00 -5.9403490843957998e+03 -6.5619973211131928e+03 0.0000000000000000e+00 0.0000000000000000e+00 0.0000000000000000e+00 0.0000000000000000e+00  -7.8312237763098610e+03 -6.1777352599288997e+03 0.0000000000000000e+00 -6.1777352599289043e+03 -6.3909806278402202e+03 0.0000000000000000e+00 0.0000000000000000e+00 0.0000000000000000e+00 0.0000000000000000e+00  -3.9471668692902131e+03 -4.8062571590687994e+03 0.0000000000000000e+00 -4.8062571590687949e+03 -4.6118135728581428e+03 0.0000000000000000e+00 0.0000000000000000e+00 0.0000000000000000e+00 0.0000000000000000e+00  6.1946599553338416e+01 -3.4690577723612034e+02 0.0000000000000000e+00 -3.4690577723612171e+02 7.9197314310484780e+03 0.0000000000000000e+00 0.0000000000000000e+00 0.0000000000000000e+00 0.0000000000000000e+00  -1.0614537948392342e+02 4.5605327917856613e+01 0.0000000000000000e+00 4.5605327917856570e+01 -4.3494523626562767e+01 0.0000000000000000e+00 0.0000000000000000e+00 0.0000000000000000e+00 0.0000000000000000e+00  3.1508771820105625e+00 1.0460429034782486e+01 0.0000000000000000e+00 1.0460429034782489e+01 6.3829481220356672e+02 0.0000000000000000e+00 0.0000000000000000e+00 0.0000000000000000e+00 0.0000000000000000e+00  1.1512658401102183e+00 -1.4889667840794111e+01 0.0000000000000000e+00 -1.4889667840794150e+01 6.5080514039782463e+02 0.0000000000000000e+00 0.0000000000000000e+00 0.0000000000000000e+00 0.0000000000000000e+00  6.3674843790734705e+01 -2.5636932707912363e+00 0.0000000000000000e+00 -2.5636932707911120e+00 -2.0525009639849458e+01 0.0000000000000000e+00 0.0000000000000000e+00 0.0000000000000000e+00 0.0000000000000000e+00  -1.2440548238874863e+01 -2.4135259098764927e+00 0.0000000000000000e+00 -2.4135259098764914e+00 -1.9400034034408364e+00 0.0000000000000000e+00 0.0000000000000000e+00 0.0000000000000000e+00 0.0000000000000000e+00  8.9144021479673596e-01 5.5300030175902759e-01 0.0000000000000000e+00 5.5300030175902759e-01 4.1184866552364163e-01 0.0000000000000000e+00 0.0000000000000000e+00 0.0000000000000000e+00 0.0000000000000000e+00  -1.9091167524837989e+01 1.3084658588004325e+01 0.0000000000000000e+00 1.3084658588004274e+01 -1.2615337757888536e+01 0.0000000000000000e+00 0.0000000000000000e+00 0.0000000000000000e+00 0.0000000000000000e+00  -4.4687787454124823e+01 -6.6108943101461691e+01 0.0000000000000000e+00 -6.6108943101461719e+01 2.0129979936839749e+01 0.0000000000000000e+00 0.0000000000000000e+00 0.0000000000000000e+00 0.0000000000000000e+00  5.2084275879068102e+01 6.5609497155291479e+01 0.0000000000000000e+00 6.5609497155291550e+01 -1.9855363570709226e+01 0.0000000000000000e+00 0.0000000000000000e+00 0.0000000000000000e+00 0.0000000000000000e+00  -1.3538321349806049e+01 -6.7120641915598100e+01 0.0000000000000000e+00 -6.7120641915597986e+01 -6.6010890266758068e+01 0.0000000000000000e+00 0.0000000000000000e+00 0.0000000000000000e+00 0.0000000000000000e+00  -1.8552204862603099e+02 -1.4328668032347238e+02 0.0000000000000000e+00 -1.4328668032347241e+02 -1.6478144254650721e+02 0.0000000000000000e+00 0.0000000000000000e+00 0.0000000000000000e+00 0.0000000000000000e+00  -4.6748430243355863e+01 -3.1407937573971644e+01 0.0000000000000000e+00 -3.1407937573971683e+01 -7.0809544334747878e+00 0.0000000000000000e+00 0.0000000000000000e+00 0.0000000000000000e+00 0.0000000000000000e+00  -1.0850231345110446e+00 -4.5444749423365727e-01 0.0000000000000000e+00 -4.5444749423365521e-01 2.0230660893292107e+00 0.0000000000000000e+00 0.0000000000000000e+00 0.0000000000000000e+00 0.0000000000000000e+00  -4.3708196289223915e+00 -1.7768211359492638e+00 0.0000000000000000e+00 -1.7768211359492609e+00 -3.8569325620128074e+00 0.0000000000000000e+00 0.0000000000000000e+00 0.0000000000000000e+00 0.0000000000000000e+00  -4.8847319611156363e+03 5.7014910420648321e+03 0.0000000000000000e+00 5.7014910420648212e+03 -6.7466708910819661e+03 0.0000000000000000e+00 0.0000000000000000e+00 0.0000000000000000e+00 0.0000000000000000e+00  -6.3635638771430440e+03 6.0483480393418831e+03 0.0000000000000000e+00 6.0483480393418804e+03 -4.0789992807847416e+03 0.0000000000000000e+00 0.0000000000000000e+00 0.0000000000000000e+00 0.0000000000000000e+00  -5.7713769113512471e+03 5.7702451588415170e+03 0.0000000000000000e+00 5.7702451588415197e+03 -7.0488321237628816e+03 0.0000000000000000e+00 0.0000000000000000e+00 0.0000000000000000e+00 0.0000000000000000e+00  -5.5544440358810152e+02 9.4867827012546044e+01 0.0000000000000000e+00 9.4867827012546414e+01 -1.2037126321029353e+04 0.0000000000000000e+00 0.0000000000000000e+00 0.0000000000000000e+00 0.0000000000000000e+00  -4.7815134495231086e+03 -5.8331419140805556e+03 0.0000000000000000e+00 -5.8331419140805556e+03 -6.0470426358516715e+03 0.0000000000000000e+00 0.0000000000000000e+00 0.0000000000000000e+00 0.0000000000000000e+00  -8.0486583448690672e+03 -6.3210355414190317e+03 0.0000000000000000e+00 -6.3210355414190335e+03 -5.7561173615598218e+03 0.0000000000000000e+00 0.0000000000000000e+00 0.0000000000000000e+00 0.0000000000000000e+00  -4.2391059267172623e+03 -4.8008443563481205e+03 0.0000000000000000e+00 -4.8008443563481160e+03 -5.9985332103768915e+03 0.0000000000000000e+00 0.0000000000000000e+00 0.0000000000000000e+00 0.0000000000000000e+00  -2.6992935654123961e+01 1.8908565217287250e+00 0.0000000000000000e+00 1.8908565217286235e+00 -1.9549871935189991e+01 0.0000000000000000e+00 0.0000000000000000e+00 0.0000000000000000e+00 0.0000000000000000e+00  6.1375823993322713e+00 4.9375765406860097e+00 0.0000000000000000e+00 4.9375765406859911e+00 6.4586343561319541e+02 0.0000000000000000e+00 0.0000000000000000e+00 0.0000000000000000e+00 0.0000000000000000e+00  1.5219341711804168e+02 1.2440031802021922e+02 0.0000000000000000e+00 1.2440031802021912e+02 7.7016166179119216e+02 0.0000000000000000e+00 0.0000000000000000e+00 0.0000000000000000e+00 0.0000000000000000e+00  -6.4845442013278316e+03 6.0467981766563544e+03 0.0000000000000000e+00 6.0467981766563516e+03 -5.6308183169977810e+03 0.0000000000000000e+00 0.0000000000000000e+00 0.0000000000000000e+00 0.0000000000000000e+00  -5.2372009223071536e+03 6.2135256870583498e+03 0.0000000000000000e+00 6.2135256870583462e+03 -7.9665929226773587e+03 0.0000000000000000e+00 0.0000000000000000e+00 0.0000000000000000e+00 0.0000000000000000e+00  -5.9550234533968096e+03 -5.8868495149542550e+03 0.0000000000000000e+00 -5.8868495149542596e+03 -5.7443810481812307e+03 0.0000000000000000e+00 0.0000000000000000e+00 0.0000000000000000e+00 0.0000000000000000e+00  -7.3454461597563186e+03 5.9719629215163213e+03 0.0000000000000000e+00 5.9719629215163286e+03 -4.1927289746228416e+03 0.0000000000000000e+00 0.0000000000000000e+00 0.0000000000000000e+00 0.0000000000000000e+00  -8.2262013903471616e+03 -5.8556343793514789e+03 0.0000000000000000e+00 -5.8556343793514770e+03 -8.4105870429337356e+03 0.0000000000000000e+00 0.0000000000000000e+00 0.0000000000000000e+00 0.0000000000000000e+00  -1.2563530955611145e+03 -1.2474053206960195e+03 0.0000000000000000e+00 -1.2474053206960223e+03 -9.6681304416670775e+02 0.0000000000000000e+00 0.0000000000000000e+00 0.0000000000000000e+00 0.0000000000000000e+00  -3.8226649721652298e+03 -6.0499806593215690e+03 0.0000000000000000e+00 -6.0499806593215681e+03 -3.1261535400407838e+03 0.0000000000000000e+00 0.0000000000000000e+00 0.0000000000000000e+00 0.0000000000000000e+00  -4.1463841984137952e+02 -4.7272064756110706e+02 0.0000000000000000e+00 -4.7272064756110706e+02 -9.6352786264880092e+02 0.0000000000000000e+00 0.0000000000000000e+00 0.0000000000000000e+00 0.0000000000000000e+00  3.7686813848643014e+03 3.2488030945481529e+02 0.0000000000000000e+00 3.2488030945481518e+02 1.6438956271384021e+04 0.0000000000000000e+00 0.0000000000000000e+00 0.0000000000000000e+00 0.0000000000000000e+00  -7.1332747733968324e+02 -6.2298343666406129e+02 0.0000000000000000e+00 -6.2298343666406049e+02 -3.6917257392288849e+02 0.0000000000000000e+00 0.0000000000000000e+00 0.0000000000000000e+00 0.0000000000000000e+00  -1.4042547841957264e+03 1.4723022098134093e+03 0.0000000000000000e+00 1.4723022098134079e+03 -1.2159882301051296e+03 0.0000000000000000e+00 0.0000000000000000e+00 0.0000000000000000e+00 0.0000000000000000e+00  -1.1995949640797435e+03 8.4389523594305251e+02 0.0000000000000000e+00 8.4389523594305206e+02 -6.3295070568072299e+02 0.0000000000000000e+00 0.0000000000000000e+00 0.0000000000000000e+00 0.0000000000000000e+00  4.4971714438713968e+02 -2.0177474450694478e+02 0.0000000000000000e+00 -2.0177474450694331e+02 -2.2675923404545790e+02 0.0000000000000000e+00 0.0000000000000000e+00 0.0000000000000000e+00 0.0000000000000000e+00  -4.4116949689021458e+03 -6.1187037358275838e+03 0.0000000000000000e+00 -6.1187037358275811e+03 -5.7731655939929324e+03 0.0000000000000000e+00 0.0000000000000000e+00 0.0000000000000000e+00 0.0000000000000000e+00  8.8180140165816715e+02 2.7053994282259758e+01 0.0000000000000000e+00 2.7053994282260469e+01 8.9450913766492013e+03 0.0000000000000000e+00 0.0000000000000000e+00 0.0000000000000000e+00 0.0000000000000000e+00  -6.9816524823721520e+03 -5.9210134798705885e+03 0.0000000000000000e+00 -5.9210134798705876e+03 -4.7750117766949807e+03 0.0000000000000000e+00 0.0000000000000000e+00 0.0000000000000000e+00 0.0000000000000000e+00  -4.4859917017242133e+03 5.9964593231231129e+03 0.0000000000000000e+00 5.9964593231231220e+03 -6.8356009172462473e+03 0.0000000000000000e+00 0.0000000000000000e+00 0.0000000000000000e+00 0.0000000000000000e+00  -5.6967421302909634e+03 -5.7850466255190904e+03 0.0000000000000000e+00 -5.7850466255190913e+03 -7.4572622289309684e+03 0.0000000000000000e+00 0.0000000000000000e+00 0.0000000000000000e+00 0.0000000000000000e+00  -6.2740017468218648e+03 6.0248575149606304e+03 0.0000000000000000e+00 6.0248575149606249e+03 -3.1813844591809047e+03 0.0000000000000000e+00 0.0000000000000000e+00 0.0000000000000000e+00 0.0000000000000000e+00  1.7780657635706555e+03 5.5679092508621652e+03 0.0000000000000000e+00 5.5679092508621670e+03 -6.9184181934718417e+03 0.0000000000000000e+00 0.0000000000000000e+00 0.0000000000000000e+00 0.0000000000000000e+00  -6.3078065533794752e+03 5.7059514384015210e+03 0.0000000000000000e+00 5.7059514384015247e+03 -8.0651730986389948e+03 0.0000000000000000e+00 0.0000000000000000e+00 0.0000000000000000e+00 0.0000000000000000e+00  -1.6764231248331998e+04 9.6801645718611799e+03 0.0000000000000000e+00 9.6801645718611799e+03 -1.9463664230430320e+04 0.0000000000000000e+00 0.0000000000000000e+00 0.0000000000000000e+00 0.0000000000000000e+00  -2.1858017476530620e+02 3.5498020699127505e+02 0.0000000000000000e+00 3.5498020699127807e+02 -1.2281665086866196e+04 0.0000000000000000e+00 0.0000000000000000e+00 0.0000000000000000e+00 0.0000000000000000e+00  -1.8490782922842316e+03 -1.2500287528157544e+03 0.0000000000000000e+00 -1.2500287528157548e+03 9.2589573584627215e+03 0.0000000000000000e+00 0.0000000000000000e+00 0.0000000000000000e+00 0.0000000000000000e+00  -4.2905768331349973e+03 -5.4201437699068256e+03 0.0000000000000000e+00 -5.4201437699068210e+03 -7.1982079609410985e+03 0.0000000000000000e+00 0.0000000000000000e+00 0.0000000000000000e+00 0.0000000000000000e+00  9.4275485688338404e+02 -9.7024030206001021e+02 0.0000000000000000e+00 -9.7024030206000975e+02 1.3368399278916613e+04 0.0000000000000000e+00 0.0000000000000000e+00 0.0000000000000000e+00 0.0000000000000000e+00  -1.1736470260004469e+04 -9.0788090002886802e+03 0.0000000000000000e+00 -9.0788090002886820e+03 -1.7180627597603205e+04 0.0000000000000000e+00 0.0000000000000000e+00 0.0000000000000000e+00 0.0000000000000000e+00  -1.4197564864167023e+03 1.1850621873152613e+02 0.0000000000000000e+00 1.1850621873151937e+02 7.6458054761925996e+03 0.0000000000000000e+00 0.0000000000000000e+00 0.0000000000000000e+00 0.0000000000000000e+00  -5.2365130795784953e+03 5.9009722587879078e+03 0.0000000000000000e+00 5.9009722587879087e+03 -4.7071904116784244e+03 0.0000000000000000e+00 0.0000000000000000e+00 0.0000000000000000e+00 0.0000000000000000e+00  -9.6919407773383209e+03 5.9492744458516327e+03 0.0000000000000000e+00 5.9492744458516299e+03 -1.0649235293551881e+04 0.0000000000000000e+00 0.0000000000000000e+00 0.0000000000000000e+00 0.0000000000000000e+00  -7.0126402999824559e+03 -6.0403920301308517e+03 0.0000000000000000e+00 -6.0403920301308453e+03 -6.1618437644816377e+03 0.0000000000000000e+00 0.0000000000000000e+00 0.0000000000000000e+00 0.0000000000000000e+00  -3.0245300955003181e+03 5.9645798244607431e+03 0.0000000000000000e+00 5.9645798244607422e+03 -1.6682097276828372e+03 0.0000000000000000e+00 0.0000000000000000e+00 0.0000000000000000e+00 0.0000000000000000e+00  -5.8665974962850978e+03 -6.1239564125643119e+03 0.0000000000000000e+00 -6.1239564125643155e+03 -7.7362041981791563e+03 0.0000000000000000e+00 0.0000000000000000e+00 0.0000000000000000e+00 0.0000000000000000e+00  -1.4844680779857467e+03 -1.3422444183799093e+03 0.0000000000000000e+00 -1.3422444183799073e+03 -1.1314864618032607e+03 0.0000000000000000e+00 0.0000000000000000e+00 0.0000000000000000e+00 0.0000000000000000e+00  -5.7957132996052424e+03 -6.0965930000558710e+03 0.0000000000000000e+00 -6.0965930000558710e+03 -3.6436700645001119e+03 0.0000000000000000e+00 0.0000000000000000e+00 0.0000000000000000e+00 0.0000000000000000e+00  1.3155880332890774e+03 9.9598531880491839e+02 0.0000000000000000e+00 9.9598531880491680e+02 5