<?xml version="1.0"?>
<VTKFile type="UnstructuredGrid"  version="0.1"  >
<UnstructuredGrid>
<Piece  NumberOfPoints="4855" NumberOfCells="8780">
<Points>
<DataArray  type="Float64"  NumberOfComponents="3"  format="ascii">0.9483880164242298 0.6836931311526558 0  0.9494264999197789 0.6847056440044139 0  0.9494005292759887 0.6847228078606633 0  0.9735520289385229 0.7444444444444445 0  0.9494005292759886 0.8041660810282256 0  0.94942649991978 0.8041832448844759 0  0.9483880175070514 0.8051957566534116 0  3.131175874138137e-16 0.09811450876034808 0  0.06838800723463068 0.1543033514199101 0  0.05161198249294494 0.1948042433465922 0  0.0505735000802211 0.1958167551155251 0  0.05059947072401128 0.1958339189717744 0  0.0505994707240113 0.3152771921393367 0  0.05057350008021998 0.315294355995587 0  0.05161198357913653 0.3163068688507105 0  0.06838800723463068 0.356807759691201 0  3.252606517456513e-16 0.4129966023507631 0  -1.795438797635995e-16 0.4839416311832997 0  0.07083274769489223 0.4605116403870998 0  0.07084991155114129 0.4605376110308903 0  0.07186242331670639 0.4594991286215342 0  0.1696402113702762 0.5 0  0.07186242332008326 0.5405008713818427 0  0.0708499115511413 0.5394623889691096 0  0.07083274769489219 0.5394883596129002 0  -1.925543058334256e-16 0.5160583688167003 0  1.484923295436147e-15 0.5870033976492365 0  0.06838800723463068 0.643192240308799 0  0.05161198249294541 0.6836931322354806 0  0.05057350008022109 0.6847056440044139 0  0.0505994707240113 0.6847228078606633 0  0.0505994707240113 0.8041660810282256 0  0.05057350008021999 0.804183244884476 0  0.05161198249294764 0.8051957566534106 0  0.06838800723463068 0.84569664858009 0  1.485790657174135e-15 0.9018854912396524 0  0 1 0  1 1 0  0.9999999999999987 0.9018854912396523 0  1.000000000000001 0.5870033976492375 0  1 0.5160583688167003 0  0.9291672523051078 0.5394883596129003 0  0.9291500884488585 0.5394623889691117 0  0.9281375755937461 0.5405008724680134 0  0.9281375755937372 0.4594991275319777 0  0.9291500884488586 0.4605376110308884 0  0.9291672523051077 0.4605116403870997 0  1 0.4839416311832997 0  0.9999999999999987 0.4129966023507635 0  0.948388017507054 0.31630686776452 0  0.94942649991978 0.3152943559955871 0  0.9494005292759886 0.3152771921393367 0  0.9735520289385229 0.2555555555555555 0  0.9494005292759888 0.1958339189717744 0  0.9494264999197789 0.1958167551155251 0  0.9483880164208631 0.1948042422604003 0  1.000000000000001 0.09811450876034861 0  1 0 0  0 0 0  0.1958339189717744 0.2950439151684559 0  0.1958167551155252 0.2950179445246672 0  0.3152771921393367 0.2950439151684557 0  0.1948042433481841 0.2960564269357975 0  0.3152943559955858 0.2950179445246651 0  0.1948042422604031 0.2150546830875326 0  0.3163068677645244 0.2960564269373949 0  0.1958167551155251 0.2160931665864439 0  0.4140846558147206 0.2555555555555555 0  0.1958339189717744 0.2160671959426553 0  0.3163068688489276 0.215054683089313 0  0.3152771921393367 0.2160671959426553 0  0.3152943559955858 0.2160931665864459 0  0.5405008724680257 0.3163068688507107 0  0.5572768961235196 0.356807759691201 0  0.5394623889691089 0.3152943559955871 0  0.459499128618165 0.3163068677645201 0  0.5394883596129003 0.3152771921393367 0  0.4605376110308911 0.3152943559955871 0  0.5394883596129001 0.1958339189717744 0  0.4605116403870998 0.3152771921393367 0  0.53946238896911 0.1958167551155251 0  0.4846631400496339 0.2555555555555555 0  0.5405008724680251 0.1948042422604009 0  0.4605116403870998 0.1958339189717744 0  0.5572768961235196 0.1543033514199101 0  0.46053761103089 0.1958167551155251 0  0.4594991286269881 0.1948042433554141 0  0.6847228078606633 0.2950439151684559 0  0.684705644004414 0.2950179445246672 0  0.8041660810282256 0.2950439151684557 0  0.683693131164073 0.2960564280087975 0  0.8041832448844747 0.2950179445246651 0  0.6836931322354718 0.2150546841737125 0  0.8051957566534156 0.2960564269373971 0  0.6847056440044141 0.2160931665864439 0  0.9029735447036096 0.2555555555555555 0  0.6847228078606632 0.2160671959426553 0  0.8051957577274008 0.2150546830997286 0  0.8041660810282256 0.2160671959426553 0  0.8041832448844747 0.2160931665864459 0  0.2960564280235811 0.560751313295155 0  0.3128324516790751 0.6012522041356455 0  0.2950179445246645 0.5597388004400315 0  0.2150546830875235 0.5607513132951615 0  0.2950439151684557 0.5597216365837812 0  0.2160931665864466 0.5597388004400314 0  0.2950439151684558 0.4402783634162188 0  0.2160671959426553 0.5597216365837812 0  0.2950179445246656 0.4402611995599696 0  0.2402186956051895 0.5 0  0.29605642693739 0.439248687791036 0  0.2160671959426553 0.4402783634162189 0  0.3128324516790751 0.3987477958643545 0  0.2160931665864455 0.4402611995599696 0  0.2150546830875296 0.4392486867048446 0  0.1958339189717743 0.7839328040573448 0  0.1958167551155252 0.7839068334135562 0  0.3152771921393367 0.7839328040573447 0  0.1948042422604028 0.7849453169124678 0  0.3152943559955858 0.783906833413554 0  0.1948042433465913 0.7039435730626098 0  0.3163068677645284 0.7849453158262878 0  0.1958167551155251 0.7049820554753328 0  0.4140846558147206 0.7444444444444445 0  0.1958339189717744 0.7049560848315441 0  0.3163068688486237 0.7039435719785058 0  0.3152771921393367 0.7049560848315441 0  0.3152943559955858 0.7049820554753349 0  0.4402783634162188 0.5394883596129003 0  0.4402611995599696 0.5394623889691117 0  0.5597216365837812 0.5394883596129002 0  0.4392486867048468 0.5405008724680237 0  0.5597388004400302 0.5394623889691096 0  0.4392486877998708 0.4594991286270004 0  0.5607513122089726 0.540500871381843 0  0.4402611995599696 0.4605376110308884 0  0.6585291002591651 0.5 0  0.4402783634162188 0.4605116403870998 0  0.5607513121946796 0.45949912863245 0  0.5597216365837812 0.4605116403870998 0  0.5597388004400302 0.4605376110308904 0  0.78494531690701 0.5607513132896949 0  0.8017213405679641 0.6012522041356455 0  0.7839068334135535 0.5597388004400315 0  0.7039435730626069 0.5607513122089671 0  0.7839328040573448 0.5597216365837812 0  0.7049820554753355 0.5597388004400314 0  0.7839328040573448 0.4402783634162188 0  0.7049560848315441 0.5597216365837812 0  0.7839068334135545 0.4402611995599696 0  0.7291075844940784 0.5 0  0.784945315826279 0.4392486877910359 0  0.7049560848315444 0.4402783634162188 0  0.8017213405679641 0.3987477958643545 0  0.7049820554753344 0.4402611995599696 0  0.7039435719764182 0.4392486867048443 0  0.5405008724625655 0.8051957577341393 0  0.5572768961235196 0.84569664858009 0  0.539462388969109 0.804183244884476 0  0.4594991286181648 0.8051957566534091 0  0.5394883596129003 0.8041660810282256 0  0.4605376110308911 0.804183244884476 0  0.5394883596129003 0.6847228078606633 0  0.4605116403870998 0.8041660810282256 0  0.53946238896911 0.6847056440044139 0  0.4846631400496339 0.7444444444444445 0  0.5405008713818347 0.6836931322354802 0  0.4605116403870998 0.6847228078606633 0  0.5572768961235196 0.643192240308799 0  0.46053761103089 0.6847056440044139 0  0.4594991275353449 0.6836931311526599 0  0.6847228078606633 0.7839328040573448 0  0.684705644004414 0.7839068334135562 0  0.8041660810282256 0.7839328040573447 0  0.6836931311493016 0.7849453169124578 0  0.8041832448844747 0.783906833413554 0  0.68369313223548 0.7039435730626096 0  0.805195756653417 0.7849453158262875 0  0.6847056440044141 0.7049820554753328 0  0.9029735447036096 0.7444444444444445 0  0.6847228078606633 0.7049560848315441 0  0.805195757738809 0.7039435719772094 0  0.8041660810282256 0.7049560848315441 0  0.8041832448844747 0.7049820554753349 0  0.9578164230213342 0.6948838683471341 0  0.9645772892192558 0.7062137009141434 0  0.9695236884064815 0.7184451175460498 0  0.972538971146615 0.7312896684428197 0  0.9725389711466151 0.7575992204460691 0  0.9695236884064815 0.7704437713428391 0  0.9645772892192558 0.7826751879747456 0  0.9578164230213342 0.7940050205417549 0  0.01437766570919127 0.09711967848259151 0  0.02854851642641832 0.09974531144948819 0  0.04161535472570586 0.1058251712658871 0  0.05275088139110013 0.1149743244732108 0  0.06125007411586489 0.1266135117968212 0  0.06657482449792251 0.1400058227212122 0  0.06643634307317195 0.1691277076584997 0  0.06071435336153361 0.1829418078690686 0  0.04134737123322858 0.3039103077764334 0  0.03416190609801732 0.2911362521989113 0  0.02925217947541549 0.2773267630846004 0  0.02676106927623143 0.2628837102534819 0  0.02676106927623143 0.2482274008576293 0  0.02925217947541547 0.2337843480265108 0  0.03416190609801727 0.2199748589121999 0  0.04134737123322851 0.2072008033346779 0  0.06071435387356935 0.328169304128914 0  0.06643634320569657 0.3419834039471998 0  0.06657482449792249 0.371105288389899 0  0.06125007411586481 0.3844975993142901 0  0.05275088139109994 0.3961367866379005 0  0.04161535472570563 0.4052859398452242 0  0.02854851642641818 0.411365799661623 0  0.01437766570919127 0.4139914326285196 0  0 0.4697526254167924 0  0 0.455563619650285 0  0 0.4413746138837777 0  0 0.4271856081172704 0  0.06095233986089402 0.4687284952262988 0  0.04995687430503332 0.4753797281664747 0  0.03809234373417287 0.4803165365228644 0  0.02562418374773841 0.4834284730529493 0  0.01283133446055119 0.4846459169037758 0  0.08372485599813187 0.4503967593658507 0  0.09753895276796982 0.4446747697099958 0  0.1123633055586467 0.4427231038764812 0  0.1271876590095525 0.4446747646950606 0  0.1410017577150834 0.45039674967774 0  0.1528641934757506 0.4594991149204779 0  0.161966560724962 0.471361549141524 0  0.1676885480442292 0.4851756468792086 0  0.1676885480443665 0.514824353120279 0  0.1619665607254926 0.528638450857557 0  0.1528641934768762 0.5405008850783964 0  0.1410017577169217 0.5496032503211987 0  0.1271876590121153 0.5553252353042526 0  0.1123633055618306 0.5572768961235188 0  0.09753895277155772 0.5553252302909656 0  0.08372485600180817 0.5496032406362719 0  0.0128313344605512 0.5153540830962242 0  0.0256241837477384 0.5165715269470507 0  0.03809234373417282 0.5196834634771356 0  0.04995687430503334 0.5246202718335253 0  0.06095233986089401
[...]
<PointData  Tensors="$\sigma$"> 
<DataArray  type="Float64"  Name="$\sigma$"  NumberOfComponents="9" format="ascii">-5.6400979132899056e+03 -6.2905125957004175e+03 0.0000000000000000e+00 -6.2905125957004157e+03 -7.0207642387191272e+03 0.0000000000000000e+00 0.0000000000000000e+00 0.0000000000000000e+00 0.0000000000000000e+00  -6.1697570210732702e+03 -5.4400927981635423e+03 0.0000000000000000e+00 -5.4400927981635459e+03 -3.9322131087512348e+03 0.0000000000000000e+00 0.0000000000000000e+00 0.0000000000000000e+00 0.0000000000000000e+00  -5.5898582355632298e+03 -6.1187799189984971e+03 0.0000000000000000e+00 -6.1187799189984999e+03 -7.4182895179585612e+03 0.0000000000000000e+00 0.0000000000000000e+00 0.0000000000000000e+00 0.0000000000000000e+00  7.7990192527201316e+01 -4.3141395874665442e+01 0.0000000000000000e+00 -4.3141395874666060e+01 -1.1236193693285662e+04 0.0000000000000000e+00 0.0000000000000000e+00 0.0000000000000000e+00 0.0000000000000000e+00  -3.9321071604372855e+03 4.8316001176711916e+03 0.0000000000000000e+00 4.8316001176711952e+03 -5.3221331819633324e+03 0.0000000000000000e+00 0.0000000000000000e+00 0.0000000000000000e+00 0.0000000000000000e+00  -8.8837125693024736e+03 6.9163295328290769e+03 0.0000000000000000e+00 6.9163295328290769e+03 -7.7729481415387472e+03 0.0000000000000000e+00 0.0000000000000000e+00 0.0000000000000000e+00 0.0000000000000000e+00  -3.4249323624178346e+03 4.1245082633983529e+03 0.0000000000000000e+00 4.1245082633983529e+03 -3.8551780433958875e+03 0.0000000000000000e+00 0.0000000000000000e+00 0.0000000000000000e+00 0.0000000000000000e+00  4.5418251260106956e+01 1.2492806094012674e+00 0.0000000000000000e+00 1.2492806094012592e+00 1.8396943804147412e+01 0.0000000000000000e+00 0.0000000000000000e+00 0.0000000000000000e+00 0.0000000000000000e+00  2.5555357691581470e+01 5.8578948563489689e+01 0.0000000000000000e+00 5.8578948563489291e+01 8.0250539202777009e+03 0.0000000000000000e+00 0.0000000000000000e+00 0.0000000000000000e+00 0.0000000000000000e+00  -3.3513676633227342e+03 3.7690032690386493e+03 0.0000000000000000e+00 3.7690032690386538e+03 -4.4323901154304504e+03 0.0000000000000000e+00 0.0000000000000000e+00 0.0000000000000000e+00 0.0000000000000000e+00  -8.6454692860048071e+03 7.0433714232067005e+03 0.0000000000000000e+00 7.0433714232067005e+03 -7.0918379991113788e+03 0.0000000000000000e+00 0.0000000000000000e+00 0.0000000000000000e+00 0.0000000000000000e+00  -3.8390694754219244e+03 4.6559835619475516e+03 0.0000000000000000e+00 4.6559835619475562e+03 -5.0317192019701224e+03 0.0000000000000000e+00 0.0000000000000000e+00 0.0000000000000000e+00 0.0000000000000000e+00  -4.7348855027936224e+03 -6.2276773012177337e+03 0.0000000000000000e+00 -6.2276773012177364e+03 -6.6540368164509900e+03 0.0000000000000000e+00 0.0000000000000000e+00 0.0000000000000000e+00 0.0000000000000000e+00  -7.9975997732177029e+03 -5.3093618777703505e+03 0.0000000000000000e+00 -5.3093618777703532e+03 -5.3163782621090822e+03 0.0000000000000000e+00 0.0000000000000000e+00 0.0000000000000000e+00 0.0000000000000000e+00  -4.5026477584187551e+03 -6.4277590529531008e+03 0.0000000000000000e+00 -6.4277590529530917e+03 -6.3984002133807253e+03 0.0000000000000000e+00 0.0000000000000000e+00 0.0000000000000000e+00 0.0000000000000000e+00  2.3769181248118298e+02 -3.5619096883675681e+01 0.0000000000000000e+00 -3.5619096883675901e+01 1.8249014127554688e+03 0.0000000000000000e+00 0.0000000000000000e+00 0.0000000000000000e+00 0.0000000000000000e+00  1.3452545124053457e+00 4.8403469270304955e-01 0.0000000000000000e+00 4.8403469270304994e-01 -7.1098269712336783e+00 0.0000000000000000e+00 0.0000000000000000e+00 0.0000000000000000e+00 0.0000000000000000e+00  -7.4998134043647735e-01 3.6795380494272789e-01 0.0000000000000000e+00 3.6795380494272800e-01 2.4982811199908248e+00 0.0000000000000000e+00 0.0000000000000000e+00 0.0000000000000000e+00 0.0000000000000000e+00  -3.1181740735133317e+01 2.9276000311729277e+01 0.0000000000000000e+00 2.9276000311729302e+01 -1.7328251459655636e+01 0.0000000000000000e+00 0.0000000000000000e+00 0.0000000000000000e+00 0.0000000000000000e+00  -9.5164216457379226e+01 2.6256887275228838e+01 0.0000000000000000e+00 2.6256887275228809e+01 -4.5003610628984390e+01 0.0000000000000000e+00 0.0000000000000000e+00 0.0000000000000000e+00 0.0000000000000000e+00  9.2399423020720501e+00 6.3445519063359313e+01 0.0000000000000000e+00 6.3445519063359356e+01 -5.3703584157625102e+01 0.0000000000000000e+00 0.0000000000000000e+00 0.0000000000000000e+00 0.0000000000000000e+00  4.5931854136498432e+03 -2.2656765323102150e+02 0.0000000000000000e+00 -2.2656765323102158e+02 1.7360000360468555e+04 0.0000000000000000e+00 0.0000000000000000e+00 0.0000000000000000e+00 0.0000000000000000e+00  -2.2540385158299401e+01 -9.0664793967314480e+01 0.0000000000000000e+00 -9.0664793967314296e+01 -3.8012131786310476e+01 0.0000000000000000e+00 0.0000000000000000e+00 0.0000000000000000e+00 0.0000000000000000e+00  1.1168953192497146e+02 1.7632321000755582e+02 0.0000000000000000e+00 1.7632321000755576e+02 1.0696916535373846e+02 0.0000000000000000e+00 0.0000000000000000e+00 0.0000000000000000e+00 0.0000000000000000e+00  -2.3388059095052693e+01 -2.3337687459264888e+01 0.0000000000000000e+00 -2.3337687459264906e+01 -7.7027058212910529e+00 0.0000000000000000e+00 0.0000000000000000e+00 0.0000000000000000e+00 0.0000000000000000e+00  1.2192790863368550e+00 2.8166937088704258e-01 0.0000000000000000e+00 2.8166937088704203e-01 2.4062620223224078e+00 0.0000000000000000e+00 0.0000000000000000e+00 0.0000000000000000e+00 0.0000000000000000e+00  -5.0291221673649318e+00 -7.6756123791159894e+00 0.0000000000000000e+00 -7.6756123791159832e+00 1.4106250892415853e+00 0.0000000000000000e+00 0.0000000000000000e+00 0.0000000000000000e+00 0.0000000000000000e+00  -5.0520276612021595e+00 -1.2616252130018134e+01 0.0000000000000000e+00 -1.2616252130018234e+01 1.8610598730969461e+03 0.0000000000000000e+00 0.0000000000000000e+00 0.0000000000000000e+00 0.0000000000000000e+00  -5.3548838094467492e+03 6.3908433860725654e+03 0.0000000000000000e+00 6.3908433860725627e+03 -7.1117008202878069e+03 0.0000000000000000e+00 0.0000000000000000e+00 0.0000000000000000e+00 0.0000000000000000e+00  -6.7822057345272206e+03 5.4242890818718333e+03 0.0000000000000000e+00 5.4242890818718206e+03 -3.7000139514296025e+03 0.0000000000000000e+00 0.0000000000000000e+00 0.0000000000000000e+00 0.0000000000000000e+00  -5.1140896431298470e+03 5.9646412094676925e+03 0.0000000000000000e+00 5.9646412094676925e+03 -7.5582301395020022e+03 0.0000000000000000e+00 0.0000000000000000e+00 0.0000000000000000e+00 0.0000000000000000e+00  -3.9868609502471613e+03 -4.7936404891422708e+03 0.0000000000000000e+00 -4.7936404891422744e+03 -5.2226385911045481e+03 0.0000000000000000e+00 0.0000000000000000e+00 0.0000000000000000e+00 0.0000000000000000e+00  -8.5023083909982506e+03 -6.9287664315854527e+03 0.0000000000000000e+00 -6.9287664315854527e+03 -7.7192777660828169e+03 0.0000000000000000e+00 0.0000000000000000e+00 0.0000000000000000e+00 0.0000000000000000e+00  -3.5472067881113953e+03 -3.9687717280701618e+03 0.0000000000000000e+00 -3.9687717280701604e+03 -3.7394697779995404e+03 0.0000000000000000e+00 0.0000000000000000e+00 0.0000000000000000e+00 0.0000000000000000e+00  1.2564323592705540e+02 -3.0769401929002561e+02 0.0000000000000000e+00 -3.0769401929002578e+02 7.6596521239429312e+03 0.0000000000000000e+00 0.0000000000000000e+00 0.0000000000000000e+00 0.0000000000000000e+00  -8.9632252966911736e+01 4.0351438791725478e+01 0.0000000000000000e+00 4.0351438791725428e+01 -3.9736594983160856e+01 0.0000000000000000e+00 0.0000000000000000e+00 0.0000000000000000e+00 0.0000000000000000e+00  4.3574637616606857e+00 8.5832174424109979e+00 0.0000000000000000e+00 8.5832174424109926e+00 5.9354618036182046e+02 0.0000000000000000e+00 0.0000000000000000e+00 0.0000000000000000e+00 0.0000000000000000e+00  3.2852842074813777e+00 -1.1996641462339591e+01 0.0000000000000000e+00 -1.1996641462339635e+01 6.0699315375067272e+02 0.0000000000000000e+00 0.0000000000000000e+00 0.0000000000000000e+00 0.0000000000000000e+00  4.4346281174241788e+01 -2.6263199232675620e+00 0.0000000000000000e+00 -2.6263199232674759e+00 -1.9036385401758640e+01 0.0000000000000000e+00 0.0000000000000000e+00 0.0000000000000000e+00 0.0000000000000000e+00  -6.5010355397847528e+00 -1.4314033649394955e+00 0.0000000000000000e+00 -1.4314033649394948e+00 -3.1294992099321033e+00 0.0000000000000000e+00 0.0000000000000000e+00 0.0000000000000000e+00 0.0000000000000000e+00  7.5526028450346194e-01 3.6047175325393888e-01 0.0000000000000000e+00 3.6047175325393815e-01 1.0539231551324981e+00 0.0000000000000000e+00 0.0000000000000000e+00 0.0000000000000000e+00 0.0000000000000000e+00  -2.2368547956479684e+01 2.4750320209015214e+01 0.0000000000000000e+00 2.4750320209015211e+01 -1.9926577653276322e+01 0.0000000000000000e+00 0.0000000000000000e+00 0.0000000000000000e+00 0.0000000000000000e+00  -3.8297290711179606e+01 -5.6190766276562073e+01 0.0000000000000000e+00 -5.6190766276562108e+01 1.4605759478609700e+01 0.0000000000000000e+00 0.0000000000000000e+00 0.0000000000000000e+00 0.0000000000000000e+00  2.4203419085301149e+01 6.9547959660852797e+01 0.0000000000000000e+00 6.9547959660852868e+01 -3.1346485996550498e+01 0.0000000000000000e+00 0.0000000000000000e+00 0.0000000000000000e+00 0.0000000000000000e+00  -1.7512387971422974e+01 -6.8435677855974447e+01 0.0000000000000000e+00 -6.8435677855974305e+01 -6.7250399153078263e+01 0.0000000000000000e+00 0.0000000000000000e+00 0.0000000000000000e+00 0.0000000000000000e+00  -1.2289044108611486e+02 -8.5477896588485706e+01 0.0000000000000000e+00 -8.5477896588485677e+01 -1.1150850965436297e+02 0.0000000000000000e+00 0.0000000000000000e+00 0.0000000000000000e+00 0.0000000000000000e+00  -4.3084463558542886e+01 -2.7428393654182830e+01 0.0000000000000000e+00 -2.7428393654182877e+01 -1.0767157618297085e-01 0.0000000000000000e+00 0.0000000000000000e+00 0.0000000000000000e+00 0.0000000000000000e+00  -1.3447317717177560e+00 -6.8998271885012030e-01 0.0000000000000000e+00 -6.8998271885011997e-01 -5.3891673903719538e-03 0.0000000000000000e+00 0.0000000000000000e+00 0.0000000000000000e+00 0.0000000000000000e+00  -5.2112975169499016e+00 -1.7976571195689559e+00 0.0000000000000000e+00 -1.7976571195689530e+00 -3.7418858452594921e+00 0.0000000000000000e+00 0.0000000000000000e+00 0.0000000000000000e+00 0.0000000000000000e+00  -4.9638970801893356e+03 5.9927003272704287e+03 0.0000000000000000e+00 5.9927003272704223e+03 -6.7432118247704375e+03 0.0000000000000000e+00 0.0000000000000000e+00 0.0000000000000000e+00 0.0000000000000000e+00  -6.6129605237674359e+03 5.6193985434651240e+03 0.0000000000000000e+00 5.6193985434651277e+03 -4.1076895700259392e+03 0.0000000000000000e+00 0.0000000000000000e+00 0.0000000000000000e+00 0.0000000000000000e+00  -5.8182397728218930e+03 6.0119406722193817e+03 0.0000000000000000e+00 6.0119406722193817e+03 -7.5570616005812053e+03 0.0000000000000000e+00 0.0000000000000000e+00 0.0000000000000000e+00 0.0000000000000000e+00  5.5048198764958030e+01 5.9054588792002569e+01 0.0000000000000000e+00 5.9054588792003045e+01 -1.1155644341539159e+04 0.0000000000000000e+00 0.0000000000000000e+00 0.0000000000000000e+00 0.0000000000000000e+00  -3.7614043420646358e+03 -4.7815820535441171e+03 0.0000000000000000e+00 -4.7815820535441198e+03 -5.1021254605732865e+03 0.0000000000000000e+00 0.0000000000000000e+00 0.0000000000000000e+00 0.0000000000000000e+00  -9.0794419450426649e+03 -7.0661948688513257e+03 0.0000000000000000e+00 -7.0661948688513212e+03 -7.3219779657690697e+03 0.0000000000000000e+00 0.0000000000000000e+00 0.0000000000000000e+00 0.0000000000000000e+00  -3.4730705094329319e+03 -3.9342186289821325e+03 0.0000000000000000e+00 -3.9342186289821270e+03 -4.6433029226533590e+03 0.0000000000000000e+00 0.0000000000000000e+00 0.0000000000000000e+00 0.0000000000000000e+00  -3.7042920268271551e+01 8.8467124109090776e+00 0.0000000000000000e+00 8.8467124109090651e+00 -1.3876407553330836e+01 0.0000000000000000e+00 0.0000000000000000e+00 0.0000000000000000e+00 0.0000000000000000e+00  3.9337444963319372e+00 5.7834351938673247e+00 0.0000000000000000e+00 5.7834351938673363e+00 5.9677145845393363e+02 0.0000000000000000e+00 0.0000000000000000e+00 0.0000000000000000e+00 0.0000000000000000e+00  1.4702700360764331e+02 1.1893121102838941e+02 0.0000000000000000e+00 1.1893121102838943e+02 7.1478099081354014e+02 0.0000000000000000e+00 0.0000000000000000e+00 0.0000000000000000e+00 0.0000000000000000e+00  -6.2647426204435560e+03 5.9441622271350698e+03 0.0000000000000000e+00 5.9441622271350743e+03 -5.2482547753521249e+03 0.0000000000000000e+00 0.0000000000000000e+00 0.0000000000000000e+00 0.0000000000000000e+00  -7.4091563406324867e+03 5.9835317372607369e+03 0.0000000000000000e+00 5.9835317372607360e+03 -9.7807535480964834e+03 0.0000000000000000e+00 0.0000000000000000e+00 0.0000000000000000e+00 0.0000000000000000e+00  -5.8577781598865204e+03 -5.9783027907853875e+03 0.0000000000000000e+00 -5.9783027907853902e+03 -5.4472628510546629e+03 0.0000000000000000e+00 0.0000000000000000e+00 0.0000000000000000e+00 0.0000000000000000e+00  -5.0781057350319261e+03 6.0462384352585696e+03 0.0000000000000000e+00 6.0462384352585705e+03 -2.2737216939170598e+03 0.0000000000000000e+00 0.0000000000000000e+00 0.0000000000000000e+00 0.0000000000000000e+00  -6.1743284235406518e+03 -5.8006472548557540e+03 0.0000000000000000e+00 -5.8006472548557485e+03 -6.5599444403967545e+03 0.0000000000000000e+00 0.0000000000000000e+00 0.0000000000000000e+00 0.0000000000000000e+00  -1.2098201855941111e+03 -1.1649419125268205e+03 0.0000000000000000e+00 -1.1649419125268223e+03 -8.9024876309889885e+02 0.0000000000000000e+00 0.0000000000000000e+00 0.0000000000000000e+00 0.0000000000000000e+00  -5.4241442569635556e+03 -5.7150084996964670e+03 0.0000000000000000e+00 -5.7150084996964661e+03 -5.0032535058111034e+03 0.0000000000000000e+00 0.0000000000000000e+00 0.0000000000000000e+00 0.0000000000000000e+00  -3.6518366973788886e+02 -4.0908158979665291e+02 0.0000000000000000e+00 -4.0908158979665245e+02 -8.3909239694854671e+02 0.0000000000000000e+00 0.0000000000000000e+00 0.0000000000000000e+00 0.0000000000000000e+00  3.6139282826251660e+03 2.9202954256778145e+02 0.0000000000000000e+00 2.9202954256778281e+02 1.6002153410949428e+04 0.0000000000000000e+00 0.0000000000000000e+00 0.0000000000000000e+00 0.0000000000000000e+00  -6.3611739588225078e+02 -5.9878870538412866e+02 0.0000000000000000e+00 -5.9878870538412843e+02 -3.9966742864819008e+02 0.0000000000000000e+00 0.0000000000000000e+00 0.0000000000000000e+00 0.0000000000000000e+00  -1.2808703672843833e+03 1.3599523362705334e+03 0.0000000000000000e+00 1.3599523362705306e+03 -1.1115682100654005e+03 0.0000000000000000e+00 0.0000000000000000e+00 0.0000000000000000e+00 0.0000000000000000e+00  -1.1495244837085827e+03 8.1619625286136329e+02 0.0000000000000000e+00 8.1619625286136386e+02 -6.2917411979865619e+02 0.0000000000000000e+00 0.0000000000000000e+00 0.0000000000000000e+00 0.0000000000000000e+00  4.1916974715670398e+02 -1.9753927755938241e+02 0.0000000000000000e+00 -1.9753927755938125e+02 -2.0408277792456923e+02 0.0000000000000000e+00 0.0000000000000000e+00 0.0000000000000000e+00 0.0000000000000000e+00  -4.8899905706976006e+03 -6.3459216849548084e+03 0.0000000000000000e+00 -6.3459216849548102e+03 -6.2379352953778962e+03 0.0000000000000000e+00 0.0000000000000000e+00 0.0000000000000000e+00 0.0000000000000000e+00  7.5729330120107318e+02 -8.9479963411307281e+01 0.0000000000000000e+00 -8.9479963411305746e+01 7.4100477309109729e+03 0.0000000000000000e+00 0.0000000000000000e+00 0.0000000000000000e+00 0.0000000000000000e+00  -5.3989377004623557e+03 -5.6396247484149117e+03 0.0000000000000000e+00 -5.6396247484149153e+03 -3.3287105364565600e+03 0.0000000000000000e+00 0.0000000000000000e+00 0.0000000000000000e+00 0.0000000000000000e+00  -4.5070786086433645e+03 6.3487654307185439e+03 0.0000000000000000e+00 6.3487654307185439e+03 -7.2337592459678017e+03 0.0000000000000000e+00 0.0000000000000000e+00 0.0000000000000000e+00 0.0000000000000000e+00  -6.7858183866924155e+03 -5.8247144968056891e+03 0.0000000000000000e+00 -5.8247144968056882e+03 -8.4194789010688910e+03 0.0000000000000000e+00 0.0000000000000000e+00 0.0000000000000000e+00 0.0000000000000000e+00  -5.4616429434233587e+03 5.6416066957275016e+03 0.0000000000000000e+00 5.6416066957275070e+03 -2.3678823122307913e+03 0.0000000000000000e+00 0.0000000000000000e+00 0.0000000000000000e+00 0.0000000000000000e+00  5.6091978191938551e+02 3.1281500011206317e+03 0.0000000000000000e+00 3.1281500011206317e+03 -3.7591952896786675e+03 0.0000000000000000e+00 0.0000000000000000e+00 0.0000000000000000e+00 0.0000000000000000e+00  -7.0273734160533786e+03 5.8088771793543692e+03 0.0000000000000000e+00 5.8088771793543710e+03 -8.5241361356350644e+03 0.0000000000000000e+00 0.0000000000000000e+00 0.0000000000000000e+00 0.0000000000000000e+00  -1.4946968644267521e+04 1.0829104628847605e+04 0.0000000000000000e+00 1.0829104628847608e+04 -1.9421020147328851e+04 0.0000000000000000e+00 0.0000000000000000e+00 0.0000000000000000e+00 0.0000000000000000e+00  1.6386519022737765e+01 1.1509098146912085e+02 0.0000000000000000e+00 1.1509098146912315e+02 -1.0932520473390647e+04 0.0000000000000000e+00 0.0000000000000000e+00 0.0000000000000000e+00 0.0000000000000000e+00  -4.8174109790309831e+02 -2.6034360716669521e+03 0.0000000000000000e+00 -2.6034360716669585e+03 8.7713532660177771e+03 0.0000000000000000e+00 0.0000000000000000e+00 0.0000000000000000e+00 0.0000000000000000e+00  -2.6757491122599677e+03 -2.3626317207546385e+03 0.0000000000000000e+00 -2.3626317207546372e+03 -2.5559347028454908e+03 0.0000000000000000e+00 0.0000000000000000e+00 0.0000000000000000e+00 0.0000000000000000e+00  7.5142069388485902e+02 -6.9002110661093752e+02 0.0000000000000000e+00 -6.9002110661093752e+02 1.3014711248948688e+04 0.0000000000000000e+00 0.0000000000000000e+00 0.0000000000000000e+00 0.0000000000000000e+00  -1.1085323040063804e+04 -1.0178530336460675e+04 0.0000000000000000e+00 -1.0178530336460681e+04 -1.6568646046797407e+04 0.0000000000000000e+00 0.0000000000000000e+00 0.0000000000000000e+00 0.0000000000000000e+00  -4.3940461922801154e+02 1.1363823790598303e+03 0.0000000000000000e+00 1.1363823790598303e+03 5.6243293629755162e+03 0.0000000000000000e+00 0.0000000000000000e+00 0.0000000000000000e+00 0.0000000000000000e+00  -5.8588865066993094e+03 5.9815797753448342e+03 0.0000000000000000e+00 5.9815797753448287e+03 -5.5217947211983064e+03 0.0000000000000000e+00 0.0000000000000000e+00 0.0000000000000000e+00 0.0000000000000000e+00  -6.1477129427146401e+03 5.8238218586900985e+03 0.0000000000000000e+00 5.8238218586901030e+03 -6.6585678985251807e+03 0.0000000000000000e+00 0.0000000000000000e+00 0.0000000000000000e+00 0.0000000000000000e+00  -7.1428665103459334e+03 -5.9323296748632856e+03 0.0000000000000000e+00 -5.9323296748632820e+03 -6.3855756586505222e+03 0.0000000000000000e+00 0.0000000000000000e+00 0.0000000000000000e+00 0.0000000000000000e+00  -5.4422464424411210e+03 5.7159729371373360e+03 0.0000000000000000e+00 5.7159729371373414e+03 -4.7695555461546082e+03 0.0000000000000000e+00 0.0000000000000000e+00 0.0000000000000000e+00 0.0000000000000000e+00  -6.3260042750561224e+03 -5.8995416756000750e+03 0.0000000000000000e+00 -5.8995416756000786e+03 -7.8778065201060981e+03 0.0000000000000000e+00 0.0000000000000000e+00 0.0000000000000000e+00 0.0000000000000000e+00  -1.5239182910586278e+03 -1.3262448047433020e+03 0.0000000000000000e+00 -1.3262448047433036e+03 -1.1036940555916938e+03 0.0000000000000000e+00 0.0000000000000000e+00 0.0000000000000000e+00 0.0000000000000000e+00  -5.1853136879373087e+03 -6.1471299269803512e+03 0.0000000000000000e+00 -6.1471299269803485e+03 -3.2816284205391130e+03 0.0000000000000000e+00 0.0000000000000000e+00 0.0000000000000000e+00 0.0000000000000000e+00  1.0790997129341354e+03 7.3908263131903675e+02 0.0000000000000000e+00 7.3908263131903652e+02 3