<?xml version="1.0"?>
<VTKFile type="UnstructuredGrid"  version="0.1"  >
<UnstructuredGrid>
<Piece  NumberOfPoints="4855" NumberOfCells="8780">
<Points>
<DataArray  type="Float64"  NumberOfComponents="3"  format="ascii">0.9483880164242298 0.6836931311526558 0  0.9494264999197789 0.6847056440044139 0  0.9494005292759887 0.6847228078606633 0  0.9735520289385229 0.7444444444444445 0  0.9494005292759886 0.8041660810282256 0  0.94942649991978 0.8041832448844759 0  0.9483880175070514 0.8051957566534116 0  3.131175874138137e-16 0.09811450876034808 0  0.06838800723463068 0.1543033514199101 0  0.05161198249294494 0.1948042433465922 0  0.0505735000802211 0.1958167551155251 0  0.05059947072401128 0.1958339189717744 0  0.0505994707240113 0.3152771921393367 0  0.05057350008021998 0.315294355995587 0  0.05161198357913653 0.3163068688507105 0  0.06838800723463068 0.356807759691201 0  3.252606517456513e-16 0.4129966023507631 0  -1.795438797635995e-16 0.4839416311832997 0  0.07083274769489223 0.4605116403870998 0  0.07084991155114129 0.4605376110308903 0  0.07186242331670639 0.4594991286215342 0  0.1696402113702762 0.5 0  0.07186242332008326 0.5405008713818427 0  0.0708499115511413 0.5394623889691096 0  0.07083274769489219 0.5394883596129002 0  -1.925543058334256e-16 0.5160583688167003 0  1.484923295436147e-15 0.5870033976492365 0  0.06838800723463068 0.643192240308799 0  0.05161198249294541 0.6836931322354806 0  0.05057350008022109 0.6847056440044139 0  0.0505994707240113 0.6847228078606633 0  0.0505994707240113 0.8041660810282256 0  0.05057350008021999 0.804183244884476 0  0.05161198249294764 0.8051957566534106 0  0.06838800723463068 0.84569664858009 0  1.485790657174135e-15 0.9018854912396524 0  0 1 0  1 1 0  0.9999999999999987 0.9018854912396523 0  1.000000000000001 0.5870033976492375 0  1 0.5160583688167003 0  0.9291672523051078 0.5394883596129003 0  0.9291500884488585 0.5394623889691117 0  0.9281375755937461 0.5405008724680134 0  0.9281375755937372 0.4594991275319777 0  0.9291500884488586 0.4605376110308884 0  0.9291672523051077 0.4605116403870997 0  1 0.4839416311832997 0  0.9999999999999987 0.4129966023507635 0  0.948388017507054 0.31630686776452 0  0.94942649991978 0.3152943559955871 0  0.9494005292759886 0.3152771921393367 0  0.9735520289385229 0.2555555555555555 0  0.9494005292759888 0.1958339189717744 0  0.9494264999197789 0.1958167551155251 0  0.9483880164208631 0.1948042422604003 0  1.000000000000001 0.09811450876034861 0  1 0 0  0 0 0  0.1958339189717744 0.2950439151684559 0  0.1958167551155252 0.2950179445246672 0  0.3152771921393367 0.2950439151684557 0  0.1948042433481841 0.2960564269357975 0  0.3152943559955858 0.2950179445246651 0  0.1948042422604031 0.2150546830875326 0  0.3163068677645244 0.2960564269373949 0  0.1958167551155251 0.2160931665864439 0  0.4140846558147206 0.2555555555555555 0  0.1958339189717744 0.2160671959426553 0  0.3163068688489276 0.215054683089313 0  0.3152771921393367 0.2160671959426553 0  0.3152943559955858 0.2160931665864459 0  0.5405008724680257 0.3163068688507107 0  0.5572768961235196 0.356807759691201 0  0.5394623889691089 0.3152943559955871 0  0.459499128618165 0.3163068677645201 0  0.5394883596129003 0.3152771921393367 0  0.4605376110308911 0.3152943559955871 0  0.5394883596129001 0.1958339189717744 0  0.4605116403870998 0.3152771921393367 0  0.53946238896911 0.1958167551155251 0  0.4846631400496339 0.2555555555555555 0  0.5405008724680251 0.1948042422604009 0  0.4605116403870998 0.1958339189717744 0  0.5572768961235196 0.1543033514199101 0  0.46053761103089 0.1958167551155251 0  0.4594991286269881 0.1948042433554141 0  0.6847228078606633 0.2950439151684559 0  0.684705644004414 0.2950179445246672 0  0.8041660810282256 0.2950439151684557 0  0.683693131164073 0.2960564280087975 0  0.8041832448844747 0.2950179445246651 0  0.6836931322354718 0.2150546841737125 0  0.8051957566534156 0.2960564269373971 0  0.6847056440044141 0.2160931665864439 0  0.9029735447036096 0.2555555555555555 0  0.6847228078606632 0.2160671959426553 0  0.8051957577274008 0.2150546830997286 0  0.8041660810282256 0.2160671959426553 0  0.8041832448844747 0.2160931665864459 0  0.2960564280235811 0.560751313295155 0  0.3128324516790751 0.6012522041356455 0  0.2950179445246645 0.5597388004400315 0  0.2150546830875235 0.5607513132951615 0  0.2950439151684557 0.5597216365837812 0  0.2160931665864466 0.5597388004400314 0  0.2950439151684558 0.4402783634162188 0  0.2160671959426553 0.5597216365837812 0  0.2950179445246656 0.4402611995599696 0  0.2402186956051895 0.5 0  0.29605642693739 0.439248687791036 0  0.2160671959426553 0.4402783634162189 0  0.3128324516790751 0.3987477958643545 0  0.2160931665864455 0.4402611995599696 0  0.2150546830875296 0.4392486867048446 0  0.1958339189717743 0.7839328040573448 0  0.1958167551155252 0.7839068334135562 0  0.3152771921393367 0.7839328040573447 0  0.1948042422604028 0.7849453169124678 0  0.3152943559955858 0.783906833413554 0  0.1948042433465913 0.7039435730626098 0  0.3163068677645284 0.7849453158262878 0  0.1958167551155251 0.7049820554753328 0  0.4140846558147206 0.7444444444444445 0  0.1958339189717744 0.7049560848315441 0  0.3163068688486237 0.7039435719785058 0  0.3152771921393367 0.7049560848315441 0  0.3152943559955858 0.7049820554753349 0  0.4402783634162188 0.5394883596129003 0  0.4402611995599696 0.5394623889691117 0  0.5597216365837812 0.5394883596129002 0  0.4392486867048468 0.5405008724680237 0  0.5597388004400302 0.5394623889691096 0  0.4392486877998708 0.4594991286270004 0  0.5607513122089726 0.540500871381843 0  0.4402611995599696 0.4605376110308884 0  0.6585291002591651 0.5 0  0.4402783634162188 0.4605116403870998 0  0.5607513121946796 0.45949912863245 0  0.5597216365837812 0.4605116403870998 0  0.5597388004400302 0.4605376110308904 0  0.78494531690701 0.5607513132896949 0  0.8017213405679641 0.6012522041356455 0  0.7839068334135535 0.5597388004400315 0  0.7039435730626069 0.5607513122089671 0  0.7839328040573448 0.5597216365837812 0  0.7049820554753355 0.5597388004400314 0  0.7839328040573448 0.4402783634162188 0  0.7049560848315441 0.5597216365837812 0  0.7839068334135545 0.4402611995599696 0  0.7291075844940784 0.5 0  0.784945315826279 0.4392486877910359 0  0.7049560848315444 0.4402783634162188 0  0.8017213405679641 0.3987477958643545 0  0.7049820554753344 0.4402611995599696 0  0.7039435719764182 0.4392486867048443 0  0.5405008724625655 0.8051957577341393 0  0.5572768961235196 0.84569664858009 0  0.539462388969109 0.804183244884476 0  0.4594991286181648 0.8051957566534091 0  0.5394883596129003 0.8041660810282256 0  0.4605376110308911 0.804183244884476 0  0.5394883596129003 0.6847228078606633 0  0.4605116403870998 0.8041660810282256 0  0.53946238896911 0.6847056440044139 0  0.4846631400496339 0.7444444444444445 0  0.5405008713818347 0.6836931322354802 0  0.4605116403870998 0.6847228078606633 0  0.5572768961235196 0.643192240308799 0  0.46053761103089 0.6847056440044139 0  0.4594991275353449 0.6836931311526599 0  0.6847228078606633 0.7839328040573448 0  0.684705644004414 0.7839068334135562 0  0.8041660810282256 0.7839328040573447 0  0.6836931311493016 0.7849453169124578 0  0.8041832448844747 0.783906833413554 0  0.68369313223548 0.7039435730626096 0  0.805195756653417 0.7849453158262875 0  0.6847056440044141 0.7049820554753328 0  0.9029735447036096 0.7444444444444445 0  0.6847228078606633 0.7049560848315441 0  0.805195757738809 0.7039435719772094 0  0.8041660810282256 0.7049560848315441 0  0.8041832448844747 0.7049820554753349 0  0.9578164230213342 0.6948838683471341 0  0.9645772892192558 0.7062137009141434 0  0.9695236884064815 0.7184451175460498 0  0.972538971146615 0.7312896684428197 0  0.9725389711466151 0.7575992204460691 0  0.9695236884064815 0.7704437713428391 0  0.9645772892192558 0.7826751879747456 0  0.9578164230213342 0.7940050205417549 0  0.01437766570919127 0.09711967848259151 0  0.02854851642641832 0.09974531144948819 0  0.04161535472570586 0.1058251712658871 0  0.05275088139110013 0.1149743244732108 0  0.06125007411586489 0.1266135117968212 0  0.06657482449792251 0.1400058227212122 0  0.06643634307317195 0.1691277076584997 0  0.06071435336153361 0.1829418078690686 0  0.04134737123322858 0.3039103077764334 0  0.03416190609801732 0.2911362521989113 0  0.02925217947541549 0.2773267630846004 0  0.02676106927623143 0.2628837102534819 0  0.02676106927623143 0.2482274008576293 0  0.02925217947541547 0.2337843480265108 0  0.03416190609801727 0.2199748589121999 0  0.04134737123322851 0.2072008033346779 0  0.06071435387356935 0.328169304128914 0  0.06643634320569657 0.3419834039471998 0  0.06657482449792249 0.371105288389899 0  0.06125007411586481 0.3844975993142901 0  0.05275088139109994 0.3961367866379005 0  0.04161535472570563 0.4052859398452242 0  0.02854851642641818 0.411365799661623 0  0.01437766570919127 0.4139914326285196 0  0 0.4697526254167924 0  0 0.455563619650285 0  0 0.4413746138837777 0  0 0.4271856081172704 0  0.06095233986089402 0.4687284952262988 0  0.04995687430503332 0.4753797281664747 0  0.03809234373417287 0.4803165365228644 0  0.02562418374773841 0.4834284730529493 0  0.01283133446055119 0.4846459169037758 0  0.08372485599813187 0.4503967593658507 0  0.09753895276796982 0.4446747697099958 0  0.1123633055586467 0.4427231038764812 0  0.1271876590095525 0.4446747646950606 0  0.1410017577150834 0.45039674967774 0  0.1528641934757506 0.4594991149204779 0  0.161966560724962 0.471361549141524 0  0.1676885480442292 0.4851756468792086 0  0.1676885480443665 0.514824353120279 0  0.1619665607254926 0.528638450857557 0  0.1528641934768762 0.5405008850783964 0  0.1410017577169217 0.5496032503211987 0  0.1271876590121153 0.5553252353042526 0  0.1123633055618306 0.5572768961235188 0  0.09753895277155772 0.5553252302909656 0  0.08372485600180817 0.5496032406362719 0  0.0128313344605512 0.5153540830962242 0  0.0256241837477384 0.5165715269470507 0  0.03809234373417282 0.5196834634771356 0  0.04995687430503334 0.5246202718335253 0  0.06095233986089401
[...]
<PointData  Tensors="$\sigma$"> 
<DataArray  type="Float64"  Name="$\sigma$"  NumberOfComponents="9" format="ascii">-5.4278003956002367e+03 -6.1547690401858154e+03 0.0000000000000000e+00 -6.1547690401858108e+03 -6.6517293581005033e+03 0.0000000000000000e+00 0.0000000000000000e+00 0.0000000000000000e+00 0.0000000000000000e+00  -6.7783086973682957e+03 -5.4470638537784516e+03 0.0000000000000000e+00 -5.4470638537784544e+03 -4.5673434829848875e+03 0.0000000000000000e+00 0.0000000000000000e+00 0.0000000000000000e+00 0.0000000000000000e+00  -5.2197429387061156e+03 -6.1982093022759445e+03 0.0000000000000000e+00 -6.1982093022759473e+03 -7.1838527695218618e+03 0.0000000000000000e+00 0.0000000000000000e+00 0.0000000000000000e+00 0.0000000000000000e+00  7.7889361198356710e+01 -9.7850722257180092e+00 0.0000000000000000e+00 -9.7850722257185865e+00 -1.0716331099908819e+04 0.0000000000000000e+00 0.0000000000000000e+00 0.0000000000000000e+00 0.0000000000000000e+00  -3.7768619311955867e+03 4.6412224249000337e+03 0.0000000000000000e+00 4.6412224249000374e+03 -5.1089425630075748e+03 0.0000000000000000e+00 0.0000000000000000e+00 0.0000000000000000e+00 0.0000000000000000e+00  -8.8686266889671460e+03 7.0192553933454383e+03 0.0000000000000000e+00 7.0192553933454365e+03 -7.8763140772496554e+03 0.0000000000000000e+00 0.0000000000000000e+00 0.0000000000000000e+00 0.0000000000000000e+00  -3.3318407723722839e+03 3.9501792559054870e+03 0.0000000000000000e+00 3.9501792559054879e+03 -3.6812336816100956e+03 0.0000000000000000e+00 0.0000000000000000e+00 0.0000000000000000e+00 0.0000000000000000e+00  4.1821194827855727e+01 9.0333169578398875e-01 0.0000000000000000e+00 9.0333169578399197e-01 1.6980728385737446e+01 0.0000000000000000e+00 0.0000000000000000e+00 0.0000000000000000e+00 0.0000000000000000e+00  3.2308439211129176e+01 5.4013020235823433e+01 0.0000000000000000e+00 5.4013020235823078e+01 7.9338939572559548e+03 0.0000000000000000e+00 0.0000000000000000e+00 0.0000000000000000e+00 0.0000000000000000e+00  -3.2333537423958019e+03 3.6238744841794814e+03 0.0000000000000000e+00 3.6238744841794855e+03 -4.2101541105010774e+03 0.0000000000000000e+00 0.0000000000000000e+00 0.0000000000000000e+00 0.0000000000000000e+00  -8.6542098011215494e+03 7.1158382359150064e+03 0.0000000000000000e+00 7.1158382359150028e+03 -7.2126976558849692e+03 0.0000000000000000e+00 0.0000000000000000e+00 0.0000000000000000e+00 0.0000000000000000e+00  -3.6816726034949352e+03 4.4840497907776844e+03 0.0000000000000000e+00 4.4840497907776871e+03 -4.8521841622061211e+03 0.0000000000000000e+00 0.0000000000000000e+00 0.0000000000000000e+00 0.0000000000000000e+00  -4.4063656769429826e+03 -6.2661684328225456e+03 0.0000000000000000e+00 -6.2661684328225492e+03 -6.4192018439231224e+03 0.0000000000000000e+00 0.0000000000000000e+00 0.0000000000000000e+00 0.0000000000000000e+00  -8.4498407261840221e+03 -5.3659462372189000e+03 0.0000000000000000e+00 -5.3659462372189055e+03 -5.8877429989998118e+03 0.0000000000000000e+00 0.0000000000000000e+00 0.0000000000000000e+00 0.0000000000000000e+00  -4.3922136553521141e+03 -6.2348712659386010e+03 0.0000000000000000e+00 -6.2348712659385928e+03 -6.0567140827586136e+03 0.0000000000000000e+00 0.0000000000000000e+00 0.0000000000000000e+00 0.0000000000000000e+00  2.2314980873706781e+02 -3.3649702929548532e+01 0.0000000000000000e+00 -3.3649702929548809e+01 1.9431454231036853e+03 0.0000000000000000e+00 0.0000000000000000e+00 0.0000000000000000e+00 0.0000000000000000e+00  1.2706063310659967e+00 3.1091150976017995e-01 0.0000000000000000e+00 3.1091150976018112e-01 -6.8996082736304531e+00 0.0000000000000000e+00 0.0000000000000000e+00 0.0000000000000000e+00 0.0000000000000000e+00  -6.2286808053383536e-01 3.3195778153355354e-01 0.0000000000000000e+00 3.3195778153355404e-01 2.3259726881591249e+00 0.0000000000000000e+00 0.0000000000000000e+00 0.0000000000000000e+00 0.0000000000000000e+00  -3.0785663066807242e+01 2.9324736771003007e+01 0.0000000000000000e+00 2.9324736771003032e+01 -1.7482895804827074e+01 0.0000000000000000e+00 0.0000000000000000e+00 0.0000000000000000e+00 0.0000000000000000e+00  -8.4050009621868170e+01 2.0437636669359801e+01 0.0000000000000000e+00 2.0437636669359780e+01 -3.8019120379040395e+01 0.0000000000000000e+00 0.0000000000000000e+00 0.0000000000000000e+00 0.0000000000000000e+00  1.9034172135868646e+00 6.5143105615144236e+01 0.0000000000000000e+00 6.5143105615144265e+01 -5.6580417446797220e+01 0.0000000000000000e+00 0.0000000000000000e+00 0.0000000000000000e+00 0.0000000000000000e+00  4.2247324990914112e+03 -2.1668713687031681e+02 0.0000000000000000e+00 -2.1668713687031666e+02 1.6961057280463603e+04 0.0000000000000000e+00 0.0000000000000000e+00 0.0000000000000000e+00 0.0000000000000000e+00  -2.6957412918877157e+01 -9.2172854381920232e+01 0.0000000000000000e+00 -9.2172854381920075e+01 -3.9635967219795695e+01 0.0000000000000000e+00 0.0000000000000000e+00 0.0000000000000000e+00 0.0000000000000000e+00  1.0695379711261276e+02 1.6850795341466579e+02 0.0000000000000000e+00 1.6850795341466576e+02 9.9299130287265015e+01 0.0000000000000000e+00 0.0000000000000000e+00 0.0000000000000000e+00 0.0000000000000000e+00  -2.3531117640885849e+01 -2.3253924866426068e+01 0.0000000000000000e+00 -2.3253924866426079e+01 -7.3392715952715122e+00 0.0000000000000000e+00 0.0000000000000000e+00 0.0000000000000000e+00 0.0000000000000000e+00  1.1220035478314780e+00 2.0337923260959040e-01 0.0000000000000000e+00 2.0337923260958968e-01 2.2096457843869253e+00 0.0000000000000000e+00 0.0000000000000000e+00 0.0000000000000000e+00 0.0000000000000000e+00  -4.4129419883531762e+00 -7.4223485536794191e+00 0.0000000000000000e+00 -7.4223485536794129e+00 1.4448260744876553e+00 0.0000000000000000e+00 0.0000000000000000e+00 0.0000000000000000e+00 0.0000000000000000e+00  9.2091124053124529e-01 -1.5117479267454357e+01 0.0000000000000000e+00 -1.5117479267454437e+01 1.9733004174317662e+03 0.0000000000000000e+00 0.0000000000000000e+00 0.0000000000000000e+00 0.0000000000000000e+00  -5.1794102372730949e+03 6.2265526214619576e+03 0.0000000000000000e+00 6.2265526214619576e+03 -6.7118847238479593e+03 0.0000000000000000e+00 0.0000000000000000e+00 0.0000000000000000e+00 0.0000000000000000e+00  -7.3146142846039011e+03 5.4720172694605217e+03 0.0000000000000000e+00 5.4720172694605135e+03 -4.3537953195472237e+03 0.0000000000000000e+00 0.0000000000000000e+00 0.0000000000000000e+00 0.0000000000000000e+00  -4.8107411978374794e+03 6.0022535454766412e+03 0.0000000000000000e+00 6.0022535454766366e+03 -7.3342541960533517e+03 0.0000000000000000e+00 0.0000000000000000e+00 0.0000000000000000e+00 0.0000000000000000e+00  -3.8079333773213098e+03 -4.5906754597314821e+03 0.0000000000000000e+00 -4.5906754597314866e+03 -5.0076000506879454e+03 0.0000000000000000e+00 0.0000000000000000e+00 0.0000000000000000e+00 0.0000000000000000e+00  -8.5146542403213862e+03 -7.0223181346295605e+03 0.0000000000000000e+00 -7.0223181346295578e+03 -7.8065187361809249e+03 0.0000000000000000e+00 0.0000000000000000e+00 0.0000000000000000e+00 0.0000000000000000e+00  -3.4285110121814500e+03 -3.8046773191279103e+03 0.0000000000000000e+00 -3.8046773191279085e+03 -3.5639509011218420e+03 0.0000000000000000e+00 0.0000000000000000e+00 0.0000000000000000e+00 0.0000000000000000e+00  1.3910930833770780e+02 -2.9730361495032571e+02 0.0000000000000000e+00 -2.9730361495032560e+02 7.5799220311107829e+03 0.0000000000000000e+00 0.0000000000000000e+00 0.0000000000000000e+00 0.0000000000000000e+00  -8.6805781697649579e+01 3.9405626179831053e+01 0.0000000000000000e+00 3.9405626179831003e+01 -3.8916118265450500e+01 0.0000000000000000e+00 0.0000000000000000e+00 0.0000000000000000e+00 0.0000000000000000e+00  4.3307818047339479e+00 8.3582860951955134e+00 0.0000000000000000e+00 8.3582860951955098e+00 5.8165998416414141e+02 0.0000000000000000e+00 0.0000000000000000e+00 0.0000000000000000e+00 0.0000000000000000e+00  3.4479711921474863e+00 -1.1562209993407160e+01 0.0000000000000000e+00 -1.1562209993407198e+01 5.9448753325528980e+02 0.0000000000000000e+00 0.0000000000000000e+00 0.0000000000000000e+00 0.0000000000000000e+00  4.1426512579248417e+01 -2.5883977591184291e+00 0.0000000000000000e+00 -2.5883977591183491e+00 -1.8731635146055908e+01 0.0000000000000000e+00 0.0000000000000000e+00 0.0000000000000000e+00 0.0000000000000000e+00  -5.7184111884889628e+00 -1.2884962863540179e+00 0.0000000000000000e+00 -1.2884962863540175e+00 -3.2365973491003519e+00 0.0000000000000000e+00 0.0000000000000000e+00 0.0000000000000000e+00 0.0000000000000000e+00  6.8335903928990116e-01 3.5704887971389138e-01 0.0000000000000000e+00 3.5704887971389088e-01 1.0581653102915964e+00 0.0000000000000000e+00 0.0000000000000000e+00 0.0000000000000000e+00 0.0000000000000000e+00  -2.3370566401985506e+01 2.6310993219657803e+01 0.0000000000000000e+00 2.6310993219657796e+01 -2.0606998278658587e+01 0.0000000000000000e+00 0.0000000000000000e+00 0.0000000000000000e+00 0.0000000000000000e+00  -3.8569991454183125e+01 -5.2855341603148098e+01 0.0000000000000000e+00 -5.2855341603148126e+01 1.2427633084955112e+01 0.0000000000000000e+00 0.0000000000000000e+00 0.0000000000000000e+00 0.0000000000000000e+00  2.0182521938508870e+01 7.0049444545461057e+01 0.0000000000000000e+00 7.0049444545461142e+01 -3.3710404798042603e+01 0.0000000000000000e+00 0.0000000000000000e+00 0.0000000000000000e+00 0.0000000000000000e+00  -1.9352273544557868e+01 -6.9308961827221339e+01 0.0000000000000000e+00 -6.9308961827221168e+01 -6.7182659789104591e+01 0.0000000000000000e+00 0.0000000000000000e+00 0.0000000000000000e+00 0.0000000000000000e+00  -1.1353660030601048e+02 -7.7534773903063709e+01 0.0000000000000000e+00 -7.7534773903063751e+01 -1.0442707478089721e+02 0.0000000000000000e+00 0.0000000000000000e+00 0.0000000000000000e+00 0.0000000000000000e+00  -4.2584173488505421e+01 -2.6728944508134376e+01 0.0000000000000000e+00 -2.6728944508134418e+01 3.8481645358679728e-01 0.0000000000000000e+00 0.0000000000000000e+00 0.0000000000000000e+00 0.0000000000000000e+00  -1.2565904880725645e+00 -6.7128433830495615e-01 0.0000000000000000e+00 -6.7128433830495571e-01 -1.1329264259977592e-01 0.0000000000000000e+00 0.0000000000000000e+00 0.0000000000000000e+00 0.0000000000000000e+00  -5.1915835631282121e+00 -1.7376029013166436e+00 0.0000000000000000e+00 -1.7376029013166414e+00 -3.6659031985136465e+00 0.0000000000000000e+00 0.0000000000000000e+00 0.0000000000000000e+00 0.0000000000000000e+00  -4.7618520573314845e+03 5.7314121104224914e+03 0.0000000000000000e+00 5.7314121104224851e+03 -6.3203361320289960e+03 0.0000000000000000e+00 0.0000000000000000e+00 0.0000000000000000e+00 0.0000000000000000e+00  -7.2257521183674125e+03 5.7533992412569096e+03 0.0000000000000000e+00 5.7533992412569096e+03 -4.8399076779047818e+03 0.0000000000000000e+00 0.0000000000000000e+00 0.0000000000000000e+00 0.0000000000000000e+00  -5.4224477751883205e+03 5.9737789132126909e+03 0.0000000000000000e+00 5.9737789132126945e+03 -7.2189462846011693e+03 0.0000000000000000e+00 0.0000000000000000e+00 0.0000000000000000e+00 0.0000000000000000e+00  9.1976732844695078e+01 5.8226450631259588e+01 0.0000000000000000e+00 5.8226450631260064e+01 -1.0648309883489890e+04 0.0000000000000000e+00 0.0000000000000000e+00 0.0000000000000000e+00 0.0000000000000000e+00  -3.5822715995773228e+03 -4.5803003013291163e+03 0.0000000000000000e+00 -4.5803003013291145e+03 -4.9034487739734341e+03 0.0000000000000000e+00 0.0000000000000000e+00 0.0000000000000000e+00 0.0000000000000000e+00  -9.1411198786018540e+03 -7.1779296589243822e+03 0.0000000000000000e+00 -7.1779296589243786e+03 -7.4753517529285282e+03 0.0000000000000000e+00 0.0000000000000000e+00 0.0000000000000000e+00 0.0000000000000000e+00  -3.3318693851224493e+03 -3.7635515727485690e+03 0.0000000000000000e+00 -3.7635515727485640e+03 -4.4179329974906514e+03 0.0000000000000000e+00 0.0000000000000000e+00 0.0000000000000000e+00 0.0000000000000000e+00  -3.7902552679315548e+01 9.6079024511970683e+00 0.0000000000000000e+00 9.6079024511970772e+00 -1.3123518628981572e+01 0.0000000000000000e+00 0.0000000000000000e+00 0.0000000000000000e+00 0.0000000000000000e+00  3.7100683526596514e+00 5.7982128959284491e+00 0.0000000000000000e+00 5.7982128959284616e+00 5.8403288318662749e+02 0.0000000000000000e+00 0.0000000000000000e+00 0.0000000000000000e+00 0.0000000000000000e+00  1.4500097977279768e+02 1.1714722822489887e+02 0.0000000000000000e+00 1.1714722822489883e+02 7.0025721648602689e+02 0.0000000000000000e+00 0.0000000000000000e+00 0.0000000000000000e+00 0.0000000000000000e+00  -6.1620494120579451e+03 5.9311308990167799e+03 0.0000000000000000e+00 5.9311308990167836e+03 -5.3780961812157739e+03 0.0000000000000000e+00 0.0000000000000000e+00 0.0000000000000000e+00 0.0000000000000000e+00  -7.6352293076643609e+03 5.9527253857515161e+03 0.0000000000000000e+00 5.9527253857515152e+03 -9.7179179567284464e+03 0.0000000000000000e+00 0.0000000000000000e+00 0.0000000000000000e+00 0.0000000000000000e+00  -6.0289587150521211e+03 -6.0442370450479848e+03 0.0000000000000000e+00 -6.0442370450479848e+03 -5.3286749646618282e+03 0.0000000000000000e+00 0.0000000000000000e+00 0.0000000000000000e+00 0.0000000000000000e+00  -4.8182806728356927e+03 6.0454443590126721e+03 0.0000000000000000e+00 6.0454443590126712e+03 -2.0891567424706072e+03 0.0000000000000000e+00 0.0000000000000000e+00 0.0000000000000000e+00 0.0000000000000000e+00  -5.6867955124837226e+03 -5.7506596816961883e+03 0.0000000000000000e+00 -5.7506596816961792e+03 -6.4229790175664748e+03 0.0000000000000000e+00 0.0000000000000000e+00 0.0000000000000000e+00 0.0000000000000000e+00  -1.1984892149885163e+03 -1.1491281929554179e+03 0.0000000000000000e+00 -1.1491281929554195e+03 -8.7630017361031230e+02 0.0000000000000000e+00 0.0000000000000000e+00 0.0000000000000000e+00 0.0000000000000000e+00  -5.7288767259721353e+03 -5.6999049553206460e+03 0.0000000000000000e+00 -5.6999049553206469e+03 -5.2685237557996161e+03 0.0000000000000000e+00 0.0000000000000000e+00 0.0000000000000000e+00 0.0000000000000000e+00  -3.6391859157933038e+02 -4.0588480066429588e+02 0.0000000000000000e+00 -4.0588480066429588e+02 -8.2569816207639747e+02 0.0000000000000000e+00 0.0000000000000000e+00 0.0000000000000000e+00 0.0000000000000000e+00  3.5977503984951891e+03 2.9703523121432090e+02 0.0000000000000000e+00 2.9703523121432198e+02 1.5944566308340225e+04 0.0000000000000000e+00 0.0000000000000000e+00 0.0000000000000000e+00 0.0000000000000000e+00  -6.2398814335635041e+02 -5.9343361576573670e+02 0.0000000000000000e+00 -5.9343361576573602e+02 -4.0263717922175181e+02 0.0000000000000000e+00 0.0000000000000000e+00 0.0000000000000000e+00 0.0000000000000000e+00  -1.2725212003371601e+03 1.3451943474422928e+03 0.0000000000000000e+00 1.3451943474422903e+03 -1.0934279363202377e+03 0.0000000000000000e+00 0.0000000000000000e+00 0.0000000000000000e+00 0.0000000000000000e+00  -1.1364703227745426e+03 8.0964204060324766e+02 0.0000000000000000e+00 8.0964204060324823e+02 -6.2800100154619247e+02 0.0000000000000000e+00 0.0000000000000000e+00 0.0000000000000000e+00 0.0000000000000000e+00  4.2713656057428153e+02 -2.0368679295688779e+02 0.0000000000000000e+00 -2.0368679295688716e+02 -1.9725465559335851e+02 0.0000000000000000e+00 0.0000000000000000e+00 0.0000000000000000e+00 0.0000000000000000e+00  -5.0075673324059262e+03 -6.3992404701329760e+03 0.0000000000000000e+00 -6.3992404701329779e+03 -6.2091725456314607e+03 0.0000000000000000e+00 0.0000000000000000e+00 0.0000000000000000e+00 0.0000000000000000e+00  7.4032492741428985e+02 -9.6470124748959776e+01 0.0000000000000000e+00 -9.6470124748958355e+01 7.1893529261538752e+03 0.0000000000000000e+00 0.0000000000000000e+00 0.0000000000000000e+00 0.0000000000000000e+00  -5.3535713014301036e+03 -5.5785975029771662e+03 0.0000000000000000e+00 -5.5785975029771716e+03 -3.3965831934368271e+03 0.0000000000000000e+00 0.0000000000000000e+00 0.0000000000000000e+00 0.0000000000000000e+00  -4.5982680806381441e+03 6.3951078765651773e+03 0.0000000000000000e+00 6.3951078765651764e+03 -7.1307800369913803e+03 0.0000000000000000e+00 0.0000000000000000e+00 0.0000000000000000e+00 0.0000000000000000e+00  -6.7557052279262916e+03 -5.8685544749838209e+03 0.0000000000000000e+00 -5.8685544749838182e+03 -8.4077635765219256e+03 0.0000000000000000e+00 0.0000000000000000e+00 0.0000000000000000e+00 0.0000000000000000e+00  -5.4102811233584171e+03 5.5937531151818876e+03 0.0000000000000000e+00 5.5937531151818939e+03 -2.5337140182064240e+03 0.0000000000000000e+00 0.0000000000000000e+00 0.0000000000000000e+00 0.0000000000000000e+00  3.7595939277682413e+02 2.6265922144246329e+03 0.0000000000000000e+00 2.6265922144246329e+03 -2.9540575232485612e+03 0.0000000000000000e+00 0.0000000000000000e+00 0.0000000000000000e+00 0.0000000000000000e+00  -7.0039081656916505e+03 5.8407739280962296e+03 0.0000000000000000e+00 5.8407739280962342e+03 -8.4645282810498447e+03 0.0000000000000000e+00 0.0000000000000000e+00 0.0000000000000000e+00 0.0000000000000000e+00  -1.3991439078902731e+04 1.0918466591184811e+04 0.0000000000000000e+00 1.0918466591184815e+04 -1.8847223983485652e+04 0.0000000000000000e+00 0.0000000000000000e+00 0.0000000000000000e+00 0.0000000000000000e+00  8.2622298824749389e+00 9.9454800009172146e+01 0.0000000000000000e+00 9.9454800009174846e+01 -1.0517307127522767e+04 0.0000000000000000e+00 0.0000000000000000e+00 0.0000000000000000e+00 0.0000000000000000e+00  -2.2666326725472604e+02 -2.8418019745432071e+03 0.0000000000000000e+00 -2.8418019745432130e+03 8.5373451392786901e+03 0.0000000000000000e+00 0.0000000000000000e+00 0.0000000000000000e+00 0.0000000000000000e+00  -2.4122598023404521e+03 -1.9201648177381808e+03 0.0000000000000000e+00 -1.9201648177381805e+03 -1.7770744402866242e+03 0.0000000000000000e+00 0.0000000000000000e+00 0.0000000000000000e+00 0.0000000000000000e+00  7.3209220701302320e+02 -6.2713127750379567e+02 0.0000000000000000e+00 -6.2713127750379533e+02 1.2960605893519578e+04 0.0000000000000000e+00 0.0000000000000000e+00 0.0000000000000000e+00 0.0000000000000000e+00  -1.0394840950752556e+04 -1.0141694946204279e+04 0.0000000000000000e+00 -1.0141694946204283e+04 -1.5851534827123414e+04 0.0000000000000000e+00 0.0000000000000000e+00 0.0000000000000000e+00 0.0000000000000000e+00  -2.1339778820957847e+02 1.3439478296231500e+03 0.0000000000000000e+00 1.3439478296231514e+03 5.2734124960422814e+03 0.0000000000000000e+00 0.0000000000000000e+00 0.0000000000000000e+00 0.0000000000000000e+00  -6.0735107447453147e+03 6.0718552889824859e+03 0.0000000000000000e+00 6.0718552889824796e+03 -5.4535884813753546e+03 0.0000000000000000e+00 0.0000000000000000e+00 0.0000000000000000e+00 0.0000000000000000e+00  -5.6168980659054860e+03 5.7500677105121176e+03 0.0000000000000000e+00 5.7500677105121213e+03 -6.4342582344894699e+03 0.0000000000000000e+00 0.0000000000000000e+00 0.0000000000000000e+00 0.0000000000000000e+00  -6.9826328276614977e+03 -5.9084238586016700e+03 0.0000000000000000e+00 -5.9084238586016663e+03 -6.3766253854843071e+03 0.0000000000000000e+00 0.0000000000000000e+00 0.0000000000000000e+00 0.0000000000000000e+00  -5.7801664577857500e+03 5.7227350660271177e+03 0.0000000000000000e+00 5.7227350660271222e+03 -5.1150833169179605e+03 0.0000000000000000e+00 0.0000000000000000e+00 0.0000000000000000e+00 0.0000000000000000e+00  -6.6509322612523301e+03 -5.8766818666423842e+03 0.0000000000000000e+00 -5.8766818666423860e+03 -8.0523154271344210e+03 0.0000000000000000e+00 0.0000000000000000e+00 0.0000000000000000e+00 0.0000000000000000e+00  -1.5297287683044526e+03 -1.3195996686081141e+03 0.0000000000000000e+00 -1.3195996686081157e+03 -1.0943733035038056e+03 0.0000000000000000e+00 0.0000000000000000e+00 0.0000000000000000e+00 0.0000000000000000e+00  -4.9535692404583297e+03 -6.1436935384285498e+03 0.0000000000000000e+00 -6.1436935384285498e+03 -3.0493585242934982e+03 0.0000000000000000e+00 0.0000000000000000e+00 0.0000000000000000e+00 0.0000000000000000e+00  1.0282044157139251e+03 6.8087233948580081e+02 0.0000000000000000e+00 6.8087233948580058e+02 2.8