<?xml version="1.0"?>
<VTKFile type="UnstructuredGrid"  version="0.1"  >
<UnstructuredGrid>
<Piece  NumberOfPoints="4855" NumberOfCells="8780">
<Points>
<DataArray  type="Float64"  NumberOfComponents="3"  format="ascii">0.9483880164242298 0.6836931311526558 0  0.9494264999197789 0.6847056440044139 0  0.9494005292759887 0.6847228078606633 0  0.9735520289385229 0.7444444444444445 0  0.9494005292759886 0.8041660810282256 0  0.94942649991978 0.8041832448844759 0  0.9483880175070514 0.8051957566534116 0  3.131175874138137e-16 0.09811450876034808 0  0.06838800723463068 0.1543033514199101 0  0.05161198249294494 0.1948042433465922 0  0.0505735000802211 0.1958167551155251 0  0.05059947072401128 0.1958339189717744 0  0.0505994707240113 0.3152771921393367 0  0.05057350008021998 0.315294355995587 0  0.05161198357913653 0.3163068688507105 0  0.06838800723463068 0.356807759691201 0  3.252606517456513e-16 0.4129966023507631 0  -1.795438797635995e-16 0.4839416311832997 0  0.07083274769489223 0.4605116403870998 0  0.07084991155114129 0.4605376110308903 0  0.07186242331670639 0.4594991286215342 0  0.1696402113702762 0.5 0  0.07186242332008326 0.5405008713818427 0  0.0708499115511413 0.5394623889691096 0  0.07083274769489219 0.5394883596129002 0  -1.925543058334256e-16 0.5160583688167003 0  1.484923295436147e-15 0.5870033976492365 0  0.06838800723463068 0.643192240308799 0  0.05161198249294541 0.6836931322354806 0  0.05057350008022109 0.6847056440044139 0  0.0505994707240113 0.6847228078606633 0  0.0505994707240113 0.8041660810282256 0  0.05057350008021999 0.804183244884476 0  0.05161198249294764 0.8051957566534106 0  0.06838800723463068 0.84569664858009 0  1.485790657174135e-15 0.9018854912396524 0  0 1 0  1 1 0  0.9999999999999987 0.9018854912396523 0  1.000000000000001 0.5870033976492375 0  1 0.5160583688167003 0  0.9291672523051078 0.5394883596129003 0  0.9291500884488585 0.5394623889691117 0  0.9281375755937461 0.5405008724680134 0  0.9281375755937372 0.4594991275319777 0  0.9291500884488586 0.4605376110308884 0  0.9291672523051077 0.4605116403870997 0  1 0.4839416311832997 0  0.9999999999999987 0.4129966023507635 0  0.948388017507054 0.31630686776452 0  0.94942649991978 0.3152943559955871 0  0.9494005292759886 0.3152771921393367 0  0.9735520289385229 0.2555555555555555 0  0.9494005292759888 0.1958339189717744 0  0.9494264999197789 0.1958167551155251 0  0.9483880164208631 0.1948042422604003 0  1.000000000000001 0.09811450876034861 0  1 0 0  0 0 0  0.1958339189717744 0.2950439151684559 0  0.1958167551155252 0.2950179445246672 0  0.3152771921393367 0.2950439151684557 0  0.1948042433481841 0.2960564269357975 0  0.3152943559955858 0.2950179445246651 0  0.1948042422604031 0.2150546830875326 0  0.3163068677645244 0.2960564269373949 0  0.1958167551155251 0.2160931665864439 0  0.4140846558147206 0.2555555555555555 0  0.1958339189717744 0.2160671959426553 0  0.3163068688489276 0.215054683089313 0  0.3152771921393367 0.2160671959426553 0  0.3152943559955858 0.2160931665864459 0  0.5405008724680257 0.3163068688507107 0  0.5572768961235196 0.356807759691201 0  0.5394623889691089 0.3152943559955871 0  0.459499128618165 0.3163068677645201 0  0.5394883596129003 0.3152771921393367 0  0.4605376110308911 0.3152943559955871 0  0.5394883596129001 0.1958339189717744 0  0.4605116403870998 0.3152771921393367 0  0.53946238896911 0.1958167551155251 0  0.4846631400496339 0.2555555555555555 0  0.5405008724680251 0.1948042422604009 0  0.4605116403870998 0.1958339189717744 0  0.5572768961235196 0.1543033514199101 0  0.46053761103089 0.1958167551155251 0  0.4594991286269881 0.1948042433554141 0  0.6847228078606633 0.2950439151684559 0  0.684705644004414 0.2950179445246672 0  0.8041660810282256 0.2950439151684557 0  0.683693131164073 0.2960564280087975 0  0.8041832448844747 0.2950179445246651 0  0.6836931322354718 0.2150546841737125 0  0.8051957566534156 0.2960564269373971 0  0.6847056440044141 0.2160931665864439 0  0.9029735447036096 0.2555555555555555 0  0.6847228078606632 0.2160671959426553 0  0.8051957577274008 0.2150546830997286 0  0.8041660810282256 0.2160671959426553 0  0.8041832448844747 0.2160931665864459 0  0.2960564280235811 0.560751313295155 0  0.3128324516790751 0.6012522041356455 0  0.2950179445246645 0.5597388004400315 0  0.2150546830875235 0.5607513132951615 0  0.2950439151684557 0.5597216365837812 0  0.2160931665864466 0.5597388004400314 0  0.2950439151684558 0.4402783634162188 0  0.2160671959426553 0.5597216365837812 0  0.2950179445246656 0.4402611995599696 0  0.2402186956051895 0.5 0  0.29605642693739 0.439248687791036 0  0.2160671959426553 0.4402783634162189 0  0.3128324516790751 0.3987477958643545 0  0.2160931665864455 0.4402611995599696 0  0.2150546830875296 0.4392486867048446 0  0.1958339189717743 0.7839328040573448 0  0.1958167551155252 0.7839068334135562 0  0.3152771921393367 0.7839328040573447 0  0.1948042422604028 0.7849453169124678 0  0.3152943559955858 0.783906833413554 0  0.1948042433465913 0.7039435730626098 0  0.3163068677645284 0.7849453158262878 0  0.1958167551155251 0.7049820554753328 0  0.4140846558147206 0.7444444444444445 0  0.1958339189717744 0.7049560848315441 0  0.3163068688486237 0.7039435719785058 0  0.3152771921393367 0.7049560848315441 0  0.3152943559955858 0.7049820554753349 0  0.4402783634162188 0.5394883596129003 0  0.4402611995599696 0.5394623889691117 0  0.5597216365837812 0.5394883596129002 0  0.4392486867048468 0.5405008724680237 0  0.5597388004400302 0.5394623889691096 0  0.4392486877998708 0.4594991286270004 0  0.5607513122089726 0.540500871381843 0  0.4402611995599696 0.4605376110308884 0  0.6585291002591651 0.5 0  0.4402783634162188 0.4605116403870998 0  0.5607513121946796 0.45949912863245 0  0.5597216365837812 0.4605116403870998 0  0.5597388004400302 0.4605376110308904 0  0.78494531690701 0.5607513132896949 0  0.8017213405679641 0.6012522041356455 0  0.7839068334135535 0.5597388004400315 0  0.7039435730626069 0.5607513122089671 0  0.7839328040573448 0.5597216365837812 0  0.7049820554753355 0.5597388004400314 0  0.7839328040573448 0.4402783634162188 0  0.7049560848315441 0.5597216365837812 0  0.7839068334135545 0.4402611995599696 0  0.7291075844940784 0.5 0  0.784945315826279 0.4392486877910359 0  0.7049560848315444 0.4402783634162188 0  0.8017213405679641 0.3987477958643545 0  0.7049820554753344 0.4402611995599696 0  0.7039435719764182 0.4392486867048443 0  0.5405008724625655 0.8051957577341393 0  0.5572768961235196 0.84569664858009 0  0.539462388969109 0.804183244884476 0  0.4594991286181648 0.8051957566534091 0  0.5394883596129003 0.8041660810282256 0  0.4605376110308911 0.804183244884476 0  0.5394883596129003 0.6847228078606633 0  0.4605116403870998 0.8041660810282256 0  0.53946238896911 0.6847056440044139 0  0.4846631400496339 0.7444444444444445 0  0.5405008713818347 0.6836931322354802 0  0.4605116403870998 0.6847228078606633 0  0.5572768961235196 0.643192240308799 0  0.46053761103089 0.6847056440044139 0  0.4594991275353449 0.6836931311526599 0  0.6847228078606633 0.7839328040573448 0  0.684705644004414 0.7839068334135562 0  0.8041660810282256 0.7839328040573447 0  0.6836931311493016 0.7849453169124578 0  0.8041832448844747 0.783906833413554 0  0.68369313223548 0.7039435730626096 0  0.805195756653417 0.7849453158262875 0  0.6847056440044141 0.7049820554753328 0  0.9029735447036096 0.7444444444444445 0  0.6847228078606633 0.7049560848315441 0  0.805195757738809 0.7039435719772094 0  0.8041660810282256 0.7049560848315441 0  0.8041832448844747 0.7049820554753349 0  0.9578164230213342 0.6948838683471341 0  0.9645772892192558 0.7062137009141434 0  0.9695236884064815 0.7184451175460498 0  0.972538971146615 0.7312896684428197 0  0.9725389711466151 0.7575992204460691 0  0.9695236884064815 0.7704437713428391 0  0.9645772892192558 0.7826751879747456 0  0.9578164230213342 0.7940050205417549 0  0.01437766570919127 0.09711967848259151 0  0.02854851642641832 0.09974531144948819 0  0.04161535472570586 0.1058251712658871 0  0.05275088139110013 0.1149743244732108 0  0.06125007411586489 0.1266135117968212 0  0.06657482449792251 0.1400058227212122 0  0.06643634307317195 0.1691277076584997 0  0.06071435336153361 0.1829418078690686 0  0.04134737123322858 0.3039103077764334 0  0.03416190609801732 0.2911362521989113 0  0.02925217947541549 0.2773267630846004 0  0.02676106927623143 0.2628837102534819 0  0.02676106927623143 0.2482274008576293 0  0.02925217947541547 0.2337843480265108 0  0.03416190609801727 0.2199748589121999 0  0.04134737123322851 0.2072008033346779 0  0.06071435387356935 0.328169304128914 0  0.06643634320569657 0.3419834039471998 0  0.06657482449792249 0.371105288389899 0  0.06125007411586481 0.3844975993142901 0  0.05275088139109994 0.3961367866379005 0  0.04161535472570563 0.4052859398452242 0  0.02854851642641818 0.411365799661623 0  0.01437766570919127 0.4139914326285196 0  0 0.4697526254167924 0  0 0.455563619650285 0  0 0.4413746138837777 0  0 0.4271856081172704 0  0.06095233986089402 0.4687284952262988 0  0.04995687430503332 0.4753797281664747 0  0.03809234373417287 0.4803165365228644 0  0.02562418374773841 0.4834284730529493 0  0.01283133446055119 0.4846459169037758 0  0.08372485599813187 0.4503967593658507 0  0.09753895276796982 0.4446747697099958 0  0.1123633055586467 0.4427231038764812 0  0.1271876590095525 0.4446747646950606 0  0.1410017577150834 0.45039674967774 0  0.1528641934757506 0.4594991149204779 0  0.161966560724962 0.471361549141524 0  0.1676885480442292 0.4851756468792086 0  0.1676885480443665 0.514824353120279 0  0.1619665607254926 0.528638450857557 0  0.1528641934768762 0.5405008850783964 0  0.1410017577169217 0.5496032503211987 0  0.1271876590121153 0.5553252353042526 0  0.1123633055618306 0.5572768961235188 0  0.09753895277155772 0.5553252302909656 0  0.08372485600180817 0.5496032406362719 0  0.0128313344605512 0.5153540830962242 0  0.0256241837477384 0.5165715269470507 0  0.03809234373417282 0.5196834634771356 0  0.04995687430503334 0.5246202718335253 0  0.06095233986089401
[...]
<PointData  Tensors="$\sigma$"> 
<DataArray  type="Float64"  Name="$\sigma$"  NumberOfComponents="9" format="ascii">-1.4955781173243290e+03 -1.6077261576458573e+03 0.0000000000000000e+00 -1.6077261576458573e+03 -1.4562318147991036e+03 0.0000000000000000e+00 0.0000000000000000e+00 0.0000000000000000e+00 0.0000000000000000e+00  -2.8764817514903907e+03 -2.4067413254058320e+03 0.0000000000000000e+00 -2.4067413254058320e+03 -2.4568159445619845e+03 0.0000000000000000e+00 0.0000000000000000e+00 0.0000000000000000e+00 0.0000000000000000e+00  -1.1662841201747801e+03 -1.7025492167208852e+03 0.0000000000000000e+00 -1.7025492167208852e+03 -1.9279957238436298e+03 0.0000000000000000e+00 0.0000000000000000e+00 0.0000000000000000e+00 0.0000000000000000e+00  9.2849498188298483e+01 3.4991850391427619e+01 0.0000000000000000e+00 3.4991850391427619e+01 -2.7863017052564728e+03 0.0000000000000000e+00 0.0000000000000000e+00 0.0000000000000000e+00 0.0000000000000000e+00  -1.0472118533151242e+03 1.3762825489470113e+03 0.0000000000000000e+00 1.3762825489470113e+03 -1.5753979149993249e+03 0.0000000000000000e+00 0.0000000000000000e+00 0.0000000000000000e+00 0.0000000000000000e+00  -2.2436756597200338e+03 2.0529244130838474e+03 0.0000000000000000e+00 2.0529244130838474e+03 -2.2535003393549614e+03 0.0000000000000000e+00 0.0000000000000000e+00 0.0000000000000000e+00 0.0000000000000000e+00  -1.1427588127113086e+03 1.1300403821669443e+03 0.0000000000000000e+00 1.1300403821669443e+03 -8.0835242051635419e+02 0.0000000000000000e+00 0.0000000000000000e+00 0.0000000000000000e+00 0.0000000000000000e+00  -1.2143016726404056e+01 -3.5484553529836620e+00 0.0000000000000000e+00 -3.5484553529836620e+00 -9.8337839297756986e+00 0.0000000000000000e+00 0.0000000000000000e+00 0.0000000000000000e+00 0.0000000000000000e+00  8.0365290709739838e+01 3.0034736374279181e+01 0.0000000000000000e+00 3.0034736374279181e+01 3.4567338331624242e+03 0.0000000000000000e+00 0.0000000000000000e+00 0.0000000000000000e+00 0.0000000000000000e+00  -1.1050424448082674e+03 1.1168735999947355e+03 0.0000000000000000e+00 1.1168735999947355e+03 -8.8436244963636420e+02 0.0000000000000000e+00 0.0000000000000000e+00 0.0000000000000000e+00 0.0000000000000000e+00  -2.2477774070481837e+03 1.9815042817085323e+03 0.0000000000000000e+00 1.9815042817085323e+03 -2.1606257219195650e+03 0.0000000000000000e+00 0.0000000000000000e+00 0.0000000000000000e+00 0.0000000000000000e+00  -9.6806571479234321e+02 1.3507531243171859e+03 0.0000000000000000e+00 1.3507531243171859e+03 -1.4892025395232522e+03 0.0000000000000000e+00 0.0000000000000000e+00 0.0000000000000000e+00 0.0000000000000000e+00  -1.1402863122504623e+03 -1.6007783993534463e+03 0.0000000000000000e+00 -1.6007783993534463e+03 -1.8014381846264173e+03 0.0000000000000000e+00 0.0000000000000000e+00 0.0000000000000000e+00 0.0000000000000000e+00  -2.8165155615423550e+03 -2.3277799322565584e+03 0.0000000000000000e+00 -2.3277799322565584e+03 -2.3730872876680828e+03 0.0000000000000000e+00 0.0000000000000000e+00 0.0000000000000000e+00 0.0000000000000000e+00  -1.4037860953647642e+03 -1.6178499396333768e+03 0.0000000000000000e+00 -1.6178499396333771e+03 -1.4805682974234001e+03 0.0000000000000000e+00 0.0000000000000000e+00 0.0000000000000000e+00 0.0000000000000000e+00  5.3883058634184131e+01 -1.1118766898731717e+01 0.0000000000000000e+00 -1.1118766898731717e+01 1.3285438581816190e+03 0.0000000000000000e+00 0.0000000000000000e+00 0.0000000000000000e+00 0.0000000000000000e+00  3.2319108099505778e-01 -2.6930425217807552e-01 0.0000000000000000e+00 -2.6930425217807552e-01 -1.8278679474306161e+00 0.0000000000000000e+00 0.0000000000000000e+00 0.0000000000000000e+00 0.0000000000000000e+00  -5.4174127396734773e-02 9.4343198403390283e-02 0.0000000000000000e+00 9.4343198403390283e-02 1.3744105245119337e-01 0.0000000000000000e+00 0.0000000000000000e+00 0.0000000000000000e+00 0.0000000000000000e+00  -1.7106785407509332e+01 1.4205150542695359e+01 0.0000000000000000e+00 1.4205150542695364e+01 -7.3684979011745657e+00 0.0000000000000000e+00 0.0000000000000000e+00 0.0000000000000000e+00 0.0000000000000000e+00  -3.7196470079345771e+00 4.7426178979346290e+00 0.0000000000000000e+00 4.7426178979346334e+00 -1.7399158303691294e+01 0.0000000000000000e+00 0.0000000000000000e+00 0.0000000000000000e+00 0.0000000000000000e+00  -3.9932642241438941e+01 4.2766840696629288e+01 0.0000000000000000e+00 4.2766840696629281e+01 -3.5081148743866166e+01 0.0000000000000000e+00 0.0000000000000000e+00 0.0000000000000000e+00 0.0000000000000000e+00  1.3385114976715113e+03 1.2327585455681594e+02 0.0000000000000000e+00 1.2327585455681594e+02 1.4601243332430537e+04 0.0000000000000000e+00 0.0000000000000000e+00 0.0000000000000000e+00 0.0000000000000000e+00  -4.0106784681298834e+01 -5.5955446804625304e+01 0.0000000000000000e+00 -5.5955446804625304e+01 -3.1437631848880415e+01 0.0000000000000000e+00 0.0000000000000000e+00 0.0000000000000000e+00 0.0000000000000000e+00  6.0147646864257647e+00 1.4930861628237212e+01 0.0000000000000000e+00 1.4930861628237219e+01 -1.2750040805600090e+01 0.0000000000000000e+00 0.0000000000000000e+00 0.0000000000000000e+00 0.0000000000000000e+00  -1.7207663002591861e+01 -1.2737673465373501e+01 0.0000000000000000e+00 -1.2737673465373508e+01 -3.8702735567902118e+00 0.0000000000000000e+00 0.0000000000000000e+00 0.0000000000000000e+00 0.0000000000000000e+00  -1.0958735995004726e-01 -1.4302448231430001e-01 0.0000000000000000e+00 -1.4302448231430021e-01 7.1381488795818501e-02 0.0000000000000000e+00 0.0000000000000000e+00 0.0000000000000000e+00 0.0000000000000000e+00  1.0506686143257820e+00 -8.6067624811465537e-01 0.0000000000000000e+00 -8.6067624811465504e-01 -3.8871417222822374e-01 0.0000000000000000e+00 0.0000000000000000e+00 0.0000000000000000e+00 0.0000000000000000e+00  4.8553688304553994e+01 -2.8513674724213363e+01 0.0000000000000000e+00 -2.8513674724213363e+01 1.3501976644297420e+03 0.0000000000000000e+00 0.0000000000000000e+00 0.0000000000000000e+00 0.0000000000000000e+00  -1.3882696568902568e+03 1.6189086641248555e+03 0.0000000000000000e+00 1.6189086641248557e+03 -1.4664506973911828e+03 0.0000000000000000e+00 0.0000000000000000e+00 0.0000000000000000e+00 0.0000000000000000e+00  -2.7261859825022780e+03 2.1700820669681252e+03 0.0000000000000000e+00 2.1700820669681252e+03 -2.0188847254998939e+03 0.0000000000000000e+00 0.0000000000000000e+00 0.0000000000000000e+00 0.0000000000000000e+00  -1.0552288075618928e+03 1.5598146954520555e+03 0.0000000000000000e+00 1.5598146954520555e+03 -2.0056859608517764e+03 0.0000000000000000e+00 0.0000000000000000e+00 0.0000000000000000e+00 0.0000000000000000e+00  -9.6419024708120128e+02 -1.3594486071206925e+03 0.0000000000000000e+00 -1.3594486071206929e+03 -1.5148276002341877e+03 0.0000000000000000e+00 0.0000000000000000e+00 0.0000000000000000e+00 0.0000000000000000e+00  -2.2201558028293102e+03 -1.9447487800168053e+03 0.0000000000000000e+00 -1.9447487800168046e+03 -2.1706712426119125e+03 0.0000000000000000e+00 0.0000000000000000e+00 0.0000000000000000e+00 0.0000000000000000e+00  -1.1203664242507998e+03 -1.1286358206728039e+03 0.0000000000000000e+00 -1.1286358206728046e+03 -8.1974950467247993e+02 0.0000000000000000e+00 0.0000000000000000e+00 0.0000000000000000e+00 0.0000000000000000e+00  2.0893526698211846e+02 -1.0944526355063191e+02 0.0000000000000000e+00 -1.0944526355063186e+02 3.2047404400571818e+03 0.0000000000000000e+00 0.0000000000000000e+00 0.0000000000000000e+00 0.0000000000000000e+00  -2.4755493877310748e+01 1.7321465288229486e+01 0.0000000000000000e+00 1.7321465288229472e+01 -1.3410730737139648e+01 0.0000000000000000e+00 0.0000000000000000e+00 0.0000000000000000e+00 0.0000000000000000e+00  -4.5733686233245413e-01 3.4602075868194064e+00 0.0000000000000000e+00 3.4602075868194078e+00 2.3339990304559865e+02 0.0000000000000000e+00 0.0000000000000000e+00 0.0000000000000000e+00 0.0000000000000000e+00  -9.3449479646052474e-03 -3.2264491959396522e+00 0.0000000000000000e+00 -3.2264491959396504e+00 2.3682972965210362e+02 0.0000000000000000e+00 0.0000000000000000e+00 0.0000000000000000e+00 0.0000000000000000e+00  -1.0112876530525474e+01 -3.1708761340562446e+00 0.0000000000000000e+00 -3.1708761340562428e+00 -1.3769855378217356e+01 0.0000000000000000e+00 0.0000000000000000e+00 0.0000000000000000e+00 0.0000000000000000e+00  2.6518203552112268e-01 -2.2200203256531331e-01 0.0000000000000000e+00 -2.2200203256531287e-01 -1.8647372559277544e+00 0.0000000000000000e+00 0.0000000000000000e+00 0.0000000000000000e+00 0.0000000000000000e+00  -9.4270119860775256e-02 1.0810495267230688e-01 0.0000000000000000e+00 1.0810495267230684e-01 8.6396271432134950e-02 0.0000000000000000e+00 0.0000000000000000e+00 0.0000000000000000e+00 0.0000000000000000e+00  -2.4863137357364174e+01 2.0999557207126408e+01 0.0000000000000000e+00 2.0999557207126429e+01 -1.1006228950081727e+01 0.0000000000000000e+00 0.0000000000000000e+00 0.0000000000000000e+00 0.0000000000000000e+00  -2.2317726368935972e+01 9.0365505840259051e+00 0.0000000000000000e+00 9.0365505840258891e+00 -2.2016770937793499e+01 0.0000000000000000e+00 0.0000000000000000e+00 0.0000000000000000e+00 0.0000000000000000e+00  -2.1356815832389842e+01 4.1921884753512252e+01 0.0000000000000000e+00 4.1921884753512266e+01 -3.5386235376495662e+01 0.0000000000000000e+00 0.0000000000000000e+00 0.0000000000000000e+00 0.0000000000000000e+00  -3.5660247678512732e+01 -4.8863619472814236e+01 0.0000000000000000e+00 -4.8863619472814243e+01 -3.3545787585060118e+01 0.0000000000000000e+00 0.0000000000000000e+00 0.0000000000000000e+00 0.0000000000000000e+00  -1.1817084355861198e+01 -1.0180046081053643e+01 0.0000000000000000e+00 -1.0180046081053643e+01 -2.8383773811032125e+01 0.0000000000000000e+00 0.0000000000000000e+00 0.0000000000000000e+00 0.0000000000000000e+00  -2.0090806404852703e+01 -9.5831116301369050e+00 0.0000000000000000e+00 -9.5831116301369121e+00 -2.9299817039721265e+00 0.0000000000000000e+00 0.0000000000000000e+00 0.0000000000000000e+00 0.0000000000000000e+00  4.3797240581077049e-02 -9.0970568391614465e-02 0.0000000000000000e+00 -9.0970568391614756e-02 1.0351079749715281e-01 0.0000000000000000e+00 0.0000000000000000e+00 0.0000000000000000e+00 0.0000000000000000e+00  -1.1591824668013624e+00 -4.1620879766101182e-01 0.0000000000000000e+00 -4.1620879766101160e-01 -6.7486949343035074e-01 0.0000000000000000e+00 0.0000000000000000e+00 0.0000000000000000e+00 0.0000000000000000e+00  -1.4241631748491673e+03 1.5168866836644168e+03 0.0000000000000000e+00 1.5168866836644168e+03 -1.2976314465158771e+03 0.0000000000000000e+00 0.0000000000000000e+00 0.0000000000000000e+00 0.0000000000000000e+00  -2.7190679683514759e+03 2.3088177499892795e+03 0.0000000000000000e+00 2.3088177499892795e+03 -2.3565993418999524e+03 0.0000000000000000e+00 0.0000000000000000e+00 0.0000000000000000e+00 0.0000000000000000e+00  -1.1589044352603069e+03 1.6528881757955519e+03 0.0000000000000000e+00 1.6528881757955517e+03 -1.9474233500380055e+03 0.0000000000000000e+00 0.0000000000000000e+00 0.0000000000000000e+00 0.0000000000000000e+00  8.8837787652898200e+01 2.8660416087514253e+01 0.0000000000000000e+00 2.8660416087514253e+01 -2.7857829648802749e+03 0.0000000000000000e+00 0.0000000000000000e+00 0.0000000000000000e+00 0.0000000000000000e+00  -9.6194467540771825e+02 -1.4094039790168699e+03 0.0000000000000000e+00 -1.4094039790168699e+03 -1.5529921128037738e+03 0.0000000000000000e+00 0.0000000000000000e+00 0.0000000000000000e+00 0.0000000000000000e+00  -2.4963741205616507e+03 -2.2084203201603309e+03 0.0000000000000000e+00 -2.2084203201603309e+03 -2.3152594235840120e+03 0.0000000000000000e+00 0.0000000000000000e+00 0.0000000000000000e+00 0.0000000000000000e+00  -1.1251192289489804e+03 -1.1028808446786782e+03 0.0000000000000000e+00 -1.1028808446786782e+03 -9.5846820571247213e+02 0.0000000000000000e+00 0.0000000000000000e+00 0.0000000000000000e+00 0.0000000000000000e+00  -2.5627199773189204e+01 1.3355571454362146e+01 0.0000000000000000e+00 1.3355571454362151e+01 -2.6682675540818637e+00 0.0000000000000000e+00 0.0000000000000000e+00 0.0000000000000000e+00 0.0000000000000000e+00  -7.9823014993128505e-01 2.6904608352580346e+00 0.0000000000000000e+00 2.6904608352580355e+00 2.3726240987040279e+02 0.0000000000000000e+00 0.0000000000000000e+00 0.0000000000000000e+00 0.0000000000000000e+00  7.1134019441573301e+01 5.4585176352577150e+01 0.0000000000000000e+00 5.4585176352577150e+01 2.8662716080682225e+02 0.0000000000000000e+00 0.0000000000000000e+00 0.0000000000000000e+00 0.0000000000000000e+00  -3.5995012451383059e+03 2.9303199400876451e+03 0.0000000000000000e+00 2.9303199400876451e+03 -2.1125233849950901e+03 0.0000000000000000e+00 0.0000000000000000e+00 0.0000000000000000e+00 0.0000000000000000e+00  -2.5414781885251409e+03 3.4297547142479834e+03 0.0000000000000000e+00 3.4297547142479834e+03 -4.7940431305589282e+03 0.0000000000000000e+00 0.0000000000000000e+00 0.0000000000000000e+00 0.0000000000000000e+00  -2.6561504915583328e+03 -2.1895052045572506e+03 0.0000000000000000e+00 -2.1895052045572506e+03 -1.5295742525782584e+03 0.0000000000000000e+00 0.0000000000000000e+00 0.0000000000000000e+00 0.0000000000000000e+00  -4.3304524679536898e+03 3.8208869913323156e+03 0.0000000000000000e+00 3.8208869913323156e+03 -2.8806716314385344e+03 0.0000000000000000e+00 0.0000000000000000e+00 0.0000000000000000e+00 0.0000000000000000e+00  -1.9579840061569726e+03 -2.3744108371638349e+03 0.0000000000000000e+00 -2.3744108371638349e+03 -3.3740649844782070e+03 0.0000000000000000e+00 0.0000000000000000e+00 0.0000000000000000e+00 0.0000000000000000e+00  -5.8280778976137526e+02 -5.0753637751815546e+02 0.0000000000000000e+00 -5.0753637751815546e+02 -3.7947902615225030e+02 0.0000000000000000e+00 0.0000000000000000e+00 0.0000000000000000e+00 0.0000000000000000e+00  -2.8997081041136189e+03 -2.7604214399179109e+03 0.0000000000000000e+00 -2.7604214399179109e+03 -2.1342728254607173e+03 0.0000000000000000e+00 0.0000000000000000e+00 0.0000000000000000e+00 0.0000000000000000e+00  -2.3453549607386162e+02 -2.7161932098769836e+02 0.0000000000000000e+00 -2.7161932098769836e+02 -4.1712144084477762e+02 0.0000000000000000e+00 0.0000000000000000e+00 0.0000000000000000e+00 0.0000000000000000e+00  8.8760245128378540e+02 -8.8825731068739594e+02 0.0000000000000000e+00 -8.8825731068739617e+02 1.2139691465989532e+04 0.0000000000000000e+00 0.0000000000000000e+00 0.0000000000000000e+00 0.0000000000000000e+00  -2.5715787732384297e+02 -2.7707373108174647e+02 0.0000000000000000e+00 -2.7707373108174647e+02 -2.1800192510997229e+02 0.0000000000000000e+00 0.0000000000000000e+00 0.0000000000000000e+00 0.0000000000000000e+00  -7.7220813411189908e+02 6.3948922866716543e+02 0.0000000000000000e+00 6.3948922866716543e+02 -4.1499287575167654e+02 0.0000000000000000e+00 0.0000000000000000e+00 0.0000000000000000e+00 0.0000000000000000e+00  -5.1050258625665833e+02 3.8037460160438064e+02 0.0000000000000000e+00 3.8037460160438064e+02 -2.7823490475691455e+02 0.0000000000000000e+00 0.0000000000000000e+00 0.0000000000000000e+00 0.0000000000000000e+00  1.3969119054567483e+02 8.3507660998599107e+01 0.0000000000000000e+00 8.3507660998599107e+01 -3.5876946737976056e+02 0.0000000000000000e+00 0.0000000000000000e+00 0.0000000000000000e+00 0.0000000000000000e+00  -2.1626966186620762e+03 -2.5043376783612698e+03 0.0000000000000000e+00 -2.5043376783612698e+03 -2.2508293631077486e+03 0.0000000000000000e+00 0.0000000000000000e+00 0.0000000000000000e+00 0.0000000000000000e+00  1.8062544079693461e+02 -2.9503258215177902e+02 0.0000000000000000e+00 -2.9503258215177902e+02 1.9344674524464788e+03 0.0000000000000000e+00 0.0000000000000000e+00 0.0000000000000000e+00 0.0000000000000000e+00  -3.7930823717710023e+03 -2.9774169398926906e+03 0.0000000000000000e+00 -2.9774169398926906e+03 -2.9718651660498472e+03 0.0000000000000000e+00 0.0000000000000000e+00 0.0000000000000000e+00 0.0000000000000000e+00  -2.1440958119987408e+03 2.5688551754741552e+03 0.0000000000000000e+00 2.5688551754741547e+03 -2.3686873920261523e+03 0.0000000000000000e+00 0.0000000000000000e+00 0.0000000000000000e+00 0.0000000000000000e+00  -1.5785698896849522e+03 -2.3260539460885479e+03 0.0000000000000000e+00 -2.3260539460885479e+03 -2.7388008513564819e+03 0.0000000000000000e+00 0.0000000000000000e+00 0.0000000000000000e+00 0.0000000000000000e+00  -3.7093451498041909e+03 2.9409272480933705e+03 0.0000000000000000e+00 2.9409272480933705e+03 -2.7688537872044194e+03 0.0000000000000000e+00 0.0000000000000000e+00 0.0000000000000000e+00 0.0000000000000000e+00  1.0258708603246435e+01 6.6676850831371453e+01 0.0000000000000000e+00 6.6676850831371510e+01 2.8193485008967624e+01 0.0000000000000000e+00 0.0000000000000000e+00 0.0000000000000000e+00 0.0000000000000000e+00  -1.7220485909689323e+03 2.3328453353854979e+03 0.0000000000000000e+00 2.3328453353854984e+03 -2.8809636904095587e+03 0.0000000000000000e+00 0.0000000000000000e+00 0.0000000000000000e+00 0.0000000000000000e+00  -7.6081722584734291e+02 1.3688615579966877e+03 0.0000000000000000e+00 1.3688615579966879e+03 -2.0251883559860789e+03 0.0000000000000000e+00 0.0000000000000000e+00 0.0000000000000000e+00 0.0000000000000000e+00  1.3662972583200428e+02 -4.1728103905763639e+01 0.0000000000000000e+00 -4.1728103905763696e+01 -2.8378824106024117e+03 0.0000000000000000e+00 0.0000000000000000e+00 0.0000000000000000e+00 0.0000000000000000e+00  5.9976565206047394e+02 -1.3709161296538325e+03 0.0000000000000000e+00 -1.3709161296538327e+03 1.9740792225225639e+03 0.0000000000000000e+00 0.0000000000000000e+00 0.0000000000000000e+00 0.0000000000000000e+00  -1.0118761803176479e+02 6.2818719293013871e+01 0.0000000000000000e+00 6.2818719293013871e+01 4.3191615046965825e+02 0.0000000000000000e+00 0.0000000000000000e+00 0.0000000000000000e+00 0.0000000000000000e+00  2.0799381047240809e+02 -1.7714545132568693e+02 0.0000000000000000e+00 -1.7714545132568693e+02 1.0402944327826110e+04 0.0000000000000000e+00 0.0000000000000000e+00 0.0000000000000000e+00 0.0000000000000000e+00  -5.8615446777440854e+02 -1.4159518825108346e+03 0.0000000000000000e+00 -1.4159518825108346e+03 -2.4312878013855316e+03 0.0000000000000000e+00 0.0000000000000000e+00 0.0000000000000000e+00 0.0000000000000000e+00  4.6707558308771644e+02 1.2480187782174289e+03 0.0000000000000000e+00 1.2480187782174289e+03 1.9813766937414318e+03 0.0000000000000000e+00 0.0000000000000000e+00 0.0000000000000000e+00 0.0000000000000000e+00  -2.6496361070979870e+03 2.1861266034476475e+03 0.0000000000000000e+00 2.1861266034476475e+03 -1.5903547852888207e+03 0.0000000000000000e+00 0.0000000000000000e+00 0.0000000000000000e+00 0.0000000000000000e+00  -2.1478848832194944e+03 2.6618825363772003e+03 0.0000000000000000e+00 2.6618825363772003e+03 -3.5732840444313147e+03 0.0000000000000000e+00 0.0000000000000000e+00 0.0000000000000000e+00 0.0000000000000000e+00  -3.6727657388238854e+03 -2.9204449649701637e+03 0.0000000000000000e+00 -2.9204449649701637e+03 -1.9659123534004070e+03 0.0000000000000000e+00 0.0000000000000000e+00 0.0000000000000000e+00 0.0000000000000000e+00  -2.9419456176393251e+03 2.6921185241739745e+03 0.0000000000000000e+00 2.6921185241739745e+03 -2.0993950293743574e+03 0.0000000000000000e+00 0.0000000000000000e+00 0.0000000000000000e+00 0.0000000000000000e+00  -2.3632991325653757e+03 -3.0590164603124394e+03 0.0000000000000000e+00 -3.0590164603124394e+03 -4.4975734194108800e+03 0.0000000000000000e+00 0.0000000000000000e+00 0.0000000000000000e+00 0.0000000000000000e+00  -8.7077206014407443e+02 -6.2539305518304116e+02 0.0000000000000000e+00 -6.2539305518304127e+02 -4.2943265456614739e+02 0.0000000000000000e+00 0.0000000000000000e+00 0.0000000000000000e+00 0.0000000000000000e+00  -4.0986104066439075e+03 -3.8874252030291314e+03 0.0000000000000000e+00 -3.8874252030291314e+03 -3.0031459931938311e+03 0.0000000000000000e+00 0.0000000000000000e+00 0.0000000000000000e+00 0.0000000000000000e+00  9.5275398566273040e+01 -1.9577403330357677e+02 0.0000000000000000e+00 -1.9577403330357652