<?xml version="1.0"?>
<VTKFile type="UnstructuredGrid"  version="0.1"  >
<UnstructuredGrid>
<Piece  NumberOfPoints="4855" NumberOfCells="8780">
<Points>
<DataArray  type="Float64"  NumberOfComponents="3"  format="ascii">0.9483880164242298 0.6836931311526558 0  0.9494264999197789 0.6847056440044139 0  0.9494005292759887 0.6847228078606633 0  0.9735520289385229 0.7444444444444445 0  0.9494005292759886 0.8041660810282256 0  0.94942649991978 0.8041832448844759 0  0.9483880175070514 0.8051957566534116 0  3.131175874138137e-16 0.09811450876034808 0  0.06838800723463068 0.1543033514199101 0  0.05161198249294494 0.1948042433465922 0  0.0505735000802211 0.1958167551155251 0  0.05059947072401128 0.1958339189717744 0  0.0505994707240113 0.3152771921393367 0  0.05057350008021998 0.315294355995587 0  0.05161198357913653 0.3163068688507105 0  0.06838800723463068 0.356807759691201 0  3.252606517456513e-16 0.4129966023507631 0  -1.795438797635995e-16 0.4839416311832997 0  0.07083274769489223 0.4605116403870998 0  0.07084991155114129 0.4605376110308903 0  0.07186242331670639 0.4594991286215342 0  0.1696402113702762 0.5 0  0.07186242332008326 0.5405008713818427 0  0.0708499115511413 0.5394623889691096 0  0.07083274769489219 0.5394883596129002 0  -1.925543058334256e-16 0.5160583688167003 0  1.484923295436147e-15 0.5870033976492365 0  0.06838800723463068 0.643192240308799 0  0.05161198249294541 0.6836931322354806 0  0.05057350008022109 0.6847056440044139 0  0.0505994707240113 0.6847228078606633 0  0.0505994707240113 0.8041660810282256 0  0.05057350008021999 0.804183244884476 0  0.05161198249294764 0.8051957566534106 0  0.06838800723463068 0.84569664858009 0  1.485790657174135e-15 0.9018854912396524 0  0 1 0  1 1 0  0.9999999999999987 0.9018854912396523 0  1.000000000000001 0.5870033976492375 0  1 0.5160583688167003 0  0.9291672523051078 0.5394883596129003 0  0.9291500884488585 0.5394623889691117 0  0.9281375755937461 0.5405008724680134 0  0.9281375755937372 0.4594991275319777 0  0.9291500884488586 0.4605376110308884 0  0.9291672523051077 0.4605116403870997 0  1 0.4839416311832997 0  0.9999999999999987 0.4129966023507635 0  0.948388017507054 0.31630686776452 0  0.94942649991978 0.3152943559955871 0  0.9494005292759886 0.3152771921393367 0  0.9735520289385229 0.2555555555555555 0  0.9494005292759888 0.1958339189717744 0  0.9494264999197789 0.1958167551155251 0  0.9483880164208631 0.1948042422604003 0  1.000000000000001 0.09811450876034861 0  1 0 0  0 0 0  0.1958339189717744 0.2950439151684559 0  0.1958167551155252 0.2950179445246672 0  0.3152771921393367 0.2950439151684557 0  0.1948042433481841 0.2960564269357975 0  0.3152943559955858 0.2950179445246651 0  0.1948042422604031 0.2150546830875326 0  0.3163068677645244 0.2960564269373949 0  0.1958167551155251 0.2160931665864439 0  0.4140846558147206 0.2555555555555555 0  0.1958339189717744 0.2160671959426553 0  0.3163068688489276 0.215054683089313 0  0.3152771921393367 0.2160671959426553 0  0.3152943559955858 0.2160931665864459 0  0.5405008724680257 0.3163068688507107 0  0.5572768961235196 0.356807759691201 0  0.5394623889691089 0.3152943559955871 0  0.459499128618165 0.3163068677645201 0  0.5394883596129003 0.3152771921393367 0  0.4605376110308911 0.3152943559955871 0  0.5394883596129001 0.1958339189717744 0  0.4605116403870998 0.3152771921393367 0  0.53946238896911 0.1958167551155251 0  0.4846631400496339 0.2555555555555555 0  0.5405008724680251 0.1948042422604009 0  0.4605116403870998 0.1958339189717744 0  0.5572768961235196 0.1543033514199101 0  0.46053761103089 0.1958167551155251 0  0.4594991286269881 0.1948042433554141 0  0.6847228078606633 0.2950439151684559 0  0.684705644004414 0.2950179445246672 0  0.8041660810282256 0.2950439151684557 0  0.683693131164073 0.2960564280087975 0  0.8041832448844747 0.2950179445246651 0  0.6836931322354718 0.2150546841737125 0  0.8051957566534156 0.2960564269373971 0  0.6847056440044141 0.2160931665864439 0  0.9029735447036096 0.2555555555555555 0  0.6847228078606632 0.2160671959426553 0  0.8051957577274008 0.2150546830997286 0  0.8041660810282256 0.2160671959426553 0  0.8041832448844747 0.2160931665864459 0  0.2960564280235811 0.560751313295155 0  0.3128324516790751 0.6012522041356455 0  0.2950179445246645 0.5597388004400315 0  0.2150546830875235 0.5607513132951615 0  0.2950439151684557 0.5597216365837812 0  0.2160931665864466 0.5597388004400314 0  0.2950439151684558 0.4402783634162188 0  0.2160671959426553 0.5597216365837812 0  0.2950179445246656 0.4402611995599696 0  0.2402186956051895 0.5 0  0.29605642693739 0.439248687791036 0  0.2160671959426553 0.4402783634162189 0  0.3128324516790751 0.3987477958643545 0  0.2160931665864455 0.4402611995599696 0  0.2150546830875296 0.4392486867048446 0  0.1958339189717743 0.7839328040573448 0  0.1958167551155252 0.7839068334135562 0  0.3152771921393367 0.7839328040573447 0  0.1948042422604028 0.7849453169124678 0  0.3152943559955858 0.783906833413554 0  0.1948042433465913 0.7039435730626098 0  0.3163068677645284 0.7849453158262878 0  0.1958167551155251 0.7049820554753328 0  0.4140846558147206 0.7444444444444445 0  0.1958339189717744 0.7049560848315441 0  0.3163068688486237 0.7039435719785058 0  0.3152771921393367 0.7049560848315441 0  0.3152943559955858 0.7049820554753349 0  0.4402783634162188 0.5394883596129003 0  0.4402611995599696 0.5394623889691117 0  0.5597216365837812 0.5394883596129002 0  0.4392486867048468 0.5405008724680237 0  0.5597388004400302 0.5394623889691096 0  0.4392486877998708 0.4594991286270004 0  0.5607513122089726 0.540500871381843 0  0.4402611995599696 0.4605376110308884 0  0.6585291002591651 0.5 0  0.4402783634162188 0.4605116403870998 0  0.5607513121946796 0.45949912863245 0  0.5597216365837812 0.4605116403870998 0  0.5597388004400302 0.4605376110308904 0  0.78494531690701 0.5607513132896949 0  0.8017213405679641 0.6012522041356455 0  0.7839068334135535 0.5597388004400315 0  0.7039435730626069 0.5607513122089671 0  0.7839328040573448 0.5597216365837812 0  0.7049820554753355 0.5597388004400314 0  0.7839328040573448 0.4402783634162188 0  0.7049560848315441 0.5597216365837812 0  0.7839068334135545 0.4402611995599696 0  0.7291075844940784 0.5 0  0.784945315826279 0.4392486877910359 0  0.7049560848315444 0.4402783634162188 0  0.8017213405679641 0.3987477958643545 0  0.7049820554753344 0.4402611995599696 0  0.7039435719764182 0.4392486867048443 0  0.5405008724625655 0.8051957577341393 0  0.5572768961235196 0.84569664858009 0  0.539462388969109 0.804183244884476 0  0.4594991286181648 0.8051957566534091 0  0.5394883596129003 0.8041660810282256 0  0.4605376110308911 0.804183244884476 0  0.5394883596129003 0.6847228078606633 0  0.4605116403870998 0.8041660810282256 0  0.53946238896911 0.6847056440044139 0  0.4846631400496339 0.7444444444444445 0  0.5405008713818347 0.6836931322354802 0  0.4605116403870998 0.6847228078606633 0  0.5572768961235196 0.643192240308799 0  0.46053761103089 0.6847056440044139 0  0.4594991275353449 0.6836931311526599 0  0.6847228078606633 0.7839328040573448 0  0.684705644004414 0.7839068334135562 0  0.8041660810282256 0.7839328040573447 0  0.6836931311493016 0.7849453169124578 0  0.8041832448844747 0.783906833413554 0  0.68369313223548 0.7039435730626096 0  0.805195756653417 0.7849453158262875 0  0.6847056440044141 0.7049820554753328 0  0.9029735447036096 0.7444444444444445 0  0.6847228078606633 0.7049560848315441 0  0.805195757738809 0.7039435719772094 0  0.8041660810282256 0.7049560848315441 0  0.8041832448844747 0.7049820554753349 0  0.9578164230213342 0.6948838683471341 0  0.9645772892192558 0.7062137009141434 0  0.9695236884064815 0.7184451175460498 0  0.972538971146615 0.7312896684428197 0  0.9725389711466151 0.7575992204460691 0  0.9695236884064815 0.7704437713428391 0  0.9645772892192558 0.7826751879747456 0  0.9578164230213342 0.7940050205417549 0  0.01437766570919127 0.09711967848259151 0  0.02854851642641832 0.09974531144948819 0  0.04161535472570586 0.1058251712658871 0  0.05275088139110013 0.1149743244732108 0  0.06125007411586489 0.1266135117968212 0  0.06657482449792251 0.1400058227212122 0  0.06643634307317195 0.1691277076584997 0  0.06071435336153361 0.1829418078690686 0  0.04134737123322858 0.3039103077764334 0  0.03416190609801732 0.2911362521989113 0  0.02925217947541549 0.2773267630846004 0  0.02676106927623143 0.2628837102534819 0  0.02676106927623143 0.2482274008576293 0  0.02925217947541547 0.2337843480265108 0  0.03416190609801727 0.2199748589121999 0  0.04134737123322851 0.2072008033346779 0  0.06071435387356935 0.328169304128914 0  0.06643634320569657 0.3419834039471998 0  0.06657482449792249 0.371105288389899 0  0.06125007411586481 0.3844975993142901 0  0.05275088139109994 0.3961367866379005 0  0.04161535472570563 0.4052859398452242 0  0.02854851642641818 0.411365799661623 0  0.01437766570919127 0.4139914326285196 0  0 0.4697526254167924 0  0 0.455563619650285 0  0 0.4413746138837777 0  0 0.4271856081172704 0  0.06095233986089402 0.4687284952262988 0  0.04995687430503332 0.4753797281664747 0  0.03809234373417287 0.4803165365228644 0  0.02562418374773841 0.4834284730529493 0  0.01283133446055119 0.4846459169037758 0  0.08372485599813187 0.4503967593658507 0  0.09753895276796982 0.4446747697099958 0  0.1123633055586467 0.4427231038764812 0  0.1271876590095525 0.4446747646950606 0  0.1410017577150834 0.45039674967774 0  0.1528641934757506 0.4594991149204779 0  0.161966560724962 0.471361549141524 0  0.1676885480442292 0.4851756468792086 0  0.1676885480443665 0.514824353120279 0  0.1619665607254926 0.528638450857557 0  0.1528641934768762 0.5405008850783964 0  0.1410017577169217 0.5496032503211987 0  0.1271876590121153 0.5553252353042526 0  0.1123633055618306 0.5572768961235188 0  0.09753895277155772 0.5553252302909656 0  0.08372485600180817 0.5496032406362719 0  0.0128313344605512 0.5153540830962242 0  0.0256241837477384 0.5165715269470507 0  0.03809234373417282 0.5196834634771356 0  0.04995687430503334 0.5246202718335253 0  0.06095233986089401
[...]
<PointData  Tensors="$\sigma$"> 
<DataArray  type="Float64"  Name="$\sigma$"  NumberOfComponents="9" format="ascii">-5.7306971538062053e+03 -6.2456036491782152e+03 0.0000000000000000e+00 -6.2456036491782115e+03 -7.2935111684176545e+03 0.0000000000000000e+00 0.0000000000000000e+00 0.0000000000000000e+00 0.0000000000000000e+00  -5.7064652619334702e+03 -5.5732198586182385e+03 0.0000000000000000e+00 -5.5732198586182458e+03 -3.4484961085450336e+03 0.0000000000000000e+00 0.0000000000000000e+00 0.0000000000000000e+00 0.0000000000000000e+00  -5.8561485990522442e+03 -5.9425292596941499e+03 0.0000000000000000e+00 -5.9425292596941563e+03 -7.5319041062943279e+03 0.0000000000000000e+00 0.0000000000000000e+00 0.0000000000000000e+00 0.0000000000000000e+00  6.3000636428032479e+01 -1.0478428417209322e+02 0.0000000000000000e+00 -1.0478428417209371e+02 -1.1678774367538641e+04 0.0000000000000000e+00 0.0000000000000000e+00 0.0000000000000000e+00 0.0000000000000000e+00  -4.0816906412193653e+03 5.0146892821632055e+03 0.0000000000000000e+00 5.0146892821632109e+03 -5.5292216972614524e+03 0.0000000000000000e+00 0.0000000000000000e+00 0.0000000000000000e+00 0.0000000000000000e+00  -8.8719647888868221e+03 6.8045516515587533e+03 0.0000000000000000e+00 6.8045516515587506e+03 -7.6377528545826071e+03 0.0000000000000000e+00 0.0000000000000000e+00 0.0000000000000000e+00 0.0000000000000000e+00  -3.5080691430263655e+03 4.2914080438559331e+03 0.0000000000000000e+00 4.2914080438559340e+03 -4.0201632387600534e+03 0.0000000000000000e+00 0.0000000000000000e+00 0.0000000000000000e+00 0.0000000000000000e+00  4.8879766236301904e+01 1.5865345806764086e+00 0.0000000000000000e+00 1.5865345806764279e+00 1.9779582180330124e+01 0.0000000000000000e+00 0.0000000000000000e+00 0.0000000000000000e+00 0.0000000000000000e+00  1.8854696133513215e+01 6.2773198171786014e+01 0.0000000000000000e+00 6.2773198171785786e+01 8.0990315098619294e+03 0.0000000000000000e+00 0.0000000000000000e+00 0.0000000000000000e+00 0.0000000000000000e+00  -3.4683942064073563e+03 3.9092891773655715e+03 0.0000000000000000e+00 3.9092891773655761e+03 -4.6507368012803654e+03 0.0000000000000000e+00 0.0000000000000000e+00 0.0000000000000000e+00 0.0000000000000000e+00  -8.6048592805268618e+03 6.9615768655949460e+03 0.0000000000000000e+00 6.9615768655949414e+03 -6.9405360591772132e+03 0.0000000000000000e+00 0.0000000000000000e+00 0.0000000000000000e+00 0.0000000000000000e+00  -3.9931001982035236e+03 4.8220687603040615e+03 0.0000000000000000e+00 4.8220687603040669e+03 -5.2074973801505275e+03 0.0000000000000000e+00 0.0000000000000000e+00 0.0000000000000000e+00 0.0000000000000000e+00  -5.0064120018209096e+03 -6.1142578130928214e+03 0.0000000000000000e+00 -6.1142578130928214e+03 -6.8276021428974891e+03 0.0000000000000000e+00 0.0000000000000000e+00 0.0000000000000000e+00 0.0000000000000000e+00  -7.6373413301387454e+03 -5.3674467420754909e+03 0.0000000000000000e+00 -5.3674467420754945e+03 -4.8311113581229729e+03 0.0000000000000000e+00 0.0000000000000000e+00 0.0000000000000000e+00 0.0000000000000000e+00  -4.5198505386397528e+03 -6.4681237914169960e+03 0.0000000000000000e+00 -6.4681237914169869e+03 -6.6758042253408903e+03 0.0000000000000000e+00 0.0000000000000000e+00 0.0000000000000000e+00 0.0000000000000000e+00  2.5191026385791147e+02 -3.6342704520096696e+01 0.0000000000000000e+00 -3.6342704520096952e+01 1.7104951807975640e+03 0.0000000000000000e+00 0.0000000000000000e+00 0.0000000000000000e+00 0.0000000000000000e+00  1.4180130714585766e+00 6.7430897449621063e-01 0.0000000000000000e+00 6.7430897449621063e-01 -7.2973474481334835e+00 0.0000000000000000e+00 0.0000000000000000e+00 0.0000000000000000e+00 0.0000000000000000e+00  -8.9838206260560127e-01 4.0981082799966828e-01 0.0000000000000000e+00 4.0981082799966867e-01 2.6587321081344930e+00 0.0000000000000000e+00 0.0000000000000000e+00 0.0000000000000000e+00 0.0000000000000000e+00  -3.1720928465406086e+01 2.9248298023232980e+01 0.0000000000000000e+00 2.9248298023232998e+01 -1.7126073854865645e+01 0.0000000000000000e+00 0.0000000000000000e+00 0.0000000000000000e+00 0.0000000000000000e+00  -1.0755977576418027e+02 3.3505553417175875e+01 0.0000000000000000e+00 3.3505553417175854e+01 -5.3452913402250616e+01 0.0000000000000000e+00 0.0000000000000000e+00 0.0000000000000000e+00 0.0000000000000000e+00  1.6665369124151315e+01 6.1483036818447900e+01 0.0000000000000000e+00 6.1483036818447950e+01 -5.0585402686849541e+01 0.0000000000000000e+00 0.0000000000000000e+00 0.0000000000000000e+00 0.0000000000000000e+00  4.9237479492522780e+03 -2.3341240314275635e+02 0.0000000000000000e+00 -2.3341240314275601e+02 1.7717914712120742e+04 0.0000000000000000e+00 0.0000000000000000e+00 0.0000000000000000e+00 0.0000000000000000e+00  -1.8154195108402650e+01 -8.9089121884128758e+01 0.0000000000000000e+00 -8.9089121884128630e+01 -3.6491071849918555e+01 0.0000000000000000e+00 0.0000000000000000e+00 0.0000000000000000e+00 0.0000000000000000e+00  1.1554639914439342e+02 1.8311085698590574e+02 0.0000000000000000e+00 1.8311085698590566e+02 1.1380838461080110e+02 0.0000000000000000e+00 0.0000000000000000e+00 0.0000000000000000e+00 0.0000000000000000e+00  -2.3434946746182089e+01 -2.3510963869406776e+01 0.0000000000000000e+00 -2.3510963869406797e+01 -8.1374276271336008e+00 0.0000000000000000e+00 0.0000000000000000e+00 0.0000000000000000e+00 0.0000000000000000e+00  1.2900299927637793e+00 3.5600084684434385e-01 0.0000000000000000e+00 3.5600084684434313e-01 2.5845404222909170e+00 0.0000000000000000e+00 0.0000000000000000e+00 0.0000000000000000e+00 0.0000000000000000e+00  -5.6212466640350973e+00 -7.8902941271884801e+00 0.0000000000000000e+00 -7.8902941271884712e+00 1.3422563102122220e+00 0.0000000000000000e+00 0.0000000000000000e+00 0.0000000000000000e+00 0.0000000000000000e+00  -9.3355080645645110e+00 -1.3364195921076833e+01 0.0000000000000000e+00 -1.3364195921076872e+01 1.7596459893220162e+03 0.0000000000000000e+00 0.0000000000000000e+00 0.0000000000000000e+00 0.0000000000000000e+00  -5.3906499585986412e+03 6.3957509582946923e+03 0.0000000000000000e+00 6.3957509582946896e+03 -7.4375516148740962e+03 0.0000000000000000e+00 0.0000000000000000e+00 0.0000000000000000e+00 0.0000000000000000e+00  -6.4367184504810739e+03 5.4963816760637237e+03 0.0000000000000000e+00 5.4963816760637174e+03 -3.1873982927159050e+03 0.0000000000000000e+00 0.0000000000000000e+00 0.0000000000000000e+00 0.0000000000000000e+00  -5.2708826250703805e+03 5.8467076947739197e+03 0.0000000000000000e+00 5.8467076947739188e+03 -7.6503090107193066e+03 0.0000000000000000e+00 0.0000000000000000e+00 0.0000000000000000e+00 0.0000000000000000e+00  -4.1605853244451664e+03 -4.9892765888649219e+03 0.0000000000000000e+00 -4.9892765888649265e+03 -5.4332582273503840e+03 0.0000000000000000e+00 0.0000000000000000e+00 0.0000000000000000e+00 0.0000000000000000e+00  -8.4585477450393682e+03 -6.8242157696638333e+03 0.0000000000000000e+00 -6.8242157696638324e+03 -7.5940105608435169e+03 0.0000000000000000e+00 0.0000000000000000e+00 0.0000000000000000e+00 0.0000000000000000e+00  -3.6545393112173620e+03 -4.1252526249388065e+03 0.0000000000000000e+00 -4.1252526249388038e+03 -3.9068008006524046e+03 0.0000000000000000e+00 0.0000000000000000e+00 0.0000000000000000e+00 0.0000000000000000e+00  1.1298810935465741e+02 -3.1718873881235032e+02 0.0000000000000000e+00 -3.1718873881235049e+02 7.7202907983011264e+03 0.0000000000000000e+00 0.0000000000000000e+00 0.0000000000000000e+00 0.0000000000000000e+00  -9.2285987837683223e+01 4.1212710069922210e+01 0.0000000000000000e+00 4.1212710069922217e+01 -4.0470812896420682e+01 0.0000000000000000e+00 0.0000000000000000e+00 0.0000000000000000e+00 0.0000000000000000e+00  4.3409841803440612e+00 8.8141303659537034e+00 0.0000000000000000e+00 8.8141303659537051e+00 6.0355273395065183e+02 0.0000000000000000e+00 0.0000000000000000e+00 0.0000000000000000e+00 0.0000000000000000e+00  3.0951334027443442e+00 -1.2419284187778304e+01 0.0000000000000000e+00 -1.2419284187778343e+01 6.1776496093952551e+02 0.0000000000000000e+00 0.0000000000000000e+00 0.0000000000000000e+00 0.0000000000000000e+00  4.7137629324547007e+01 -2.6525224853828999e+00 0.0000000000000000e+00 -2.6525224853828298e+00 -1.9311966265016267e+01 0.0000000000000000e+00 0.0000000000000000e+00 0.0000000000000000e+00 0.0000000000000000e+00  -7.2905715541014358e+00 -1.5760383460979330e+00 0.0000000000000000e+00 -1.5760383460979315e+00 -3.0144103032150054e+00 0.0000000000000000e+00 0.0000000000000000e+00 0.0000000000000000e+00 0.0000000000000000e+00  8.1549795702990480e-01 3.6621518638721601e-01 0.0000000000000000e+00 3.6621518638721529e-01 1.0308099362502783e+00 0.0000000000000000e+00 0.0000000000000000e+00 0.0000000000000000e+00 0.0000000000000000e+00  -2.1535291709191132e+01 2.3170393137454234e+01 0.0000000000000000e+00 2.3170393137454223e+01 -1.9172111373033726e+01 0.0000000000000000e+00 0.0000000000000000e+00 0.0000000000000000e+00 0.0000000000000000e+00  -3.8271722753017485e+01 -5.9010264068845537e+01 0.0000000000000000e+00 -5.9010264068845551e+01 1.6401283836240012e+01 0.0000000000000000e+00 0.0000000000000000e+00 0.0000000000000000e+00 0.0000000000000000e+00  2.8144524529213875e+01 6.9017965257044438e+01 0.0000000000000000e+00 6.9017965257044494e+01 -2.9145570481038771e+01 0.0000000000000000e+00 0.0000000000000000e+00 0.0000000000000000e+00 0.0000000000000000e+00  -1.5960971001494837e+01 -6.7668268543170413e+01 0.0000000000000000e+00 -6.7668268543170285e+01 -6.7214134178630488e+01 0.0000000000000000e+00 0.0000000000000000e+00 0.0000000000000000e+00 0.0000000000000000e+00  -1.3205775978919706e+02 -9.3427644389284936e+01 0.0000000000000000e+00 -9.3427644389284922e+01 -1.1861746422704472e+02 0.0000000000000000e+00 0.0000000000000000e+00 0.0000000000000000e+00 0.0000000000000000e+00  -4.3588766010095767e+01 -2.8077986066006332e+01 0.0000000000000000e+00 -2.8077986066006364e+01 -7.1472893945926974e-01 0.0000000000000000e+00 0.0000000000000000e+00 0.0000000000000000e+00 0.0000000000000000e+00  -1.4111694861138955e+00 -6.9861043681170221e-01 0.0000000000000000e+00 -6.9861043681170132e-01 1.3617173138608560e-01 0.0000000000000000e+00 0.0000000000000000e+00 0.0000000000000000e+00 0.0000000000000000e+00  -5.1947992083935768e+00 -1.8466910695998360e+00 0.0000000000000000e+00 -1.8466910695998340e+00 -3.8007123255323223e+00 0.0000000000000000e+00 0.0000000000000000e+00 0.0000000000000000e+00 0.0000000000000000e+00  -5.0811403246572636e+03 6.0585158489917521e+03 0.0000000000000000e+00 6.0585158489917458e+03 -7.0985255591462765e+03 0.0000000000000000e+00 0.0000000000000000e+00 0.0000000000000000e+00 0.0000000000000000e+00  -6.0805534418277930e+03 5.6455203392797139e+03 0.0000000000000000e+00 5.6455203392797212e+03 -3.4503890948695716e+03 0.0000000000000000e+00 0.0000000000000000e+00 0.0000000000000000e+00 0.0000000000000000e+00  -6.1652863924684116e+03 5.9246623564164383e+03 0.0000000000000000e+00 5.9246623564164338e+03 -7.8176881592744840e+03 0.0000000000000000e+00 0.0000000000000000e+00 0.0000000000000000e+00 0.0000000000000000e+00  1.7508892881824405e+01 6.3924070752578722e+01 0.0000000000000000e+00 6.3924070752579517e+01 -1.1618841926877156e+04 0.0000000000000000e+00 0.0000000000000000e+00 0.0000000000000000e+00 0.0000000000000000e+00  -3.9353021030245150e+03 -4.9751264781081081e+03 0.0000000000000000e+00 -4.9751264781081127e+03 -5.2920504247736235e+03 0.0000000000000000e+00 0.0000000000000000e+00 0.0000000000000000e+00 0.0000000000000000e+00  -8.9904077025868864e+03 -6.9473993040489213e+03 0.0000000000000000e+00 -6.9473993040489204e+03 -7.1427543330312146e+03 0.0000000000000000e+00 0.0000000000000000e+00 0.0000000000000000e+00 0.0000000000000000e+00  -3.6109081856005896e+03 -4.0990444580454905e+03 0.0000000000000000e+00 -4.0990444580454850e+03 -4.8643388769083012e+03 0.0000000000000000e+00 0.0000000000000000e+00 0.0000000000000000e+00 0.0000000000000000e+00  -3.6102553386556060e+01 8.0520424643816906e+00 0.0000000000000000e+00 8.0520424643816320e+00 -1.4632719525742733e+01 0.0000000000000000e+00 0.0000000000000000e+00 0.0000000000000000e+00 0.0000000000000000e+00  4.1729282689217531e+00 5.7505450450643103e+00 0.0000000000000000e+00 5.7505450450643236e+00 6.0786152391044322e+02 0.0000000000000000e+00 0.0000000000000000e+00 0.0000000000000000e+00 0.0000000000000000e+00  1.4867403811733729e+02 1.2041964065485844e+02 0.0000000000000000e+00 1.2041964065485841e+02 7.2739279515480484e+02 0.0000000000000000e+00 0.0000000000000000e+00 0.0000000000000000e+00 0.0000000000000000e+00  -6.3430433910084639e+03 5.9528287057558691e+03 0.0000000000000000e+00 5.9528287057558719e+03 -5.1693116768677319e+03 0.0000000000000000e+00 0.0000000000000000e+00 0.0000000000000000e+00 0.0000000000000000e+00  -7.1362731289068151e+03 6.0149617648620188e+03 0.0000000000000000e+00 6.0149617648620206e+03 -9.7196467625992009e+03 0.0000000000000000e+00 0.0000000000000000e+00 0.0000000000000000e+00 0.0000000000000000e+00  -5.7406658204617006e+03 -5.9118492171113667e+03 0.0000000000000000e+00 -5.9118492171113694e+03 -5.5477856858455398e+03 0.0000000000000000e+00 0.0000000000000000e+00 0.0000000000000000e+00 0.0000000000000000e+00  -5.3755897645145133e+03 6.0441647114330026e+03 0.0000000000000000e+00 6.0441647114330053e+03 -2.5292618773254699e+03 0.0000000000000000e+00 0.0000000000000000e+00 0.0000000000000000e+00 0.0000000000000000e+00  -6.6331959639352790e+03 -5.8437371171700652e+03 0.0000000000000000e+00 -5.8437371171700570e+03 -6.7750370687097675e+03 0.0000000000000000e+00 0.0000000000000000e+00 0.0000000000000000e+00 0.0000000000000000e+00  -1.2195640599727417e+03 -1.1793612040792148e+03 0.0000000000000000e+00 -1.1793612040792168e+03 -9.0313407564412466e+02 0.0000000000000000e+00 0.0000000000000000e+00 0.0000000000000000e+00 0.0000000000000000e+00  -5.1262773201453647e+03 -5.7437061374819777e+03 0.0000000000000000e+00 -5.7437061374819796e+03 -4.6846715546967180e+03 0.0000000000000000e+00 0.0000000000000000e+00 0.0000000000000000e+00 0.0000000000000000e+00  -3.6760298170568774e+02 -4.1331177908669048e+02 0.0000000000000000e+00 -4.1331177908669014e+02 -8.5290726097126935e+02 0.0000000000000000e+00 0.0000000000000000e+00 0.0000000000000000e+00 0.0000000000000000e+00  3.6320757725812728e+03 2.9184959340915373e+02 0.0000000000000000e+00 2.9184959340915492e+02 1.6061854145540598e+04 0.0000000000000000e+00 0.0000000000000000e+00 0.0000000000000000e+00 0.0000000000000000e+00  -6.4763321782959963e+02 -6.0350763452219428e+02 0.0000000000000000e+00 -6.0350763452219405e+02 -3.9640379855455092e+02 0.0000000000000000e+00 0.0000000000000000e+00 0.0000000000000000e+00 0.0000000000000000e+00  -1.2911188869588768e+03 1.3742781254787953e+03 0.0000000000000000e+00 1.3742781254787926e+03 -1.1282811779474157e+03 0.0000000000000000e+00 0.0000000000000000e+00 0.0000000000000000e+00 0.0000000000000000e+00  -1.1608928040018800e+03 8.2200003495667409e+02 0.0000000000000000e+00 8.2200003495667420e+02 -6.2995574576810066e+02 0.0000000000000000e+00 0.0000000000000000e+00 0.0000000000000000e+00 0.0000000000000000e+00  4.1215900525103075e+02 -1.9068837273429895e+02 0.0000000000000000e+00 -1.9068837273429756e+02 -2.1250415332241533e+02 0.0000000000000000e+00 0.0000000000000000e+00 0.0000000000000000e+00 0.0000000000000000e+00  -4.7781741934443908e+03 -6.2941988939283237e+03 0.0000000000000000e+00 -6.2941988939283237e+03 -6.2368330033476286e+03 0.0000000000000000e+00 0.0000000000000000e+00 0.0000000000000000e+00 0.0000000000000000e+00  7.7581534501422595e+02 -8.0075355880584766e+01 0.0000000000000000e+00 -8.0075355880583118e+01 7.6250749927151637e+03 0.0000000000000000e+00 0.0000000000000000e+00 0.0000000000000000e+00 0.0000000000000000e+00  -5.5282684993646835e+03 -5.6930748501898715e+03 0.0000000000000000e+00 -5.6930748501898752e+03 -3.3304591899976954e+03 0.0000000000000000e+00 0.0000000000000000e+00 0.0000000000000000e+00 0.0000000000000000e+00  -4.4504428564578438e+03 6.3021999789499887e+03 0.0000000000000000e+00 6.3021999789499887e+03 -7.3094284211505274e+03 0.0000000000000000e+00 0.0000000000000000e+00 0.0000000000000000e+00 0.0000000000000000e+00  -6.7127941736473158e+03 -5.7935307380204013e+03 0.0000000000000000e+00 -5.7935307380204013e+03 -8.3871130593707749e+03 0.0000000000000000e+00 0.0000000000000000e+00 0.0000000000000000e+00 0.0000000000000000e+00  -5.5331809601569448e+03 5.6836360145252775e+03 0.0000000000000000e+00 5.6836360145252802e+03 -2.2401790198308549e+03 0.0000000000000000e+00 0.0000000000000000e+00 0.0000000000000000e+00 0.0000000000000000e+00  7.7102092224322087e+02 3.6149476487875854e+03 0.0000000000000000e+00 3.6149476487875836e+03 -4.4936732425199389e+03 0.0000000000000000e+00 0.0000000000000000e+00 0.0000000000000000e+00 0.0000000000000000e+00  -6.9952749242054388e+03 5.7893005917546388e+03 0.0000000000000000e+00 5.7893005917546407e+03 -8.5722560872118829e+03 0.0000000000000000e+00 0.0000000000000000e+00 0.0000000000000000e+00 0.0000000000000000e+00  -1.5607008168355535e+04 1.0666995664375963e+04 0.0000000000000000e+00 1.0666995664375969e+04 -1.9701433820049082e+04 0.0000000000000000e+00 0.0000000000000000e+00 0.0000000000000000e+00 0.0000000000000000e+00  3.8609023880000017e+01 1.3911680975953757e+02 0.0000000000000000e+00 1.3911680975954030e+02 -1.1317915585666309e+04 0.0000000000000000e+00 0.0000000000000000e+00 0.0000000000000000e+00 0.0000000000000000e+00  -7.4741013083898827e+02 -2.3701423798416749e+03 0.0000000000000000e+00 -2.3701423798416795e+03 8.9485460361121040e+03 0.0000000000000000e+00 0.0000000000000000e+00 0.0000000000000000e+00 0.0000000000000000e+00  -2.9106325623212083e+03 -2.7879551750830465e+03 0.0000000000000000e+00 -2.7879551750830465e+03 -3.3261933506896503e+03 0.0000000000000000e+00 0.0000000000000000e+00 0.0000000000000000e+00 0.0000000000000000e+00  7.8003221961198426e+02 -7.4535549408189263e+02 0.0000000000000000e+00 -7.4535549408189263e+02 1.3071991464243902e+04 0.0000000000000000e+00 0.0000000000000000e+00 0.0000000000000000e+00 0.0000000000000000e+00  -1.1561467841631633e+04 -1.0121031691528926e+04 0.0000000000000000e+00 -1.0121031691528928e+04 -1.7015494006242632e+04 0.0000000000000000e+00 0.0000000000000000e+00 0.0000000000000000e+00 0.0000000000000000e+00  -6.3203574757734816e+02 9.3773602685247090e+02 0.0000000000000000e+00 9.3773602685246897e+02 5.9432864867239286e+03 0.0000000000000000e+00 0.0000000000000000e+00 0.0000000000000000e+00 0.0000000000000000e+00  -5.6801917620529102e+03 5.9022225540859936e+03 0.0000000000000000e+00 5.9022225540859890e+03 -5.5425190000725797e+03 0.0000000000000000e+00 0.0000000000000000e+00 0.0000000000000000e+00 0.0000000000000000e+00  -6.6916848698839567e+03 5.8850912103448336e+03 0.0000000000000000e+00 5.8850912103448327e+03 -7.0091114245636663e+03 0.0000000000000000e+00 0.0000000000000000e+00 0.0000000000000000e+00 0.0000000000000000e+00  -7.2607769129344242e+03 -5.9534407867304199e+03 0.0000000000000000e+00 -5.9534407867304162e+03 -6.4383285490240087e+03 0.0000000000000000e+00 0.0000000000000000e+00 0.0000000000000000e+00 0.0000000000000000e+00  -5.0967067458347101e+03 5.7238748272144139e+03 0.0000000000000000e+00 5.7238748272144221e+03 -4.3584530137038118e+03 0.0000000000000000e+00 0.0000000000000000e+00 0.0000000000000000e+00 0.0000000000000000e+00  -6.0194437865222362e+03 -5.9254841796947085e+03 0.0000000000000000e+00 -5.9254841796947157e+03 -7.6635915275569314e+03 0.0000000000000000e+00 0.0000000000000000e+00 0.0000000000000000e+00 0.0000000000000000e+00  -1.5176021217450443e+03 -1.3312765446768763e+03 0.0000000000000000e+00 -1.3312765446768776e+03 -1.1110815574624121e+03 0.0000000000000000e+00 0.0000000000000000e+00 0.0000000000000000e+00 0.0000000000000000e+00  -5.4184426118340025e+03 -6.1437650046682147e+03 0.0000000000000000e+00 -6.1437650046682083e+03 -3.5109443864064979e+03 0.0000000000000000e+00 0.0000000000000000e+00 0.0000000000000000e+00 0.0000000000000000e+00  1.1247250626895984e+03 7.9111749758577400e+02 0.0000000000000000e+00 7.9111749758577366e+02 3.