<?xml version="1.0"?>
<VTKFile type="UnstructuredGrid"  version="0.1"  >
<UnstructuredGrid>
<Piece  NumberOfPoints="4855" NumberOfCells="8780">
<Points>
<DataArray  type="Float64"  NumberOfComponents="3"  format="ascii">0.9483880164242298 0.6836931311526558 0  0.9494264999197789 0.6847056440044139 0  0.9494005292759887 0.6847228078606633 0  0.9735520289385229 0.7444444444444445 0  0.9494005292759886 0.8041660810282256 0  0.94942649991978 0.8041832448844759 0  0.9483880175070514 0.8051957566534116 0  3.131175874138137e-16 0.09811450876034808 0  0.06838800723463068 0.1543033514199101 0  0.05161198249294494 0.1948042433465922 0  0.0505735000802211 0.1958167551155251 0  0.05059947072401128 0.1958339189717744 0  0.0505994707240113 0.3152771921393367 0  0.05057350008021998 0.315294355995587 0  0.05161198357913653 0.3163068688507105 0  0.06838800723463068 0.356807759691201 0  3.252606517456513e-16 0.4129966023507631 0  -1.795438797635995e-16 0.4839416311832997 0  0.07083274769489223 0.4605116403870998 0  0.07084991155114129 0.4605376110308903 0  0.07186242331670639 0.4594991286215342 0  0.1696402113702762 0.5 0  0.07186242332008326 0.5405008713818427 0  0.0708499115511413 0.5394623889691096 0  0.07083274769489219 0.5394883596129002 0  -1.925543058334256e-16 0.5160583688167003 0  1.484923295436147e-15 0.5870033976492365 0  0.06838800723463068 0.643192240308799 0  0.05161198249294541 0.6836931322354806 0  0.05057350008022109 0.6847056440044139 0  0.0505994707240113 0.6847228078606633 0  0.0505994707240113 0.8041660810282256 0  0.05057350008021999 0.804183244884476 0  0.05161198249294764 0.8051957566534106 0  0.06838800723463068 0.84569664858009 0  1.485790657174135e-15 0.9018854912396524 0  0 1 0  1 1 0  0.9999999999999987 0.9018854912396523 0  1.000000000000001 0.5870033976492375 0  1 0.5160583688167003 0  0.9291672523051078 0.5394883596129003 0  0.9291500884488585 0.5394623889691117 0  0.9281375755937461 0.5405008724680134 0  0.9281375755937372 0.4594991275319777 0  0.9291500884488586 0.4605376110308884 0  0.9291672523051077 0.4605116403870997 0  1 0.4839416311832997 0  0.9999999999999987 0.4129966023507635 0  0.948388017507054 0.31630686776452 0  0.94942649991978 0.3152943559955871 0  0.9494005292759886 0.3152771921393367 0  0.9735520289385229 0.2555555555555555 0  0.9494005292759888 0.1958339189717744 0  0.9494264999197789 0.1958167551155251 0  0.9483880164208631 0.1948042422604003 0  1.000000000000001 0.09811450876034861 0  1 0 0  0 0 0  0.1958339189717744 0.2950439151684559 0  0.1958167551155252 0.2950179445246672 0  0.3152771921393367 0.2950439151684557 0  0.1948042433481841 0.2960564269357975 0  0.3152943559955858 0.2950179445246651 0  0.1948042422604031 0.2150546830875326 0  0.3163068677645244 0.2960564269373949 0  0.1958167551155251 0.2160931665864439 0  0.4140846558147206 0.2555555555555555 0  0.1958339189717744 0.2160671959426553 0  0.3163068688489276 0.215054683089313 0  0.3152771921393367 0.2160671959426553 0  0.3152943559955858 0.2160931665864459 0  0.5405008724680257 0.3163068688507107 0  0.5572768961235196 0.356807759691201 0  0.5394623889691089 0.3152943559955871 0  0.459499128618165 0.3163068677645201 0  0.5394883596129003 0.3152771921393367 0  0.4605376110308911 0.3152943559955871 0  0.5394883596129001 0.1958339189717744 0  0.4605116403870998 0.3152771921393367 0  0.53946238896911 0.1958167551155251 0  0.4846631400496339 0.2555555555555555 0  0.5405008724680251 0.1948042422604009 0  0.4605116403870998 0.1958339189717744 0  0.5572768961235196 0.1543033514199101 0  0.46053761103089 0.1958167551155251 0  0.4594991286269881 0.1948042433554141 0  0.6847228078606633 0.2950439151684559 0  0.684705644004414 0.2950179445246672 0  0.8041660810282256 0.2950439151684557 0  0.683693131164073 0.2960564280087975 0  0.8041832448844747 0.2950179445246651 0  0.6836931322354718 0.2150546841737125 0  0.8051957566534156 0.2960564269373971 0  0.6847056440044141 0.2160931665864439 0  0.9029735447036096 0.2555555555555555 0  0.6847228078606632 0.2160671959426553 0  0.8051957577274008 0.2150546830997286 0  0.8041660810282256 0.2160671959426553 0  0.8041832448844747 0.2160931665864459 0  0.2960564280235811 0.560751313295155 0  0.3128324516790751 0.6012522041356455 0  0.2950179445246645 0.5597388004400315 0  0.2150546830875235 0.5607513132951615 0  0.2950439151684557 0.5597216365837812 0  0.2160931665864466 0.5597388004400314 0  0.2950439151684558 0.4402783634162188 0  0.2160671959426553 0.5597216365837812 0  0.2950179445246656 0.4402611995599696 0  0.2402186956051895 0.5 0  0.29605642693739 0.439248687791036 0  0.2160671959426553 0.4402783634162189 0  0.3128324516790751 0.3987477958643545 0  0.2160931665864455 0.4402611995599696 0  0.2150546830875296 0.4392486867048446 0  0.1958339189717743 0.7839328040573448 0  0.1958167551155252 0.7839068334135562 0  0.3152771921393367 0.7839328040573447 0  0.1948042422604028 0.7849453169124678 0  0.3152943559955858 0.783906833413554 0  0.1948042433465913 0.7039435730626098 0  0.3163068677645284 0.7849453158262878 0  0.1958167551155251 0.7049820554753328 0  0.4140846558147206 0.7444444444444445 0  0.1958339189717744 0.7049560848315441 0  0.3163068688486237 0.7039435719785058 0  0.3152771921393367 0.7049560848315441 0  0.3152943559955858 0.7049820554753349 0  0.4402783634162188 0.5394883596129003 0  0.4402611995599696 0.5394623889691117 0  0.5597216365837812 0.5394883596129002 0  0.4392486867048468 0.5405008724680237 0  0.5597388004400302 0.5394623889691096 0  0.4392486877998708 0.4594991286270004 0  0.5607513122089726 0.540500871381843 0  0.4402611995599696 0.4605376110308884 0  0.6585291002591651 0.5 0  0.4402783634162188 0.4605116403870998 0  0.5607513121946796 0.45949912863245 0  0.5597216365837812 0.4605116403870998 0  0.5597388004400302 0.4605376110308904 0  0.78494531690701 0.5607513132896949 0  0.8017213405679641 0.6012522041356455 0  0.7839068334135535 0.5597388004400315 0  0.7039435730626069 0.5607513122089671 0  0.7839328040573448 0.5597216365837812 0  0.7049820554753355 0.5597388004400314 0  0.7839328040573448 0.4402783634162188 0  0.7049560848315441 0.5597216365837812 0  0.7839068334135545 0.4402611995599696 0  0.7291075844940784 0.5 0  0.784945315826279 0.4392486877910359 0  0.7049560848315444 0.4402783634162188 0  0.8017213405679641 0.3987477958643545 0  0.7049820554753344 0.4402611995599696 0  0.7039435719764182 0.4392486867048443 0  0.5405008724625655 0.8051957577341393 0  0.5572768961235196 0.84569664858009 0  0.539462388969109 0.804183244884476 0  0.4594991286181648 0.8051957566534091 0  0.5394883596129003 0.8041660810282256 0  0.4605376110308911 0.804183244884476 0  0.5394883596129003 0.6847228078606633 0  0.4605116403870998 0.8041660810282256 0  0.53946238896911 0.6847056440044139 0  0.4846631400496339 0.7444444444444445 0  0.5405008713818347 0.6836931322354802 0  0.4605116403870998 0.6847228078606633 0  0.5572768961235196 0.643192240308799 0  0.46053761103089 0.6847056440044139 0  0.4594991275353449 0.6836931311526599 0  0.6847228078606633 0.7839328040573448 0  0.684705644004414 0.7839068334135562 0  0.8041660810282256 0.7839328040573447 0  0.6836931311493016 0.7849453169124578 0  0.8041832448844747 0.783906833413554 0  0.68369313223548 0.7039435730626096 0  0.805195756653417 0.7849453158262875 0  0.6847056440044141 0.7049820554753328 0  0.9029735447036096 0.7444444444444445 0  0.6847228078606633 0.7049560848315441 0  0.805195757738809 0.7039435719772094 0  0.8041660810282256 0.7049560848315441 0  0.8041832448844747 0.7049820554753349 0  0.9578164230213342 0.6948838683471341 0  0.9645772892192558 0.7062137009141434 0  0.9695236884064815 0.7184451175460498 0  0.972538971146615 0.7312896684428197 0  0.9725389711466151 0.7575992204460691 0  0.9695236884064815 0.7704437713428391 0  0.9645772892192558 0.7826751879747456 0  0.9578164230213342 0.7940050205417549 0  0.01437766570919127 0.09711967848259151 0  0.02854851642641832 0.09974531144948819 0  0.04161535472570586 0.1058251712658871 0  0.05275088139110013 0.1149743244732108 0  0.06125007411586489 0.1266135117968212 0  0.06657482449792251 0.1400058227212122 0  0.06643634307317195 0.1691277076584997 0  0.06071435336153361 0.1829418078690686 0  0.04134737123322858 0.3039103077764334 0  0.03416190609801732 0.2911362521989113 0  0.02925217947541549 0.2773267630846004 0  0.02676106927623143 0.2628837102534819 0  0.02676106927623143 0.2482274008576293 0  0.02925217947541547 0.2337843480265108 0  0.03416190609801727 0.2199748589121999 0  0.04134737123322851 0.2072008033346779 0  0.06071435387356935 0.328169304128914 0  0.06643634320569657 0.3419834039471998 0  0.06657482449792249 0.371105288389899 0  0.06125007411586481 0.3844975993142901 0  0.05275088139109994 0.3961367866379005 0  0.04161535472570563 0.4052859398452242 0  0.02854851642641818 0.411365799661623 0  0.01437766570919127 0.4139914326285196 0  0 0.4697526254167924 0  0 0.455563619650285 0  0 0.4413746138837777 0  0 0.4271856081172704 0  0.06095233986089402 0.4687284952262988 0  0.04995687430503332 0.4753797281664747 0  0.03809234373417287 0.4803165365228644 0  0.02562418374773841 0.4834284730529493 0  0.01283133446055119 0.4846459169037758 0  0.08372485599813187 0.4503967593658507 0  0.09753895276796982 0.4446747697099958 0  0.1123633055586467 0.4427231038764812 0  0.1271876590095525 0.4446747646950606 0  0.1410017577150834 0.45039674967774 0  0.1528641934757506 0.4594991149204779 0  0.161966560724962 0.471361549141524 0  0.1676885480442292 0.4851756468792086 0  0.1676885480443665 0.514824353120279 0  0.1619665607254926 0.528638450857557 0  0.1528641934768762 0.5405008850783964 0  0.1410017577169217 0.5496032503211987 0  0.1271876590121153 0.5553252353042526 0  0.1123633055618306 0.5572768961235188 0  0.09753895277155772 0.5553252302909656 0  0.08372485600180817 0.5496032406362719 0  0.0128313344605512 0.5153540830962242 0  0.0256241837477384 0.5165715269470507 0  0.03809234373417282 0.5196834634771356 0  0.04995687430503334 0.5246202718335253 0  0.06095233986089401
[...]
<PointData  Tensors="$\sigma$"> 
<DataArray  type="Float64"  Name="$\sigma$"  NumberOfComponents="9" format="ascii">-5.7099913235474423e+03 -6.1032064423314978e+03 0.0000000000000000e+00 -6.1032064423314951e+03 -7.4379114725328627e+03 0.0000000000000000e+00 0.0000000000000000e+00 0.0000000000000000e+00 0.0000000000000000e+00  -5.4745394407390359e+03 -5.7408425308901833e+03 0.0000000000000000e+00 -5.7408425308901878e+03 -3.1909476044916269e+03 0.0000000000000000e+00 0.0000000000000000e+00 0.0000000000000000e+00 0.0000000000000000e+00  -5.9461895143876254e+03 -5.7962667873853652e+03 0.0000000000000000e+00 -5.7962667873853716e+03 -7.4956737845677872e+03 0.0000000000000000e+00 0.0000000000000000e+00 0.0000000000000000e+00 0.0000000000000000e+00  -3.6858625695739100e+01 -1.8282365584432384e+02 0.0000000000000000e+00 -1.8282365584432395e+02 -1.1957664948724505e+04 0.0000000000000000e+00 0.0000000000000000e+00 0.0000000000000000e+00 0.0000000000000000e+00  -4.2224042555666292e+03 5.1858156590359604e+03 0.0000000000000000e+00 5.1858156590359677e+03 -5.7242748612123423e+03 0.0000000000000000e+00 0.0000000000000000e+00 0.0000000000000000e+00 0.0000000000000000e+00  -8.8391533354977382e+03 6.6896044110909870e+03 0.0000000000000000e+00 6.6896044110909825e+03 -7.4795104109551294e+03 0.0000000000000000e+00 0.0000000000000000e+00 0.0000000000000000e+00 0.0000000000000000e+00  -3.5780636409993440e+03 4.4460797792408512e+03 0.0000000000000000e+00 4.4460797792408539e+03 -4.1722022742483468e+03 0.0000000000000000e+00 0.0000000000000000e+00 0.0000000000000000e+00 0.0000000000000000e+00  5.2237936199341178e+01 1.9194935068405949e+00 0.0000000000000000e+00 1.9194935068406223e+00 2.1149107773639553e+01 0.0000000000000000e+00 0.0000000000000000e+00 0.0000000000000000e+00 0.0000000000000000e+00  1.2092913861740570e+01 6.6682901551064006e+01 0.0000000000000000e+00 6.6682901551063509e+01 8.1547858399393035e+03 0.0000000000000000e+00 0.0000000000000000e+00 0.0000000000000000e+00 0.0000000000000000e+00  -3.5827976473169656e+03 4.0432612341079503e+03 0.0000000000000000e+00 4.0432612341079534e+03 -4.8635635600113719e+03 0.0000000000000000e+00 0.0000000000000000e+00 0.0000000000000000e+00 0.0000000000000000e+00  -8.5394542407687313e+03 6.8742697770837412e+03 0.0000000000000000e+00 6.8742697770837322e+03 -6.7651266424529595e+03 0.0000000000000000e+00 0.0000000000000000e+00 0.0000000000000000e+00 0.0000000000000000e+00  -4.1421689726483373e+03 4.9804474850476490e+03 0.0000000000000000e+00 4.9804474850476536e+03 -5.3784884408179578e+03 0.0000000000000000e+00 0.0000000000000000e+00 0.0000000000000000e+00 0.0000000000000000e+00  -5.1687452995678950e+03 -6.0069535482865776e+03 0.0000000000000000e+00 -6.0069535482865758e+03 -6.9450053728415814e+03 0.0000000000000000e+00 0.0000000000000000e+00 0.0000000000000000e+00 0.0000000000000000e+00  -7.4355484428906157e+03 -5.4730966220539030e+03 0.0000000000000000e+00 -5.4730966220539058e+03 -4.4522857985864757e+03 0.0000000000000000e+00 0.0000000000000000e+00 0.0000000000000000e+00 0.0000000000000000e+00  -4.4518135485547100e+03 -6.4019046371001295e+03 0.0000000000000000e+00 -6.4019046371001232e+03 -6.8752548512823587e+03 0.0000000000000000e+00 0.0000000000000000e+00 0.0000000000000000e+00 0.0000000000000000e+00  2.6558674460486611e+02 -3.5977836925279860e+01 0.0000000000000000e+00 -3.5977836925279902e+01 1.6038145523457288e+03 0.0000000000000000e+00 0.0000000000000000e+00 0.0000000000000000e+00 0.0000000000000000e+00  1.4993022552787187e+00 8.7804360166659734e-01 0.0000000000000000e+00 8.7804360166659734e-01 -7.4627047241057616e+00 0.0000000000000000e+00 0.0000000000000000e+00 0.0000000000000000e+00 0.0000000000000000e+00  -1.0681899780003314e+00 4.5808740515609353e-01 0.0000000000000000e+00 4.5808740515609425e-01 2.8068329919657238e+00 0.0000000000000000e+00 0.0000000000000000e+00 0.0000000000000000e+00 0.0000000000000000e+00  -3.2410166843325314e+01 2.9267584380845804e+01 0.0000000000000000e+00 2.9267584380845847e+01 -1.6905703562565296e+01 0.0000000000000000e+00 0.0000000000000000e+00 0.0000000000000000e+00 0.0000000000000000e+00  -1.2131021927718113e+02 4.2370526812740621e+01 0.0000000000000000e+00 4.2370526812740586e+01 -6.3523166920258141e+01 0.0000000000000000e+00 0.0000000000000000e+00 0.0000000000000000e+00 0.0000000000000000e+00  2.4049200990331926e+01 5.9306004824672399e+01 0.0000000000000000e+00 5.9306004824672428e+01 -4.7313318288090123e+01 0.0000000000000000e+00 0.0000000000000000e+00 0.0000000000000000e+00 0.0000000000000000e+00  5.2156264712575758e+03 -2.3806927659900140e+02 0.0000000000000000e+00 -2.3806927659900168e+02 1.8034252675972257e+04 0.0000000000000000e+00 0.0000000000000000e+00 0.0000000000000000e+00 0.0000000000000000e+00  -1.3862257592830295e+01 -8.7504419574000337e+01 0.0000000000000000e+00 -8.7504419574000252e+01 -3.5101833420028242e+01 0.0000000000000000e+00 0.0000000000000000e+00 0.0000000000000000e+00 0.0000000000000000e+00  1.1849198423202026e+02 1.8883117984212655e+02 0.0000000000000000e+00 1.8883117984212643e+02 1.1973319272266093e+02 0.0000000000000000e+00 0.0000000000000000e+00 0.0000000000000000e+00 0.0000000000000000e+00  -2.3670757684164624e+01 -2.3803256600461523e+01 0.0000000000000000e+00 -2.3803256600461538e+01 -8.6481049853068903e+00 0.0000000000000000e+00 0.0000000000000000e+00 0.0000000000000000e+00 0.0000000000000000e+00  1.3296850400882811e+00 4.2425492334251541e-01 0.0000000000000000e+00 4.2425492334251436e-01 2.7404108005045416e+00 0.0000000000000000e+00 0.0000000000000000e+00 0.0000000000000000e+00 0.0000000000000000e+00  -6.1820148367031367e+00 -8.0704690348269548e+00 0.0000000000000000e+00 -8.0704690348269459e+00 1.2425563632867105e+00 0.0000000000000000e+00 0.0000000000000000e+00 0.0000000000000000e+00 0.0000000000000000e+00  -1.2029446587572163e+01 -1.7792421831010017e+01 0.0000000000000000e+00 -1.7792421831010234e+01 1.6744417548643457e+03 0.0000000000000000e+00 0.0000000000000000e+00 0.0000000000000000e+00 0.0000000000000000e+00  -5.3494081459436911e+03 6.2938956106587948e+03 0.0000000000000000e+00 6.2938956106587893e+03 -7.6668133192069563e+03 0.0000000000000000e+00 0.0000000000000000e+00 0.0000000000000000e+00 0.0000000000000000e+00  -6.3298496375258082e+03 5.5916875727165025e+03 0.0000000000000000e+00 5.5916875727164988e+03 -2.8640985577303750e+03 0.0000000000000000e+00 0.0000000000000000e+00 0.0000000000000000e+00 0.0000000000000000e+00  -5.2542936425282242e+03 5.7790805048464590e+03 0.0000000000000000e+00 5.7790805048464563e+03 -7.6003420596255537e+03 0.0000000000000000e+00 0.0000000000000000e+00 0.0000000000000000e+00 0.0000000000000000e+00  -4.3242588195768785e+03 -5.1700546429987289e+03 0.0000000000000000e+00 -5.1700546429987289e+03 -5.6317687833976115e+03 0.0000000000000000e+00 0.0000000000000000e+00 0.0000000000000000e+00 0.0000000000000000e+00  -8.3908236959695932e+03 -6.7163506384690500e+03 0.0000000000000000e+00 -6.7163506384690500e+03 -7.4405520727503790e+03 0.0000000000000000e+00 0.0000000000000000e+00 0.0000000000000000e+00 0.0000000000000000e+00  -3.7442193497228964e+03 -4.2665487959298571e+03 0.0000000000000000e+00 -4.2665487959298544e+03 -4.0581092101192880e+03 0.0000000000000000e+00 0.0000000000000000e+00 0.0000000000000000e+00 0.0000000000000000e+00  1.0165560526548515e+02 -3.2499891703323448e+02 0.0000000000000000e+00 -3.2499891703323465e+02 7.7664501529288309e+03 0.0000000000000000e+00 0.0000000000000000e+00 0.0000000000000000e+00 0.0000000000000000e+00  -9.4755890953707066e+01 4.1989424557291827e+01 0.0000000000000000e+00 4.1989424557291848e+01 -4.1117432781769367e+01 0.0000000000000000e+00 0.0000000000000000e+00 0.0000000000000000e+00 0.0000000000000000e+00  4.2835212199517416e+00 9.0496082358481988e+00 0.0000000000000000e+00 9.0496082358481971e+00 6.1169070524145172e+02 0.0000000000000000e+00 0.0000000000000000e+00 0.0000000000000000e+00 0.0000000000000000e+00  2.8810007943560847e+00 -1.2828477084109476e+01 0.0000000000000000e+00 -1.2828477084109512e+01 6.2666521695070128e+02 0.0000000000000000e+00 0.0000000000000000e+00 0.0000000000000000e+00 0.0000000000000000e+00  4.9823603545267211e+01 -2.6661043998717782e+00 0.0000000000000000e+00 -2.6661043998716694e+00 -1.9547431365229322e+01 0.0000000000000000e+00 0.0000000000000000e+00 0.0000000000000000e+00 0.0000000000000000e+00  -8.0774277379912629e+00 -1.7199009355158283e+00 0.0000000000000000e+00 -1.7199009355158268e+00 -2.8932827121535953e+00 0.0000000000000000e+00 0.0000000000000000e+00 0.0000000000000000e+00 0.0000000000000000e+00  8.6312802580254377e-01 3.7514322798054561e-01 0.0000000000000000e+00 3.7514322798054528e-01 9.8941256501745123e-01 0.0000000000000000e+00 0.0000000000000000e+00 0.0000000000000000e+00 0.0000000000000000e+00  -2.0886278160831608e+01 2.1614842489524968e+01 0.0000000000000000e+00 2.1614842489524953e+01 -1.8362809920868479e+01 0.0000000000000000e+00 0.0000000000000000e+00 0.0000000000000000e+00 0.0000000000000000e+00  -3.8526376776665678e+01 -6.1282109059333528e+01 0.0000000000000000e+00 -6.1282109059333543e+01 1.7787687190784588e+01 0.0000000000000000e+00 0.0000000000000000e+00 0.0000000000000000e+00 0.0000000000000000e+00  3.1959831937052350e+01 6.8503597337659571e+01 0.0000000000000000e+00 6.8503597337659627e+01 -2.7169173647934151e+01 0.0000000000000000e+00 0.0000000000000000e+00 0.0000000000000000e+00 0.0000000000000000e+00  -1.4726897638749199e+01 -6.7034070016933370e+01 0.0000000000000000e+00 -6.7034070016933242e+01 -6.7102193490953098e+01 0.0000000000000000e+00 0.0000000000000000e+00 0.0000000000000000e+00 0.0000000000000000e+00  -1.4093025696342045e+02 -1.0129300161747308e+02 0.0000000000000000e+00 -1.0129300161747301e+02 -1.2568280493048243e+02 0.0000000000000000e+00 0.0000000000000000e+00 0.0000000000000000e+00 0.0000000000000000e+00  -4.4065849093742635e+01 -2.8672511700739395e+01 0.0000000000000000e+00 -2.8672511700739435e+01 -1.4244060156224672e+00 0.0000000000000000e+00 0.0000000000000000e+00 0.0000000000000000e+00 0.0000000000000000e+00  -1.4522408207225512e+00 -6.9693908517418190e-01 0.0000000000000000e+00 -6.9693908517418102e-01 3.1222246488728955e-01 0.0000000000000000e+00 0.0000000000000000e+00 0.0000000000000000e+00 0.0000000000000000e+00  -5.1436546516576671e+00 -1.8816512766226627e+00 0.0000000000000000e+00 -1.8816512766226605e+00 -3.8424243922882590e+00 0.0000000000000000e+00 0.0000000000000000e+00 0.0000000000000000e+00 0.0000000000000000e+00  -5.1086286997118805e+03 5.9592627660487005e+03 0.0000000000000000e+00 5.9592627660486960e+03 -7.3195824561298268e+03 0.0000000000000000e+00 0.0000000000000000e+00 0.0000000000000000e+00 0.0000000000000000e+00  -5.6958858392950897e+03 5.7653143286198056e+03 0.0000000000000000e+00 5.7653143286198101e+03 -2.9602202035825503e+03 0.0000000000000000e+00 0.0000000000000000e+00 0.0000000000000000e+00 0.0000000000000000e+00  -6.4153936545311117e+03 5.8124222634326561e+03 0.0000000000000000e+00 5.8124222634326497e+03 -7.9612773646017895e+03 0.0000000000000000e+00 0.0000000000000000e+00 0.0000000000000000e+00 0.0000000000000000e+00  -8.5389745942383499e+01 6.8739201309892309e+01 0.0000000000000000e+00 6.8739201309893588e+01 -1.1955668884372582e+04 0.0000000000000000e+00 0.0000000000000000e+00 0.0000000000000000e+00 0.0000000000000000e+00  -4.1003506037907973e+03 -5.1560026497340959e+03 0.0000000000000000e+00 -5.1560026497340978e+03 -5.4683313422879992e+03 0.0000000000000000e+00 0.0000000000000000e+00 0.0000000000000000e+00 0.0000000000000000e+00  -8.8776792477165454e+03 -6.8265603003035912e+03 0.0000000000000000e+00 -6.8265603003035912e+03 -6.9419918853244835e+03 0.0000000000000000e+00 0.0000000000000000e+00 0.0000000000000000e+00 0.0000000000000000e+00  -3.7413264629661066e+03 -4.2534080583923669e+03 0.0000000000000000e+00 -4.2534080583923633e+03 -5.0770593528006902e+03 0.0000000000000000e+00 0.0000000000000000e+00 0.0000000000000000e+00 0.0000000000000000e+00  -3.5060404356070769e+01 7.2156367787696682e+00 0.0000000000000000e+00 7.2156367787695981e+00 -1.5377158092225480e+01 0.0000000000000000e+00 0.0000000000000000e+00 0.0000000000000000e+00 0.0000000000000000e+00  4.4262648558854245e+00 5.6956811296809873e+00 0.0000000000000000e+00 5.6956811296810006e+00 6.1729742764404079e+02 0.0000000000000000e+00 0.0000000000000000e+00 0.0000000000000000e+00 0.0000000000000000e+00  1.4990446042987597e+02 1.2158525990719218e+02 0.0000000000000000e+00 1.2158525990719210e+02 7.3790224540086717e+02 0.0000000000000000e+00 0.0000000000000000e+00 0.0000000000000000e+00 0.0000000000000000e+00  -6.4074311644085510e+03 5.9604079229980052e+03 0.0000000000000000e+00 5.9604079229980071e+03 -5.1398929355568380e+03 0.0000000000000000e+00 0.0000000000000000e+00 0.0000000000000000e+00 0.0000000000000000e+00  -6.8336246691578071e+03 6.0462397871565117e+03 0.0000000000000000e+00 6.0462397871565081e+03 -9.5617916218077535e+03 0.0000000000000000e+00 0.0000000000000000e+00 0.0000000000000000e+00 0.0000000000000000e+00  -5.6867523318921030e+03 -5.8715109403443485e+03 0.0000000000000000e+00 -5.8715109403443503e+03 -5.6274220337596380e+03 0.0000000000000000e+00 0.0000000000000000e+00 0.0000000000000000e+00 0.0000000000000000e+00  -5.6921874348799674e+03 6.0394307836775079e+03 0.0000000000000000e+00 6.0394307836775115e+03 -2.8170327487090831e+03 0.0000000000000000e+00 0.0000000000000000e+00 0.0000000000000000e+00 0.0000000000000000e+00  -7.0368601976676182e+03 -5.8689936347005123e+03 0.0000000000000000e+00 -5.8689936347005068e+03 -7.0416961576818094e+03 0.0000000000000000e+00 0.0000000000000000e+00 0.0000000000000000e+00 0.0000000000000000e+00  -1.2276686381326112e+03 -1.1922899371586520e+03 0.0000000000000000e+00 -1.1922899371586543e+03 -9.1489973370620555e+02 0.0000000000000000e+00 0.0000000000000000e+00 0.0000000000000000e+00 0.0000000000000000e+00  -4.8411003543723391e+03 -5.7811890824374777e+03 0.0000000000000000e+00 -5.7811890824374759e+03 -4.3524447319332503e+03 0.0000000000000000e+00 0.0000000000000000e+00 0.0000000000000000e+00 0.0000000000000000e+00  -3.7113617979151502e+02 -4.1857316361345073e+02 0.0000000000000000e+00 -4.1857316361345045e+02 -8.6710507116027873e+02 0.0000000000000000e+00 0.0000000000000000e+00 0.0000000000000000e+00 0.0000000000000000e+00  3.6489687496347246e+03 2.9485845885279639e+02 0.0000000000000000e+00 2.9485845885279775e+02 1.6120008731261432e+04 0.0000000000000000e+00 0.0000000000000000e+00 0.0000000000000000e+00 0.0000000000000000e+00  -6.5862160190402517e+02 -6.0760260420960583e+02 0.0000000000000000e+00 -6.0760260420960503e+02 -3.9283244742344010e+02 0.0000000000000000e+00 0.0000000000000000e+00 0.0000000000000000e+00 0.0000000000000000e+00  -1.3030530676081978e+03 1.3882509674165790e+03 0.0000000000000000e+00 1.3882509674165756e+03 -1.1436849055814710e+03 0.0000000000000000e+00 0.0000000000000000e+00 0.0000000000000000e+00 0.0000000000000000e+00  -1.1705905516937746e+03 8.2703259267227656e+02 0.0000000000000000e+00 8.2703259267227691e+02 -6.3046613266872760e+02 0.0000000000000000e+00 0.0000000000000000e+00 0.0000000000000000e+00 0.0000000000000000e+00  4.0688934503202972e+02 -1.8420008447840641e+02 0.0000000000000000e+00 -1.8420008447840496e+02 -2.2121632316125957e+02 0.0000000000000000e+00 0.0000000000000000e+00 0.0000000000000000e+00 0.0000000000000000e+00  -4.6895190418474467e+03 -6.2541893045438310e+03 0.0000000000000000e+00 -6.2541893045438328e+03 -6.2092620228727874e+03 0.0000000000000000e+00 0.0000000000000000e+00 0.0000000000000000e+00 0.0000000000000000e+00  7.9532333365040290e+02 -6.7311212379251103e+01 0.0000000000000000e+00 -6.7311212379250009e+01 7.8376417810636804e+03 0.0000000000000000e+00 0.0000000000000000e+00 0.0000000000000000e+00 0.0000000000000000e+00  -5.7151336977998990e+03 -5.7397733128878062e+03 0.0000000000000000e+00 -5.7397733128878072e+03 -3.4076823030472519e+03 0.0000000000000000e+00 0.0000000000000000e+00 0.0000000000000000e+00 0.0000000000000000e+00  -4.4281917854328858e+03 6.2556257025301447e+03 0.0000000000000000e+00 6.2556257025301447e+03 -7.3501067308179499e+03 0.0000000000000000e+00 0.0000000000000000e+00 0.0000000000000000e+00 0.0000000000000000e+00  -6.5803302500990631e+03 -5.7660839612286900e+03 0.0000000000000000e+00 -5.7660839612286891e+03 -8.3149530304995988e+03 0.0000000000000000e+00 0.0000000000000000e+00 0.0000000000000000e+00 0.0000000000000000e+00  -5.6287612900932090e+03 5.7290815053622055e+03 0.0000000000000000e+00 5.7290815053622073e+03 -2.1676823148902295e+03 0.0000000000000000e+00 0.0000000000000000e+00 0.0000000000000000e+00 0.0000000000000000e+00  9.8790599301357850e+02 4.0810718355120744e+03 0.0000000000000000e+00 4.0810718355120716e+03 -5.1434650503818193e+03 0.0000000000000000e+00 0.0000000000000000e+00 0.0000000000000000e+00 0.0000000000000000e+00  -6.8986829583201043e+03 5.7658314147130104e+03 0.0000000000000000e+00 5.7658314147130122e+03 -8.5920211226509728e+03 0.0000000000000000e+00 0.0000000000000000e+00 0.0000000000000000e+00 0.0000000000000000e+00  -1.6042132809368661e+04 1.0464734884998821e+04 0.0000000000000000e+00 1.0464734884998827e+04 -1.9795707846971301e+04 0.0000000000000000e+00 0.0000000000000000e+00 0.0000000000000000e+00 0.0000000000000000e+00  6.0712127040793881e+01 1.7308867013543534e+02 0.0000000000000000e+00 1.7308867013543846e+02 -1.1663658466582856e+04 0.0000000000000000e+00 0.0000000000000000e+00 0.0000000000000000e+00 0.0000000000000000e+00  -1.0074055888067332e+03 -2.1450680267013690e+03 0.0000000000000000e+00 -2.1450680267013740e+03 9.0823439705845594e+03 0.0000000000000000e+00 0.0000000000000000e+00 0.0000000000000000e+00 0.0000000000000000e+00  -3.1270058666464752e+03 -3.1979951453485760e+03 0.0000000000000000e+00 -3.1979951453485751e+03 -4.0760536307214088e+03 0.0000000000000000e+00 0.0000000000000000e+00 0.0000000000000000e+00 0.0000000000000000e+00  8.1234553810092495e+02 -7.9265684296128802e+02 0.0000000000000000e+00 -7.9265684296128802e+02 1.3128036905460773e+04 0.0000000000000000e+00 0.0000000000000000e+00 0.0000000000000000e+00 0.0000000000000000e+00  -1.1873352668495696e+04 -1.0008188573656860e+04 0.0000000000000000e+00 -1.0008188573656862e+04 -1.7264483947756296e+04 0.0000000000000000e+00 0.0000000000000000e+00 0.0000000000000000e+00 0.0000000000000000e+00  -7.9699618864827573e+02 7.5113517747991239e+02 0.0000000000000000e+00 7.5113517747991045e+02 6.2378540930303898e+03 0.0000000000000000e+00 0.0000000000000000e+00 0.0000000000000000e+00 0.0000000000000000e+00  -5.5444301361605349e+03 5.8569573367927824e+03 0.0000000000000000e+00 5.8569573367927815e+03 -5.5085442448262484e+03 0.0000000000000000e+00 0.0000000000000000e+00 0.0000000000000000e+00 0.0000000000000000e+00  -7.2179991091251350e+03 5.9247986504078945e+03 0.0000000000000000e+00 5.9247986504078899e+03 -7.4612210721260963e+03 0.0000000000000000e+00 0.0000000000000000e+00 0.0000000000000000e+00 0.0000000000000000e+00  -7.3202667200034221e+03 -5.9678694312855923e+03 0.0000000000000000e+00 -5.9678694312855914e+03 -6.4666682586143506e+03 0.0000000000000000e+00 0.0000000000000000e+00 0.0000000000000000e+00 0.0000000000000000e+00  -4.7496254500368168e+03 5.7414366161380867e+03 0.0000000000000000e+00 5.7414366161380940e+03 -3.9135360838433448e+03 0.0000000000000000e+00 0.0000000000000000e+00 0.0000000000000000e+00 0.0000000000000000e+00  -5.7621735455734606e+03 -5.9548731723112132e+03 0.0000000000000000e+00 -5.9548731723112178e+03 -7.4577674293350947e+03 0.0000000000000000e+00 0.0000000000000000e+00 0.0000000000000000e+00 0.0000000000000000e+00  -1.5113307129349121e+03 -1.3350146984550572e+03 0.0000000000000000e+00 -1.3350146984550581e+03 -1.1169067110958595e+03 0.0000000000000000e+00 0.0000000000000000e+00 0.0000000000000000e+00 0.0000000000000000e+00  -5.6255438058102482e+03 -6.1376952432935332e+03 0.0000000000000000e+00 -6.1376952432935286e+03 -3.7147662285080501e+03 0.0000000000000000e+00 0.0000000000000000e+00 0.0000000000000000e+00 0.0000000000000000e+00  1.1652286151671892e+03 8.3692869307342380e+02 0.0000000000000000e+00 8.3692869307342335e+02 