<?xml version="1.0"?>
<VTKFile type="UnstructuredGrid"  version="0.1"  >
<UnstructuredGrid>
<Piece  NumberOfPoints="4855" NumberOfCells="8780">
<Points>
<DataArray  type="Float64"  NumberOfComponents="3"  format="ascii">0.9483880164242298 0.6836931311526558 0  0.9494264999197789 0.6847056440044139 0  0.9494005292759887 0.6847228078606633 0  0.9735520289385229 0.7444444444444445 0  0.9494005292759886 0.8041660810282256 0  0.94942649991978 0.8041832448844759 0  0.9483880175070514 0.8051957566534116 0  3.131175874138137e-16 0.09811450876034808 0  0.06838800723463068 0.1543033514199101 0  0.05161198249294494 0.1948042433465922 0  0.0505735000802211 0.1958167551155251 0  0.05059947072401128 0.1958339189717744 0  0.0505994707240113 0.3152771921393367 0  0.05057350008021998 0.315294355995587 0  0.05161198357913653 0.3163068688507105 0  0.06838800723463068 0.356807759691201 0  3.252606517456513e-16 0.4129966023507631 0  -1.795438797635995e-16 0.4839416311832997 0  0.07083274769489223 0.4605116403870998 0  0.07084991155114129 0.4605376110308903 0  0.07186242331670639 0.4594991286215342 0  0.1696402113702762 0.5 0  0.07186242332008326 0.5405008713818427 0  0.0708499115511413 0.5394623889691096 0  0.07083274769489219 0.5394883596129002 0  -1.925543058334256e-16 0.5160583688167003 0  1.484923295436147e-15 0.5870033976492365 0  0.06838800723463068 0.643192240308799 0  0.05161198249294541 0.6836931322354806 0  0.05057350008022109 0.6847056440044139 0  0.0505994707240113 0.6847228078606633 0  0.0505994707240113 0.8041660810282256 0  0.05057350008021999 0.804183244884476 0  0.05161198249294764 0.8051957566534106 0  0.06838800723463068 0.84569664858009 0  1.485790657174135e-15 0.9018854912396524 0  0 1 0  1 1 0  0.9999999999999987 0.9018854912396523 0  1.000000000000001 0.5870033976492375 0  1 0.5160583688167003 0  0.9291672523051078 0.5394883596129003 0  0.9291500884488585 0.5394623889691117 0  0.9281375755937461 0.5405008724680134 0  0.9281375755937372 0.4594991275319777 0  0.9291500884488586 0.4605376110308884 0  0.9291672523051077 0.4605116403870997 0  1 0.4839416311832997 0  0.9999999999999987 0.4129966023507635 0  0.948388017507054 0.31630686776452 0  0.94942649991978 0.3152943559955871 0  0.9494005292759886 0.3152771921393367 0  0.9735520289385229 0.2555555555555555 0  0.9494005292759888 0.1958339189717744 0  0.9494264999197789 0.1958167551155251 0  0.9483880164208631 0.1948042422604003 0  1.000000000000001 0.09811450876034861 0  1 0 0  0 0 0  0.1958339189717744 0.2950439151684559 0  0.1958167551155252 0.2950179445246672 0  0.3152771921393367 0.2950439151684557 0  0.1948042433481841 0.2960564269357975 0  0.3152943559955858 0.2950179445246651 0  0.1948042422604031 0.2150546830875326 0  0.3163068677645244 0.2960564269373949 0  0.1958167551155251 0.2160931665864439 0  0.4140846558147206 0.2555555555555555 0  0.1958339189717744 0.2160671959426553 0  0.3163068688489276 0.215054683089313 0  0.3152771921393367 0.2160671959426553 0  0.3152943559955858 0.2160931665864459 0  0.5405008724680257 0.3163068688507107 0  0.5572768961235196 0.356807759691201 0  0.5394623889691089 0.3152943559955871 0  0.459499128618165 0.3163068677645201 0  0.5394883596129003 0.3152771921393367 0  0.4605376110308911 0.3152943559955871 0  0.5394883596129001 0.1958339189717744 0  0.4605116403870998 0.3152771921393367 0  0.53946238896911 0.1958167551155251 0  0.4846631400496339 0.2555555555555555 0  0.5405008724680251 0.1948042422604009 0  0.4605116403870998 0.1958339189717744 0  0.5572768961235196 0.1543033514199101 0  0.46053761103089 0.1958167551155251 0  0.4594991286269881 0.1948042433554141 0  0.6847228078606633 0.2950439151684559 0  0.684705644004414 0.2950179445246672 0  0.8041660810282256 0.2950439151684557 0  0.683693131164073 0.2960564280087975 0  0.8041832448844747 0.2950179445246651 0  0.6836931322354718 0.2150546841737125 0  0.8051957566534156 0.2960564269373971 0  0.6847056440044141 0.2160931665864439 0  0.9029735447036096 0.2555555555555555 0  0.6847228078606632 0.2160671959426553 0  0.8051957577274008 0.2150546830997286 0  0.8041660810282256 0.2160671959426553 0  0.8041832448844747 0.2160931665864459 0  0.2960564280235811 0.560751313295155 0  0.3128324516790751 0.6012522041356455 0  0.2950179445246645 0.5597388004400315 0  0.2150546830875235 0.5607513132951615 0  0.2950439151684557 0.5597216365837812 0  0.2160931665864466 0.5597388004400314 0  0.2950439151684558 0.4402783634162188 0  0.2160671959426553 0.5597216365837812 0  0.2950179445246656 0.4402611995599696 0  0.2402186956051895 0.5 0  0.29605642693739 0.439248687791036 0  0.2160671959426553 0.4402783634162189 0  0.3128324516790751 0.3987477958643545 0  0.2160931665864455 0.4402611995599696 0  0.2150546830875296 0.4392486867048446 0  0.1958339189717743 0.7839328040573448 0  0.1958167551155252 0.7839068334135562 0  0.3152771921393367 0.7839328040573447 0  0.1948042422604028 0.7849453169124678 0  0.3152943559955858 0.783906833413554 0  0.1948042433465913 0.7039435730626098 0  0.3163068677645284 0.7849453158262878 0  0.1958167551155251 0.7049820554753328 0  0.4140846558147206 0.7444444444444445 0  0.1958339189717744 0.7049560848315441 0  0.3163068688486237 0.7039435719785058 0  0.3152771921393367 0.7049560848315441 0  0.3152943559955858 0.7049820554753349 0  0.4402783634162188 0.5394883596129003 0  0.4402611995599696 0.5394623889691117 0  0.5597216365837812 0.5394883596129002 0  0.4392486867048468 0.5405008724680237 0  0.5597388004400302 0.5394623889691096 0  0.4392486877998708 0.4594991286270004 0  0.5607513122089726 0.540500871381843 0  0.4402611995599696 0.4605376110308884 0  0.6585291002591651 0.5 0  0.4402783634162188 0.4605116403870998 0  0.5607513121946796 0.45949912863245 0  0.5597216365837812 0.4605116403870998 0  0.5597388004400302 0.4605376110308904 0  0.78494531690701 0.5607513132896949 0  0.8017213405679641 0.6012522041356455 0  0.7839068334135535 0.5597388004400315 0  0.7039435730626069 0.5607513122089671 0  0.7839328040573448 0.5597216365837812 0  0.7049820554753355 0.5597388004400314 0  0.7839328040573448 0.4402783634162188 0  0.7049560848315441 0.5597216365837812 0  0.7839068334135545 0.4402611995599696 0  0.7291075844940784 0.5 0  0.784945315826279 0.4392486877910359 0  0.7049560848315444 0.4402783634162188 0  0.8017213405679641 0.3987477958643545 0  0.7049820554753344 0.4402611995599696 0  0.7039435719764182 0.4392486867048443 0  0.5405008724625655 0.8051957577341393 0  0.5572768961235196 0.84569664858009 0  0.539462388969109 0.804183244884476 0  0.4594991286181648 0.8051957566534091 0  0.5394883596129003 0.8041660810282256 0  0.4605376110308911 0.804183244884476 0  0.5394883596129003 0.6847228078606633 0  0.4605116403870998 0.8041660810282256 0  0.53946238896911 0.6847056440044139 0  0.4846631400496339 0.7444444444444445 0  0.5405008713818347 0.6836931322354802 0  0.4605116403870998 0.6847228078606633 0  0.5572768961235196 0.643192240308799 0  0.46053761103089 0.6847056440044139 0  0.4594991275353449 0.6836931311526599 0  0.6847228078606633 0.7839328040573448 0  0.684705644004414 0.7839068334135562 0  0.8041660810282256 0.7839328040573447 0  0.6836931311493016 0.7849453169124578 0  0.8041832448844747 0.783906833413554 0  0.68369313223548 0.7039435730626096 0  0.805195756653417 0.7849453158262875 0  0.6847056440044141 0.7049820554753328 0  0.9029735447036096 0.7444444444444445 0  0.6847228078606633 0.7049560848315441 0  0.805195757738809 0.7039435719772094 0  0.8041660810282256 0.7049560848315441 0  0.8041832448844747 0.7049820554753349 0  0.9578164230213342 0.6948838683471341 0  0.9645772892192558 0.7062137009141434 0  0.9695236884064815 0.7184451175460498 0  0.972538971146615 0.7312896684428197 0  0.9725389711466151 0.7575992204460691 0  0.9695236884064815 0.7704437713428391 0  0.9645772892192558 0.7826751879747456 0  0.9578164230213342 0.7940050205417549 0  0.01437766570919127 0.09711967848259151 0  0.02854851642641832 0.09974531144948819 0  0.04161535472570586 0.1058251712658871 0  0.05275088139110013 0.1149743244732108 0  0.06125007411586489 0.1266135117968212 0  0.06657482449792251 0.1400058227212122 0  0.06643634307317195 0.1691277076584997 0  0.06071435336153361 0.1829418078690686 0  0.04134737123322858 0.3039103077764334 0  0.03416190609801732 0.2911362521989113 0  0.02925217947541549 0.2773267630846004 0  0.02676106927623143 0.2628837102534819 0  0.02676106927623143 0.2482274008576293 0  0.02925217947541547 0.2337843480265108 0  0.03416190609801727 0.2199748589121999 0  0.04134737123322851 0.2072008033346779 0  0.06071435387356935 0.328169304128914 0  0.06643634320569657 0.3419834039471998 0  0.06657482449792249 0.371105288389899 0  0.06125007411586481 0.3844975993142901 0  0.05275088139109994 0.3961367866379005 0  0.04161535472570563 0.4052859398452242 0  0.02854851642641818 0.411365799661623 0  0.01437766570919127 0.4139914326285196 0  0 0.4697526254167924 0  0 0.455563619650285 0  0 0.4413746138837777 0  0 0.4271856081172704 0  0.06095233986089402 0.4687284952262988 0  0.04995687430503332 0.4753797281664747 0  0.03809234373417287 0.4803165365228644 0  0.02562418374773841 0.4834284730529493 0  0.01283133446055119 0.4846459169037758 0  0.08372485599813187 0.4503967593658507 0  0.09753895276796982 0.4446747697099958 0  0.1123633055586467 0.4427231038764812 0  0.1271876590095525 0.4446747646950606 0  0.1410017577150834 0.45039674967774 0  0.1528641934757506 0.4594991149204779 0  0.161966560724962 0.471361549141524 0  0.1676885480442292 0.4851756468792086 0  0.1676885480443665 0.514824353120279 0  0.1619665607254926 0.528638450857557 0  0.1528641934768762 0.5405008850783964 0  0.1410017577169217 0.5496032503211987 0  0.1271876590121153 0.5553252353042526 0  0.1123633055618306 0.5572768961235188 0  0.09753895277155772 0.5553252302909656 0  0.08372485600180817 0.5496032406362719 0  0.0128313344605512 0.5153540830962242 0  0.0256241837477384 0.5165715269470507 0  0.03809234373417282 0.5196834634771356 0  0.04995687430503334 0.5246202718335253 0  0.06095233986089401
[...]
<PointData  Tensors="$\sigma$"> 
<DataArray  type="Float64"  Name="$\sigma$"  NumberOfComponents="9" format="ascii">-4.6804143862754581e+03 -5.7474639144523671e+03 0.0000000000000000e+00 -5.7474639144523690e+03 -6.2826204390982275e+03 0.0000000000000000e+00 0.0000000000000000e+00 0.0000000000000000e+00 0.0000000000000000e+00  -7.4003081148156134e+03 -6.0756416434315279e+03 0.0000000000000000e+00 -6.0756416434315215e+03 -5.7654818117714967e+03 0.0000000000000000e+00 0.0000000000000000e+00 0.0000000000000000e+00 0.0000000000000000e+00  -5.2117296270494517e+03 -5.9179894901879907e+03 0.0000000000000000e+00 -5.9179894901879879e+03 -6.0136501407197966e+03 0.0000000000000000e+00 0.0000000000000000e+00 0.0000000000000000e+00 0.0000000000000000e+00  1.1620498383243172e+01 -3.3509679794558440e+02 0.0000000000000000e+00 -3.3509679794558514e+02 -1.1514792361061511e+04 0.0000000000000000e+00 0.0000000000000000e+00 0.0000000000000000e+00 0.0000000000000000e+00  -5.2435521519619142e+03 6.0895540168541556e+03 0.0000000000000000e+00 6.0895540168541684e+03 -6.8030163720502633e+03 0.0000000000000000e+00 0.0000000000000000e+00 0.0000000000000000e+00 0.0000000000000000e+00  -8.0753403193747617e+03 5.9176064215718161e+03 0.0000000000000000e+00 5.9176064215718161e+03 -5.9323894395489151e+03 0.0000000000000000e+00 0.0000000000000000e+00 0.0000000000000000e+00 0.0000000000000000e+00  -3.8080736734661173e+03 5.3686741040238512e+03 0.0000000000000000e+00 5.3686741040238485e+03 -5.0866959512074427e+03 0.0000000000000000e+00 0.0000000000000000e+00 0.0000000000000000e+00 0.0000000000000000e+00  7.8624092180167210e+01 4.3015901970981609e+00 0.0000000000000000e+00 4.3015901970981503e+00 3.2139299814475635e+01 0.0000000000000000e+00 0.0000000000000000e+00 0.0000000000000000e+00 0.0000000000000000e+00  -3.8091184854840868e+01 7.7672534138213322e+01 0.0000000000000000e+00 7.7672534138212868e+01 8.3139961940226713e+03 0.0000000000000000e+00 0.0000000000000000e+00 0.0000000000000000e+00 0.0000000000000000e+00  -4.3385414345500049e+03 4.7797239077808399e+03 0.0000000000000000e+00 4.7797239077808408e+03 -6.3329063333373397e+03 0.0000000000000000e+00 0.0000000000000000e+00 0.0000000000000000e+00 0.0000000000000000e+00  -7.2754588829186105e+03 6.1927367364769534e+03 0.0000000000000000e+00 6.1927367364769552e+03 -4.6471948960866966e+03 0.0000000000000000e+00 0.0000000000000000e+00 0.0000000000000000e+00 0.0000000000000000e+00  -5.2463114215077494e+03 5.9061514043941515e+03 0.0000000000000000e+00 5.9061514043941543e+03 -6.5775867398865466e+03 0.0000000000000000e+00 0.0000000000000000e+00 0.0000000000000000e+00 0.0000000000000000e+00  -4.6615400225908552e+03 -5.9507475285444698e+03 0.0000000000000000e+00 -5.9507475285444716e+03 -5.4622446475243451e+03 0.0000000000000000e+00 0.0000000000000000e+00 0.0000000000000000e+00 0.0000000000000000e+00  -8.8456161211901926e+03 -6.0521046483066457e+03 0.0000000000000000e+00 -6.0521046483066584e+03 -6.3272495416880447e+03 0.0000000000000000e+00 0.0000000000000000e+00 0.0000000000000000e+00 0.0000000000000000e+00  -3.6219003761923013e+03 -5.7179099611508918e+03 0.0000000000000000e+00 -5.7179099611508782e+03 -6.1973414351392421e+03 0.0000000000000000e+00 0.0000000000000000e+00 0.0000000000000000e+00 0.0000000000000000e+00  3.4628318027007208e+02 5.3129477471487476e+00 0.0000000000000000e+00 5.3129477471492583e+00 1.0686409505582164e+03 0.0000000000000000e+00 0.0000000000000000e+00 0.0000000000000000e+00 0.0000000000000000e+00  4.1619120195936992e+00 3.6315385003330456e+00 0.0000000000000000e+00 3.6315385003330474e+00 -8.0094297021522181e+00 0.0000000000000000e+00 0.0000000000000000e+00 0.0000000000000000e+00 0.0000000000000000e+00  -4.0222297548500521e+00 1.1979230516561179e+00 0.0000000000000000e+00 1.1979230516561197e+00 3.6714840041494821e+00 0.0000000000000000e+00 0.0000000000000000e+00 0.0000000000000000e+00 0.0000000000000000e+00  -4.6402257668116150e+01 3.4252123206452410e+01 0.0000000000000000e+00 3.4252123206452403e+01 -1.8022841344511328e+01 0.0000000000000000e+00 0.0000000000000000e+00 0.0000000000000000e+00 0.0000000000000000e+00  -3.5151280042620874e+02 2.4056670204069113e+02 0.0000000000000000e+00 2.4056670204069113e+02 -2.6933079284826749e+02 0.0000000000000000e+00 0.0000000000000000e+00 0.0000000000000000e+00 0.0000000000000000e+00  8.7727324020357756e+01 3.1419758297889040e+01 0.0000000000000000e+00 3.1419758297889057e+01 -1.3190638505797699e+01 0.0000000000000000e+00 0.0000000000000000e+00 0.0000000000000000e+00 0.0000000000000000e+00  6.8188206750770596e+03 -3.2381842523435876e+02 0.0000000000000000e+00 -3.2381842523435841e+02 1.9753133715378244e+04 0.0000000000000000e+00 0.0000000000000000e+00 0.0000000000000000e+00 0.0000000000000000e+00  2.1756392266532373e+01 -6.9360943969282360e+01 0.0000000000000000e+00 -6.9360943969282189e+01 -2.3420605916969720e+01 0.0000000000000000e+00 0.0000000000000000e+00 0.0000000000000000e+00 0.0000000000000000e+00  1.0629184749262024e+02 1.9761701279845656e+02 0.0000000000000000e+00 1.9761701279845644e+02 1.3635580480880620e+02 0.0000000000000000e+00 0.0000000000000000e+00 0.0000000000000000e+00 0.0000000000000000e+00  -2.8219655252862481e+01 -3.1151206280610236e+01 0.0000000000000000e+00 -3.1151206280610214e+01 -1.8380253055984525e+01 0.0000000000000000e+00 0.0000000000000000e+00 0.0000000000000000e+00 0.0000000000000000e+00  -4.5491316399567266e-01 4.5995575299287506e-01 0.0000000000000000e+00 4.5995575299287250e-01 2.6342007614958485e+00 0.0000000000000000e+00 0.0000000000000000e+00 0.0000000000000000e+00 0.0000000000000000e+00  -9.6778985729240166e+00 -8.6588149523275337e+00 0.0000000000000000e+00 -8.6588149523275355e+00 -4.7981725693637978e-01 0.0000000000000000e+00 0.0000000000000000e+00 0.0000000000000000e+00 0.0000000000000000e+00  -3.9494602356029283e+01 -9.7813821334895707e+01 0.0000000000000000e+00 -9.7813821334895891e+01 1.1720842323149000e+03 0.0000000000000000e+00 0.0000000000000000e+00 0.0000000000000000e+00 0.0000000000000000e+00  -4.8283072022328251e+03 5.6807332194833834e+03 0.0000000000000000e+00 5.6807332194833643e+03 -6.6435538740440688e+03 0.0000000000000000e+00 0.0000000000000000e+00 0.0000000000000000e+00 0.0000000000000000e+00  -7.1658808746528503e+03 6.1195525687210265e+03 0.0000000000000000e+00 6.1195525687210320e+03 -4.6219946753929826e+03 0.0000000000000000e+00 0.0000000000000000e+00 0.0000000000000000e+00 0.0000000000000000e+00  -5.1410742225243002e+03 5.8104978029427466e+03 0.0000000000000000e+00 5.8104978029427539e+03 -6.8390914602892544e+03 0.0000000000000000e+00 0.0000000000000000e+00 0.0000000000000000e+00 0.0000000000000000e+00  -5.5225733252738364e+03 -6.1271256884842969e+03 0.0000000000000000e+00 -6.1271256884843060e+03 -6.9565606666320637e+03 0.0000000000000000e+00 0.0000000000000000e+00 0.0000000000000000e+00 0.0000000000000000e+00  -7.5074972691408948e+03 -5.9986848906141713e+03 0.0000000000000000e+00 -5.9986848906141649e+03 -5.8497415341765700e+03 0.0000000000000000e+00 0.0000000000000000e+00 0.0000000000000000e+00 0.0000000000000000e+00  -3.8807290164513402e+03 -4.9857213069023455e+03 0.0000000000000000e+00 -4.9857213069023501e+03 -4.7567740672176005e+03 0.0000000000000000e+00 0.0000000000000000e+00 0.0000000000000000e+00 0.0000000000000000e+00  5.4378105792909111e+01 -3.5271368154224263e+02 0.0000000000000000e+00 -3.5271368154224450e+02 7.9875702939987295e+03 0.0000000000000000e+00 0.0000000000000000e+00 0.0000000000000000e+00 0.0000000000000000e+00  -1.1175187753335028e+02 4.7663662657575678e+01 0.0000000000000000e+00 4.7663662657575678e+01 -4.4413798041669082e+01 0.0000000000000000e+00 0.0000000000000000e+00 0.0000000000000000e+00 0.0000000000000000e+00  1.8461547726655210e+00 1.1428868393972435e+01 0.0000000000000000e+00 1.1428868393972449e+01 6.4711878158271281e+02 0.0000000000000000e+00 0.0000000000000000e+00 0.0000000000000000e+00 0.0000000000000000e+00  -1.9948632230377783e-01 -1.5947880030888621e+01 0.0000000000000000e+00 -1.5947880030888667e+01 6.5828936622410561e+02 0.0000000000000000e+00 0.0000000000000000e+00 0.0000000000000000e+00 0.0000000000000000e+00  7.0341404006781232e+01 -2.4932168376595296e+00 0.0000000000000000e+00 -2.4932168376593506e+00 -2.1577331138114655e+01 0.0000000000000000e+00 0.0000000000000000e+00 0.0000000000000000e+00 0.0000000000000000e+00  -1.5135837200855930e+01 -2.5637188143804672e+00 0.0000000000000000e+00 -2.5637188143804708e+00 -9.3189646501652279e-01 0.0000000000000000e+00 0.0000000000000000e+00 0.0000000000000000e+00 0.0000000000000000e+00  7.1542949423603053e-01 8.4846148577502667e-01 0.0000000000000000e+00 8.4846148577502734e-01 -2.2700106867142572e-01 0.0000000000000000e+00 0.0000000000000000e+00 0.0000000000000000e+00 0.0000000000000000e+00  -1.7406250078455784e+01 7.2236684521599646e+00 0.0000000000000000e+00 7.2236684521599237e+00 -7.6927460557117922e+00 0.0000000000000000e+00 0.0000000000000000e+00 0.0000000000000000e+00 0.0000000000000000e+00  -4.8406890489408582e+01 -6.6976735658301521e+01 0.0000000000000000e+00 -6.6976735658301578e+01 2.2395823600547907e+01 0.0000000000000000e+00 0.0000000000000000e+00 0.0000000000000000e+00 0.0000000000000000e+00  6.3338936060553074e+01 6.2810024209604833e+01 0.0000000000000000e+00 6.2810024209604904e+01 -1.8233490249278599e+01 0.0000000000000000e+00 0.0000000000000000e+00 0.0000000000000000e+00 0.0000000000000000e+00  -1.4323458059724549e+01 -6.8203979835893108e+01 0.0000000000000000e+00 -6.8203979835893008e+01 -6.3126827329690279e+01 0.0000000000000000e+00 0.0000000000000000e+00 0.0000000000000000e+00 0.0000000000000000e+00  -2.0492809116272241e+02 -1.6177382564266622e+02 0.0000000000000000e+00 -1.6177382564266620e+02 -1.8318887714759870e+02 0.0000000000000000e+00 0.0000000000000000e+00 0.0000000000000000e+00 0.0000000000000000e+00  -4.6852862032470959e+01 -3.1794836877312584e+01 0.0000000000000000e+00 -3.1794836877312640e+01 -1.0949042276939956e+01 0.0000000000000000e+00 0.0000000000000000e+00 0.0000000000000000e+00 0.0000000000000000e+00  -2.6973159776623956e-01 -8.8460860549644332e-02 0.0000000000000000e+00 -8.8460860549642320e-02 3.6239869846368244e+00 0.0000000000000000e+00 0.0000000000000000e+00 0.0000000000000000e+00 0.0000000000000000e+00  -3.5477213795192095e+00 -1.3385491375907987e+00 0.0000000000000000e+00 -1.3385491375907987e+00 -3.7239565798854444e+00 0.0000000000000000e+00 0.0000000000000000e+00 0.0000000000000000e+00 0.0000000000000000e+00  -5.0199191067786060e+03 5.7236365271871255e+03 0.0000000000000000e+00 5.7236365271871136e+03 -6.4068574927072814e+03 0.0000000000000000e+00 0.0000000000000000e+00 0.0000000000000000e+00 0.0000000000000000e+00  -6.7363848731234284e+03 6.0968553254254775e+03 0.0000000000000000e+00 6.0968553254254775e+03 -5.0268877202391941e+03 0.0000000000000000e+00 0.0000000000000000e+00 0.0000000000000000e+00 0.0000000000000000e+00  -5.4891866395889738e+03 5.8639230392377913e+03 0.0000000000000000e+00 5.8639230392377931e+03 -6.6454490911344201e+03 0.0000000000000000e+00 0.0000000000000000e+00 0.0000000000000000e+00 0.0000000000000000e+00  -3.0689714876436869e+02 -7.1266056348650807e+01 0.0000000000000000e+00 -7.1266056348650324e+01 -1.1849323464358100e+04 0.0000000000000000e+00 0.0000000000000000e+00 0.0000000000000000e+00 0.0000000000000000e+00  -5.0938495160205212e+03 -6.0575407004808540e+03 0.0000000000000000e+00 -6.0575407004808494e+03 -6.1666303463914119e+03 0.0000000000000000e+00 0.0000000000000000e+00 0.0000000000000000e+00 0.0000000000000000e+00  -7.5723118075013399e+03 -6.1299543229184010e+03 0.0000000000000000e+00 -6.1299543229184037e+03 -5.2355368323365110e+03 0.0000000000000000e+00 0.0000000000000000e+00 0.0000000000000000e+00 0.0000000000000000e+00  -4.4901586475941749e+03 -5.0441316029430045e+03 0.0000000000000000e+00 -5.0441316029430036e+03 -6.4641844498690743e+03 0.0000000000000000e+00 0.0000000000000000e+00 0.0000000000000000e+00 0.0000000000000000e+00  -2.1300550628086480e+01 -1.1557430487929081e+00 0.0000000000000000e+00 -1.1557430487930656e+00 -2.2034623289119136e+01 0.0000000000000000e+00 0.0000000000000000e+00 0.0000000000000000e+00 0.0000000000000000e+00  7.3966196672757532e+00 4.1198005134590874e+00 0.0000000000000000e+00 4.1198005134590687e+00 6.5487926976750396e+02 0.0000000000000000e+00 0.0000000000000000e+00 0.0000000000000000e+00 0.0000000000000000e+00  1.5279963941501097e+02 1.2523458861230159e+02 0.0000000000000000e+00 1.2523458861230175e+02 7.8004373759927512e+02 0.0000000000000000e+00 0.0000000000000000e+00 0.0000000000000000e+00 0.0000000000000000e+00  -6.3860467766869879e+03 6.1046821913915137e+03 0.0000000000000000e+00 6.1046821913915110e+03 -5.7474766159023739e+03 0.0000000000000000e+00 0.0000000000000000e+00 0.0000000000000000e+00 0.0000000000000000e+00  -5.0983991849929671e+03 6.2894374715390586e+03 0.0000000000000000e+00 6.2894374715390586e+03 -7.7962959637889217e+03 0.0000000000000000e+00 0.0000000000000000e+00 0.0000000000000000e+00 0.0000000000000000e+00  -6.3687067722189659e+03 -5.8990714200970633e+03 0.0000000000000000e+00 -5.8990714200970724e+03 -5.6135459322691622e+03 0.0000000000000000e+00 0.0000000000000000e+00 0.0000000000000000e+00 0.0000000000000000e+00  -7.5773983488925369e+03 5.9600202235210445e+03 0.0000000000000000e+00 5.9600202235210527e+03 -4.1993133084688507e+03 0.0000000000000000e+00 0.0000000000000000e+00 0.0000000000000000e+00 0.0000000000000000e+00  -7.9087814661138109e+03 -5.8654767715617209e+03 0.0000000000000000e+00 -5.8654767715617127e+03 -8.6233568626532197e+03 0.0000000000000000e+00 0.0000000000000000e+00 0.0000000000000000e+00 0.0000000000000000e+00  -1.2689761500539894e+03 -1.2730843907449280e+03 0.0000000000000000e+00 -1.2730843907449319e+03 -9.9028013066210849e+02 0.0000000000000000e+00 0.0000000000000000e+00 0.0000000000000000e+00 0.0000000000000000e+00  -4.0082947920311167e+03 -6.1651146933487034e+03 0.0000000000000000e+00 -6.1651146933487153e+03 -3.2523509878192781e+03 0.0000000000000000e+00 0.0000000000000000e+00 0.0000000000000000e+00 0.0000000000000000e+00  -4.6169287890091681e+02 -5.2684888143987951e+02 0.0000000000000000e+00 -5.2684888143987780e+02 -1.0384466953669382e+03 0.0000000000000000e+00 0.0000000000000000e+00 0.0000000000000000e+00 0.0000000000000000e+00  3.8899569810036496e+03 3.4402495293301018e+02 0.0000000000000000e+00 3.4402495293301075e+02 1.6656449164590555e+04 0.0000000000000000e+00 0.0000000000000000e+00 0.0000000000000000e+00 0.0000000000000000e+00  -7.4037332011255285e+02 -6.2842385930439082e+02 0.0000000000000000e+00 -6.2842385930439082e+02 -3.5541843108154558e+02 0.0000000000000000e+00 0.0000000000000000e+00 0.0000000000000000e+00 0.0000000000000000e+00  -1.4891144137836272e+03 1.5327848056210287e+03 0.0000000000000000e+00 1.5327848056210266e+03 -1.2521359843902726e+03 0.0000000000000000e+00 0.0000000000000000e+00 0.0000000000000000e+00 0.0000000000000000e+00  -1.1976986027916635e+03 8.4588493497532693e+02 0.0000000000000000e+00 8.4588493497532613e+02 -6.3672389992822764e+02 0.0000000000000000e+00 0.0000000000000000e+00 0.0000000000000000e+00 0.0000000000000000e+00  5.8370581957822560e+02 -3.1399529589416892e+02 0.0000000000000000e+00 -3.1399529589416761e+02 -1.3721866662627866e+02 0.0000000000000000e+00 0.0000000000000000e+00 0.0000000000000000e+00 0.0000000000000000e+00  -4.1357786070772008e+03 -6.0741521845337284e+03 0.0000000000000000e+00 -6.0741521845337302e+03 -5.5552547054530050e+03 0.0000000000000000e+00 0.0000000000000000e+00 0.0000000000000000e+00 0.0000000000000000e+00  9.6055615433080641e+02 6.0654025609149826e+01 0.0000000000000000e+00 6.0654025609149301e+01 9.5388203530888277e+03 0.0000000000000000e+00 0.0000000000000000e+00 0.0000000000000000e+00 0.0000000000000000e+00  -7.7247297761425471e+03 -5.9960812496371209e+03 0.0000000000000000e+00 -5.9960812496371191e+03 -5.6752414038118122e+03 0.0000000000000000e+00 0.0000000000000000e+00 0.0000000000000000e+00 0.0000000000000000e+00  -4.2160308146046918e+03 5.8991664581324549e+03 0.0000000000000000e+00 5.8991664581324594e+03 -6.5061411263113059e+03 0.0000000000000000e+00 0.0000000000000000e+00 0.0000000000000000e+00 0.0000000000000000e+00  -5.3983801488319323e+03 -5.8572661434133061e+03 0.0000000000000000e+00 -5.8572661434133097e+03 -6.9666523661752572e+03 0.0000000000000000e+00 0.0000000000000000e+00 0.0000000000000000e+00 0.0000000000000000e+00  -6.8400540731183664e+03 6.1476909921613606e+03 0.0000000000000000e+00 6.1476909921613533e+03 -4.2123958199183899e+03 0.0000000000000000e+00 0.0000000000000000e+00 0.0000000000000000e+00 0.0000000000000000e+00  2.2378982878434513e+03 5.5897458071799156e+03 0.0000000000000000e+00 5.5897458071799174e+03 -6.8279714335768058e+03 0.0000000000000000e+00 0.0000000000000000e+00 0.0000000000000000e+00 0.0000000000000000e+00  -6.1607158234997805e+03 5.7926153400413823e+03 0.0000000000000000e+00 5.7926153400413878e+03 -7.5897665466807248e+03 0.0000000000000000e+00 0.0000000000000000e+00 0.0000000000000000e+00 0.0000000000000000e+00  -1.7272902677132235e+04 9.7646658952720518e+03 0.0000000000000000e+00 9.7646658952720500e+03 -1.9763702442774946e+04 0.0000000000000000e+00 0.0000000000000000e+00 0.0000000000000000e+00 0.0000000000000000e+00  -2.8385971958534520e+02 4.0412028099344968e+02 0.0000000000000000e+00 4.0412028099345213e+02 -1.2145635166363594e+04 0.0000000000000000e+00 0.0000000000000000e+00 0.0000000000000000e+00 0.0000000000000000e+00  -1.8814211005299126e+03 -1.1611315661941651e+03 0.0000000000000000e+00 -1.1611315661941640e+03 9.3072639485262334e+03 0.0000000000000000e+00 0.0000000000000000e+00 0.0000000000000000e+00 0.0000000000000000e+00  -5.0941217009353913e+03 -6.1206115706181945e+03 0.0000000000000000e+00 -6.1206115706181881e+03 -7.6763590703525442e+03 0.0000000000000000e+00 0.0000000000000000e+00 0.0000000000000000e+00 0.0000000000000000e+00  9.7359104308148994e+02 -1.0535828212200777e+03 0.0000000000000000e+00 -1.0535828212200756e+03 1.3461158333536299e+04 0.0000000000000000e+00 0.0000000000000000e+00 0.0000000000000000e+00 0.0000000000000000e+00  -1.1109590721179738e+04 -8.8447145948471407e+03 0.0000000000000000e+00 -8.8447145948471443e+03 -1.7316815716896701e+04 0.0000000000000000e+00 0.0000000000000000e+00 0.0000000000000000e+00 0.0000000000000000e+00  -1.5193382461819428e+03 1.0338523407026646e+02 0.0000000000000000e+00 1.0338523407025740e+02 8.1417535542844325e+03 0.0000000000000000e+00 0.0000000000000000e+00 0.0000000000000000e+00 0.0000000000000000e+00  -5.4018692364962862e+03 5.9118442763836329e+03 0.0000000000000000e+00 5.9118442763836374e+03 -4.4408407881934118e+03 0.0000000000000000e+00 0.0000000000000000e+00 0.0000000000000000e+00 0.0000000000000000e+00  -9.9080988448540011e+03 5.9836961350266974e+03 0.0000000000000000e+00 5.9836961350266956e+03 -1.1512001449308222e+04 0.0000000000000000e+00 0.0000000000000000e+00 0.0000000000000000e+00 0.0000000000000000e+00  -6.6967186041844416e+03 -6.0682520828376628e+03 0.0000000000000000e+00 -6.0682520828376637e+03 -5.7044278845898380e+03 0.0000000000000000e+00 0.0000000000000000e+00 0.0000000000000000e+00 0.0000000000000000e+00  -3.1075266640490099e+03 6.0679628537754343e+03 0.0000000000000000e+00 6.0679628537754379e+03 -1.4793542321820707e+03 0.0000000000000000e+00 0.0000000000000000e+00 0.0000000000000000e+00 0.0000000000000000e+00  -6.9889798719415548e+03 -6.2183476731557357e+03 0.0000000000000000e+00 -6.2183476731557294e+03 -9.0527313839579929e+03 0.0000000000000000e+00 0.0000000000000000e+00 0.0000000000000000e+00 0.0000000000000000e+00  -1.4849598584039786e+03 -1.3472784637255552e+03 0.0000000000000000e+00 -1.3472784637255543e+03 -1.1331157140150265e+03 0.0000000000000000e+00 0.0000000000000000e+00 0.0000000000000000e+00 0.0000000000000000e+00  -5.1048318850182286e+03 -6.1014751592492976e+03 0.0000000000000000e+00 -6.1014751592492985e+03 -2.8101216427981917e+03 0.0000000000000000e+00 0.0000000000000000e+00 0.0000000000000000e+00 0.0000000000000000e+00  1.3505912593992609e+03 1.0202186672362802e+03 0.0000000000000000e+00 1.0202186672362790e