<?xml version="1.0"?>
<VTKFile type="UnstructuredGrid"  version="0.1"  >
<UnstructuredGrid>
<Piece  NumberOfPoints="4855" NumberOfCells="8780">
<Points>
<DataArray  type="Float64"  NumberOfComponents="3"  format="ascii">0.9483880164242298 0.6836931311526558 0  0.9494264999197789 0.6847056440044139 0  0.9494005292759887 0.6847228078606633 0  0.9735520289385229 0.7444444444444445 0  0.9494005292759886 0.8041660810282256 0  0.94942649991978 0.8041832448844759 0  0.9483880175070514 0.8051957566534116 0  3.131175874138137e-16 0.09811450876034808 0  0.06838800723463068 0.1543033514199101 0  0.05161198249294494 0.1948042433465922 0  0.0505735000802211 0.1958167551155251 0  0.05059947072401128 0.1958339189717744 0  0.0505994707240113 0.3152771921393367 0  0.05057350008021998 0.315294355995587 0  0.05161198357913653 0.3163068688507105 0  0.06838800723463068 0.356807759691201 0  3.252606517456513e-16 0.4129966023507631 0  -1.795438797635995e-16 0.4839416311832997 0  0.07083274769489223 0.4605116403870998 0  0.07084991155114129 0.4605376110308903 0  0.07186242331670639 0.4594991286215342 0  0.1696402113702762 0.5 0  0.07186242332008326 0.5405008713818427 0  0.0708499115511413 0.5394623889691096 0  0.07083274769489219 0.5394883596129002 0  -1.925543058334256e-16 0.5160583688167003 0  1.484923295436147e-15 0.5870033976492365 0  0.06838800723463068 0.643192240308799 0  0.05161198249294541 0.6836931322354806 0  0.05057350008022109 0.6847056440044139 0  0.0505994707240113 0.6847228078606633 0  0.0505994707240113 0.8041660810282256 0  0.05057350008021999 0.804183244884476 0  0.05161198249294764 0.8051957566534106 0  0.06838800723463068 0.84569664858009 0  1.485790657174135e-15 0.9018854912396524 0  0 1 0  1 1 0  0.9999999999999987 0.9018854912396523 0  1.000000000000001 0.5870033976492375 0  1 0.5160583688167003 0  0.9291672523051078 0.5394883596129003 0  0.9291500884488585 0.5394623889691117 0  0.9281375755937461 0.5405008724680134 0  0.9281375755937372 0.4594991275319777 0  0.9291500884488586 0.4605376110308884 0  0.9291672523051077 0.4605116403870997 0  1 0.4839416311832997 0  0.9999999999999987 0.4129966023507635 0  0.948388017507054 0.31630686776452 0  0.94942649991978 0.3152943559955871 0  0.9494005292759886 0.3152771921393367 0  0.9735520289385229 0.2555555555555555 0  0.9494005292759888 0.1958339189717744 0  0.9494264999197789 0.1958167551155251 0  0.9483880164208631 0.1948042422604003 0  1.000000000000001 0.09811450876034861 0  1 0 0  0 0 0  0.1958339189717744 0.2950439151684559 0  0.1958167551155252 0.2950179445246672 0  0.3152771921393367 0.2950439151684557 0  0.1948042433481841 0.2960564269357975 0  0.3152943559955858 0.2950179445246651 0  0.1948042422604031 0.2150546830875326 0  0.3163068677645244 0.2960564269373949 0  0.1958167551155251 0.2160931665864439 0  0.4140846558147206 0.2555555555555555 0  0.1958339189717744 0.2160671959426553 0  0.3163068688489276 0.215054683089313 0  0.3152771921393367 0.2160671959426553 0  0.3152943559955858 0.2160931665864459 0  0.5405008724680257 0.3163068688507107 0  0.5572768961235196 0.356807759691201 0  0.5394623889691089 0.3152943559955871 0  0.459499128618165 0.3163068677645201 0  0.5394883596129003 0.3152771921393367 0  0.4605376110308911 0.3152943559955871 0  0.5394883596129001 0.1958339189717744 0  0.4605116403870998 0.3152771921393367 0  0.53946238896911 0.1958167551155251 0  0.4846631400496339 0.2555555555555555 0  0.5405008724680251 0.1948042422604009 0  0.4605116403870998 0.1958339189717744 0  0.5572768961235196 0.1543033514199101 0  0.46053761103089 0.1958167551155251 0  0.4594991286269881 0.1948042433554141 0  0.6847228078606633 0.2950439151684559 0  0.684705644004414 0.2950179445246672 0  0.8041660810282256 0.2950439151684557 0  0.683693131164073 0.2960564280087975 0  0.8041832448844747 0.2950179445246651 0  0.6836931322354718 0.2150546841737125 0  0.8051957566534156 0.2960564269373971 0  0.6847056440044141 0.2160931665864439 0  0.9029735447036096 0.2555555555555555 0  0.6847228078606632 0.2160671959426553 0  0.8051957577274008 0.2150546830997286 0  0.8041660810282256 0.2160671959426553 0  0.8041832448844747 0.2160931665864459 0  0.2960564280235811 0.560751313295155 0  0.3128324516790751 0.6012522041356455 0  0.2950179445246645 0.5597388004400315 0  0.2150546830875235 0.5607513132951615 0  0.2950439151684557 0.5597216365837812 0  0.2160931665864466 0.5597388004400314 0  0.2950439151684558 0.4402783634162188 0  0.2160671959426553 0.5597216365837812 0  0.2950179445246656 0.4402611995599696 0  0.2402186956051895 0.5 0  0.29605642693739 0.439248687791036 0  0.2160671959426553 0.4402783634162189 0  0.3128324516790751 0.3987477958643545 0  0.2160931665864455 0.4402611995599696 0  0.2150546830875296 0.4392486867048446 0  0.1958339189717743 0.7839328040573448 0  0.1958167551155252 0.7839068334135562 0  0.3152771921393367 0.7839328040573447 0  0.1948042422604028 0.7849453169124678 0  0.3152943559955858 0.783906833413554 0  0.1948042433465913 0.7039435730626098 0  0.3163068677645284 0.7849453158262878 0  0.1958167551155251 0.7049820554753328 0  0.4140846558147206 0.7444444444444445 0  0.1958339189717744 0.7049560848315441 0  0.3163068688486237 0.7039435719785058 0  0.3152771921393367 0.7049560848315441 0  0.3152943559955858 0.7049820554753349 0  0.4402783634162188 0.5394883596129003 0  0.4402611995599696 0.5394623889691117 0  0.5597216365837812 0.5394883596129002 0  0.4392486867048468 0.5405008724680237 0  0.5597388004400302 0.5394623889691096 0  0.4392486877998708 0.4594991286270004 0  0.5607513122089726 0.540500871381843 0  0.4402611995599696 0.4605376110308884 0  0.6585291002591651 0.5 0  0.4402783634162188 0.4605116403870998 0  0.5607513121946796 0.45949912863245 0  0.5597216365837812 0.4605116403870998 0  0.5597388004400302 0.4605376110308904 0  0.78494531690701 0.5607513132896949 0  0.8017213405679641 0.6012522041356455 0  0.7839068334135535 0.5597388004400315 0  0.7039435730626069 0.5607513122089671 0  0.7839328040573448 0.5597216365837812 0  0.7049820554753355 0.5597388004400314 0  0.7839328040573448 0.4402783634162188 0  0.7049560848315441 0.5597216365837812 0  0.7839068334135545 0.4402611995599696 0  0.7291075844940784 0.5 0  0.784945315826279 0.4392486877910359 0  0.7049560848315444 0.4402783634162188 0  0.8017213405679641 0.3987477958643545 0  0.7049820554753344 0.4402611995599696 0  0.7039435719764182 0.4392486867048443 0  0.5405008724625655 0.8051957577341393 0  0.5572768961235196 0.84569664858009 0  0.539462388969109 0.804183244884476 0  0.4594991286181648 0.8051957566534091 0  0.5394883596129003 0.8041660810282256 0  0.4605376110308911 0.804183244884476 0  0.5394883596129003 0.6847228078606633 0  0.4605116403870998 0.8041660810282256 0  0.53946238896911 0.6847056440044139 0  0.4846631400496339 0.7444444444444445 0  0.5405008713818347 0.6836931322354802 0  0.4605116403870998 0.6847228078606633 0  0.5572768961235196 0.643192240308799 0  0.46053761103089 0.6847056440044139 0  0.4594991275353449 0.6836931311526599 0  0.6847228078606633 0.7839328040573448 0  0.684705644004414 0.7839068334135562 0  0.8041660810282256 0.7839328040573447 0  0.6836931311493016 0.7849453169124578 0  0.8041832448844747 0.783906833413554 0  0.68369313223548 0.7039435730626096 0  0.805195756653417 0.7849453158262875 0  0.6847056440044141 0.7049820554753328 0  0.9029735447036096 0.7444444444444445 0  0.6847228078606633 0.7049560848315441 0  0.805195757738809 0.7039435719772094 0  0.8041660810282256 0.7049560848315441 0  0.8041832448844747 0.7049820554753349 0  0.9578164230213342 0.6948838683471341 0  0.9645772892192558 0.7062137009141434 0  0.9695236884064815 0.7184451175460498 0  0.972538971146615 0.7312896684428197 0  0.9725389711466151 0.7575992204460691 0  0.9695236884064815 0.7704437713428391 0  0.9645772892192558 0.7826751879747456 0  0.9578164230213342 0.7940050205417549 0  0.01437766570919127 0.09711967848259151 0  0.02854851642641832 0.09974531144948819 0  0.04161535472570586 0.1058251712658871 0  0.05275088139110013 0.1149743244732108 0  0.06125007411586489 0.1266135117968212 0  0.06657482449792251 0.1400058227212122 0  0.06643634307317195 0.1691277076584997 0  0.06071435336153361 0.1829418078690686 0  0.04134737123322858 0.3039103077764334 0  0.03416190609801732 0.2911362521989113 0  0.02925217947541549 0.2773267630846004 0  0.02676106927623143 0.2628837102534819 0  0.02676106927623143 0.2482274008576293 0  0.02925217947541547 0.2337843480265108 0  0.03416190609801727 0.2199748589121999 0  0.04134737123322851 0.2072008033346779 0  0.06071435387356935 0.328169304128914 0  0.06643634320569657 0.3419834039471998 0  0.06657482449792249 0.371105288389899 0  0.06125007411586481 0.3844975993142901 0  0.05275088139109994 0.3961367866379005 0  0.04161535472570563 0.4052859398452242 0  0.02854851642641818 0.411365799661623 0  0.01437766570919127 0.4139914326285196 0  0 0.4697526254167924 0  0 0.455563619650285 0  0 0.4413746138837777 0  0 0.4271856081172704 0  0.06095233986089402 0.4687284952262988 0  0.04995687430503332 0.4753797281664747 0  0.03809234373417287 0.4803165365228644 0  0.02562418374773841 0.4834284730529493 0  0.01283133446055119 0.4846459169037758 0  0.08372485599813187 0.4503967593658507 0  0.09753895276796982 0.4446747697099958 0  0.1123633055586467 0.4427231038764812 0  0.1271876590095525 0.4446747646950606 0  0.1410017577150834 0.45039674967774 0  0.1528641934757506 0.4594991149204779 0  0.161966560724962 0.471361549141524 0  0.1676885480442292 0.4851756468792086 0  0.1676885480443665 0.514824353120279 0  0.1619665607254926 0.528638450857557 0  0.1528641934768762 0.5405008850783964 0  0.1410017577169217 0.5496032503211987 0  0.1271876590121153 0.5553252353042526 0  0.1123633055618306 0.5572768961235188 0  0.09753895277155772 0.5553252302909656 0  0.08372485600180817 0.5496032406362719 0  0.0128313344605512 0.5153540830962242 0  0.0256241837477384 0.5165715269470507 0  0.03809234373417282 0.5196834634771356 0  0.04995687430503334 0.5246202718335253 0  0.06095233986089401
[...]
<PointData  Tensors="$\sigma$"> 
<DataArray  type="Float64"  Name="$\sigma$"  NumberOfComponents="9" format="ascii">-2.6294408015582003e+03 -2.9074364344051296e+03 0.0000000000000000e+00 -2.9074364344051296e+03 -2.8594495321248278e+03 0.0000000000000000e+00 0.0000000000000000e+00 0.0000000000000000e+00 0.0000000000000000e+00  -5.8299237008370646e+03 -4.9797102100558859e+03 0.0000000000000000e+00 -4.9797102100558859e+03 -4.8435842505959945e+03 0.0000000000000000e+00 0.0000000000000000e+00 0.0000000000000000e+00 0.0000000000000000e+00  -2.1964666557886007e+03 -3.0247035709353377e+03 0.0000000000000000e+00 -3.0247035709353377e+03 -3.4412388652695668e+03 0.0000000000000000e+00 0.0000000000000000e+00 0.0000000000000000e+00 0.0000000000000000e+00  1.0604597288513663e+02 5.1737183443348492e+01 0.0000000000000000e+00 5.1737183443348520e+01 -4.9884312353705973e+03 0.0000000000000000e+00 0.0000000000000000e+00 0.0000000000000000e+00 0.0000000000000000e+00  -1.9182155704973691e+03 2.4692470235370060e+03 0.0000000000000000e+00 2.4692470235370074e+03 -2.8100055215378670e+03 0.0000000000000000e+00 0.0000000000000000e+00 0.0000000000000000e+00 0.0000000000000000e+00  -4.7291248446436030e+03 4.2644732030712557e+03 0.0000000000000000e+00 4.2644732030712548e+03 -4.4365731200014307e+03 0.0000000000000000e+00 0.0000000000000000e+00 0.0000000000000000e+00 0.0000000000000000e+00  -1.9664615471692762e+03 2.0854742109348499e+03 0.0000000000000000e+00 2.0854742109348522e+03 -1.7351972653428036e+03 0.0000000000000000e+00 0.0000000000000000e+00 0.0000000000000000e+00 0.0000000000000000e+00  -2.0685441993613205e+00 -3.0955532812940492e+00 0.0000000000000000e+00 -3.0955532812940492e+00 -3.4482700025983770e+00 0.0000000000000000e+00 0.0000000000000000e+00 0.0000000000000000e+00 0.0000000000000000e+00  9.3116799174535046e+01 3.7299739426440851e+01 0.0000000000000000e+00 3.7299739426440865e+01 5.6037957610743924e+03 0.0000000000000000e+00 0.0000000000000000e+00 0.0000000000000000e+00 0.0000000000000000e+00  -1.9073288402184348e+03 2.0070508368281533e+03 0.0000000000000000e+00 2.0070508368281533e+03 -1.9043310497089224e+03 0.0000000000000000e+00 0.0000000000000000e+00 0.0000000000000000e+00 0.0000000000000000e+00  -4.6785189073420279e+03 4.1742929158726492e+03 0.0000000000000000e+00 4.1742929158726492e+03 -4.2150802638406476e+03 0.0000000000000000e+00 0.0000000000000000e+00 0.0000000000000000e+00 0.0000000000000000e+00  -1.8322756827423559e+03 2.4231606174538979e+03 0.0000000000000000e+00 2.4231606174538979e+03 -2.6734379966055899e+03 0.0000000000000000e+00 0.0000000000000000e+00 0.0000000000000000e+00 0.0000000000000000e+00  -2.1289684527884524e+03 -2.9263019899532819e+03 0.0000000000000000e+00 -2.9263019899532851e+03 -3.1934514381873869e+03 0.0000000000000000e+00 0.0000000000000000e+00 0.0000000000000000e+00 0.0000000000000000e+00  -5.7013715518194886e+03 -4.7364994224886968e+03 0.0000000000000000e+00 -4.7364994224886977e+03 -4.7535832894778187e+03 0.0000000000000000e+00 0.0000000000000000e+00 0.0000000000000000e+00 0.0000000000000000e+00  -2.4743054232461841e+03 -2.9137344389145283e+03 0.0000000000000000e+00 -2.9137344389145255e+03 -2.8095834722245559e+03 0.0000000000000000e+00 0.0000000000000000e+00 0.0000000000000000e+00 0.0000000000000000e+00  9.4020780863348321e+01 -1.3722509457075986e+01 0.0000000000000000e+00 -1.3722509457075880e+01 1.9969876046852098e+03 0.0000000000000000e+00 0.0000000000000000e+00 0.0000000000000000e+00 0.0000000000000000e+00  6.1759584674234735e-01 -4.1152902018464282e-01 0.0000000000000000e+00 -4.1152902018464244e-01 -3.3617465640918534e+00 0.0000000000000000e+00 0.0000000000000000e+00 0.0000000000000000e+00 0.0000000000000000e+00  -9.4858235404751398e-02 1.9141972062988977e-01 0.0000000000000000e+00 1.9141972062988952e-01 5.2665546021948773e-01 0.0000000000000000e+00 0.0000000000000000e+00 0.0000000000000000e+00 0.0000000000000000e+00  -2.1574974776319227e+01 2.2221579673458045e+01 0.0000000000000000e+00 2.2221579673458059e+01 -1.2767076400486076e+01 0.0000000000000000e+00 0.0000000000000000e+00 0.0000000000000000e+00 0.0000000000000000e+00  -1.6915605439629523e+01 9.8505209579611397e-01 0.0000000000000000e+00 9.8505209579612651e-01 -1.3615871370259736e+01 0.0000000000000000e+00 0.0000000000000000e+00 0.0000000000000000e+00 0.0000000000000000e+00  -4.0841002252135290e+01 5.8386270713683949e+01 0.0000000000000000e+00 5.8386270713683942e+01 -5.4134165060869258e+01 0.0000000000000000e+00 0.0000000000000000e+00 0.0000000000000000e+00 0.0000000000000000e+00  2.8620082149636037e+03 -8.9952749560762101e+01 0.0000000000000000e+00 -8.9952749560762101e+01 1.4312913819294889e+04 0.0000000000000000e+00 0.0000000000000000e+00 0.0000000000000000e+00 0.0000000000000000e+00  -4.8134794158733783e+01 -8.2271468340119398e+01 0.0000000000000000e+00 -8.2271468340119284e+01 -4.2088994257479428e+01 0.0000000000000000e+00 0.0000000000000000e+00 0.0000000000000000e+00 0.0000000000000000e+00  3.0941535208212613e+01 5.8846192296666644e+01 0.0000000000000000e+00 5.8846192296666608e+01 9.4965974505232200e+00 0.0000000000000000e+00 0.0000000000000000e+00 0.0000000000000000e+00 0.0000000000000000e+00  -2.2019737471624726e+01 -1.8523630454953881e+01 0.0000000000000000e+00 -1.8523630454953903e+01 -5.6180445453097079e+00 0.0000000000000000e+00 0.0000000000000000e+00 0.0000000000000000e+00 0.0000000000000000e+00  -8.3548113765936682e-02 -2.6629174908254916e-01 0.0000000000000000e+00 -2.6629174908254932e-01 3.0427600705503977e-01 0.0000000000000000e+00 0.0000000000000000e+00 0.0000000000000000e+00 0.0000000000000000e+00  1.0775623778051384e+00 -2.8633366341148663e+00 0.0000000000000000e+00 -2.8633366341148654e+00 2.7950687359633369e-01 0.0000000000000000e+00 0.0000000000000000e+00 0.0000000000000000e+00 0.0000000000000000e+00  6.8045608421610197e+01 -4.6107220488770650e+01 0.0000000000000000e+00 -4.6107220488770743e+01 2.0812953713176094e+03 0.0000000000000000e+00 0.0000000000000000e+00 0.0000000000000000e+00 0.0000000000000000e+00  -2.5147068961437099e+03 2.9494304167111354e+03 0.0000000000000000e+00 2.9494304167111354e+03 -2.8288212182731722e+03 0.0000000000000000e+00 0.0000000000000000e+00 0.0000000000000000e+00 0.0000000000000000e+00  -5.4656672171503678e+03 4.5203719843663457e+03 0.0000000000000000e+00 4.5203719843663457e+03 -4.1092805575372349e+03 0.0000000000000000e+00 0.0000000000000000e+00 0.0000000000000000e+00 0.0000000000000000e+00  -2.0586245379625493e+03 2.8126994509612064e+03 0.0000000000000000e+00 2.8126994509612068e+03 -3.5706398803167272e+03 0.0000000000000000e+00 0.0000000000000000e+00 0.0000000000000000e+00 0.0000000000000000e+00  -1.8269809356352262e+03 -2.4257603351057196e+03 0.0000000000000000e+00 -2.4257603351057205e+03 -2.7293751397420369e+03 0.0000000000000000e+00 0.0000000000000000e+00 0.0000000000000000e+00 0.0000000000000000e+00  -4.6115672504543163e+03 -4.0929802378751251e+03 0.0000000000000000e+00 -4.0929802378751256e+03 -4.2821036952180139e+03 0.0000000000000000e+00 0.0000000000000000e+00 0.0000000000000000e+00 0.0000000000000000e+00  -1.9437966660509094e+03 -2.0525807855950470e+03 0.0000000000000000e+00 -2.0525807855950466e+03 -1.7233486258117298e+03 0.0000000000000000e+00 0.0000000000000000e+00 0.0000000000000000e+00 0.0000000000000000e+00  2.5647644392689284e+02 -1.8955319414410394e+02 0.0000000000000000e+00 -1.8955319414410380e+02 5.2663370075080511e+03 0.0000000000000000e+00 0.0000000000000000e+00 0.0000000000000000e+00 0.0000000000000000e+00  -4.8113546694461434e+01 2.6775270685167225e+01 0.0000000000000000e+00 2.6775270685167214e+01 -2.4619451330226248e+01 0.0000000000000000e+00 0.0000000000000000e+00 0.0000000000000000e+00 0.0000000000000000e+00  1.2097798602531704e+00 5.7613597163645753e+00 0.0000000000000000e+00 5.7613597163645736e+00 3.8230744861033969e+02 0.0000000000000000e+00 0.0000000000000000e+00 0.0000000000000000e+00 0.0000000000000000e+00  2.0596853387956906e+00 -6.1958180845944719e+00 0.0000000000000000e+00 -6.1958180845944710e+00 3.9023227329073325e+02 0.0000000000000000e+00 0.0000000000000000e+00 0.0000000000000000e+00 0.0000000000000000e+00  1.5732901516968927e+00 -2.9859741014789516e+00 0.0000000000000000e+00 -2.9859741014789516e+00 -1.7001505223559132e+01 0.0000000000000000e+00 0.0000000000000000e+00 0.0000000000000000e+00 0.0000000000000000e+00  -1.9454136637488389e-02 -3.3753472718761085e-01 0.0000000000000000e+00 -3.3753472718760918e-01 -2.9446509323895778e+00 0.0000000000000000e+00 0.0000000000000000e+00 0.0000000000000000e+00 0.0000000000000000e+00  -8.7228328447439052e-02 2.6400662894833954e-01 0.0000000000000000e+00 2.6400662894833948e-01 3.3465607814698900e-01 0.0000000000000000e+00 0.0000000000000000e+00 0.0000000000000000e+00 0.0000000000000000e+00  -2.9561205807905171e+01 2.9994908042955149e+01 0.0000000000000000e+00 2.9994908042955178e+01 -1.8156649185065866e+01 0.0000000000000000e+00 0.0000000000000000e+00 0.0000000000000000e+00 0.0000000000000000e+00  -3.5799457713383426e+01 -7.1637298784476888e+00 0.0000000000000000e+00 -7.1637298784477190e+00 -1.7101089730654273e+01 0.0000000000000000e+00 0.0000000000000000e+00 0.0000000000000000e+00 0.0000000000000000e+00  -1.3671856996078262e+01 6.0553405332002043e+01 0.0000000000000000e+00 6.0553405332002079e+01 -4.5017646676619478e+01 0.0000000000000000e+00 0.0000000000000000e+00 0.0000000000000000e+00 0.0000000000000000e+00  -3.6131202985459858e+01 -6.6650795289113148e+01 0.0000000000000000e+00 -6.6650795289113091e+01 -4.8739914313326096e+01 0.0000000000000000e+00 0.0000000000000000e+00 0.0000000000000000e+00 0.0000000000000000e+00  -3.0690182466286807e+01 -1.4412619694649791e+01 0.0000000000000000e+00 -1.4412619694649834e+01 -4.2131226056384541e+01 0.0000000000000000e+00 0.0000000000000000e+00 0.0000000000000000e+00 0.0000000000000000e+00  -2.8052286180081364e+01 -1.4709014543860869e+01 0.0000000000000000e+00 -1.4709014543860873e+01 -2.1380444575415902e+00 0.0000000000000000e+00 0.0000000000000000e+00 0.0000000000000000e+00 0.0000000000000000e+00  -3.5236174697462957e-02 -2.1660438036824606e-01 0.0000000000000000e+00 -2.1660438036824606e-01 6.9934223104094986e-02 0.0000000000000000e+00 0.0000000000000000e+00 0.0000000000000000e+00 0.0000000000000000e+00  -2.6049879131615397e+00 -7.1980880805674918e-01 0.0000000000000000e+00 -7.1980880805674907e-01 -1.8325551449323503e+00 0.0000000000000000e+00 0.0000000000000000e+00 0.0000000000000000e+00 0.0000000000000000e+00  -2.4044509147066306e+03 2.7264628453160744e+03 0.0000000000000000e+00 2.7264628453160763e+03 -2.6314738215420862e+03 0.0000000000000000e+00 0.0000000000000000e+00 0.0000000000000000e+00 0.0000000000000000e+00  -5.6033971224473826e+03 4.7694883232202801e+03 0.0000000000000000e+00 4.7694883232202801e+03 -4.5816353013637472e+03 0.0000000000000000e+00 0.0000000000000000e+00 0.0000000000000000e+00 0.0000000000000000e+00  -2.1945140144375005e+03 2.9612723158930057e+03 0.0000000000000000e+00 2.9612723158930057e+03 -3.4810780818573326e+03 0.0000000000000000e+00 0.0000000000000000e+00 0.0000000000000000e+00 0.0000000000000000e+00  1.0900335968498941e+02 3.9985497666583420e+01 0.0000000000000000e+00 3.9985497666583477e+01 -4.9875267220067644e+03 0.0000000000000000e+00 0.0000000000000000e+00 0.0000000000000000e+00 0.0000000000000000e+00  -1.7682084429238525e+03 -2.4650108257065490e+03 0.0000000000000000e+00 -2.4650108257065494e+03 -2.7414520656389409e+03 0.0000000000000000e+00 0.0000000000000000e+00 0.0000000000000000e+00 0.0000000000000000e+00  -5.3085312466860023e+03 -4.7408344608722191e+03 0.0000000000000000e+00 -4.7408344608722182e+03 -4.6333173280040828e+03 0.0000000000000000e+00 0.0000000000000000e+00 0.0000000000000000e+00 0.0000000000000000e+00  -1.9214355663514666e+03 -2.0022216378184348e+03 0.0000000000000000e+00 -2.0022216378184339e+03 -2.0451209897154176e+03 0.0000000000000000e+00 0.0000000000000000e+00 0.0000000000000000e+00 0.0000000000000000e+00  -3.8793816208538480e+01 1.6025307231230816e+01 0.0000000000000000e+00 1.6025307231230819e+01 -5.6732553528690666e+00 0.0000000000000000e+00 0.0000000000000000e+00 0.0000000000000000e+00 0.0000000000000000e+00  8.5878800011569678e-01 4.4780963770326894e+00 0.0000000000000000e+00 4.4780963770326903e+00 3.8814095655154182e+02 0.0000000000000000e+00 0.0000000000000000e+00 0.0000000000000000e+00 0.0000000000000000e+00  1.0786288284061369e+02 8.4755456698722909e+01 0.0000000000000000e+00 8.4755456698722909e+01 4.6732848349765419e+02 0.0000000000000000e+00 0.0000000000000000e+00 0.0000000000000000e+00 0.0000000000000000e+00  -6.1299963569723950e+03 5.2688826755432247e+03 0.0000000000000000e+00 5.2688826755432256e+03 -3.9172468294987752e+03 0.0000000000000000e+00 0.0000000000000000e+00 0.0000000000000000e+00 0.0000000000000000e+00  -4.5248178440695901e+03 5.7807584090979426e+03 0.0000000000000000e+00 5.7807584090979408e+03 -7.9022681120107318e+03 0.0000000000000000e+00 0.0000000000000000e+00 0.0000000000000000e+00 0.0000000000000000e+00  -4.7004851650576529e+03 -3.9434313567502618e+03 0.0000000000000000e+00 -3.9434313567502627e+03 -2.8628720635379018e+03 0.0000000000000000e+00 0.0000000000000000e+00 0.0000000000000000e+00 0.0000000000000000e+00  -7.0395633488560743e+03 6.1198098085178663e+03 0.0000000000000000e+00 6.1198098085178653e+03 -5.1453519221542811e+03 0.0000000000000000e+00 0.0000000000000000e+00 0.0000000000000000e+00 0.0000000000000000e+00  -3.6222277829202217e+03 -4.3482757916511991e+03 0.0000000000000000e+00 -4.3482757916511973e+03 -6.1372234353248941e+03 0.0000000000000000e+00 0.0000000000000000e+00 0.0000000000000000e+00 0.0000000000000000e+00  -9.1394939574730154e+02 -8.2740993314960883e+02 0.0000000000000000e+00 -8.2740993314960872e+02 -6.1840264146047264e+02 0.0000000000000000e+00 0.0000000000000000e+00 0.0000000000000000e+00 0.0000000000000000e+00  -5.1582129220236056e+03 -4.9031859616064930e+03 0.0000000000000000e+00 -4.9031859616064921e+03 -3.8316539585218152e+03 0.0000000000000000e+00 0.0000000000000000e+00 0.0000000000000000e+00 0.0000000000000000e+00  -3.4423149257117831e+02 -3.7858638924189358e+02 0.0000000000000000e+00 -3.7858638924189364e+02 -6.3774002647207737e+02 0.0000000000000000e+00 0.0000000000000000e+00 0.0000000000000000e+00 0.0000000000000000e+00  3.1615920300378648e+03 1.3420253406050881e+02 0.0000000000000000e+00 1.3420253406050878e+02 1.5247395406431775e+04 0.0000000000000000e+00 0.0000000000000000e+00 0.0000000000000000e+00 0.0000000000000000e+00  -4.2197768272286970e+02 -4.4612683164673888e+02 0.0000000000000000e+00 -4.4612683164673888e+02 -3.4922106022538884e+02 0.0000000000000000e+00 0.0000000000000000e+00 0.0000000000000000e+00 0.0000000000000000e+00  -1.1257595251432483e+03 1.0166440996705118e+03 0.0000000000000000e+00 1.0166440996705110e+03 -7.2257573739110580e+02 0.0000000000000000e+00 0.0000000000000000e+00 0.0000000000000000e+00 0.0000000000000000e+00  -8.2462541419802017e+02 6.1540825777868179e+02 0.0000000000000000e+00 6.1540825777868224e+02 -4.7770092214756687e+02 0.0000000000000000e+00 0.0000000000000000e+00 0.0000000000000000e+00 0.0000000000000000e+00  3.1346429630753454e+02 -2.7514335994964409e+01 0.0000000000000000e+00 -2.7514335994964121e+01 -3.6407391047885835e+02 0.0000000000000000e+00 0.0000000000000000e+00 0.0000000000000000e+00 0.0000000000000000e+00  -3.8917901823632792e+03 -4.5333588535893014e+03 0.0000000000000000e+00 -4.5333588535892995e+03 -3.9985500369114229e+03 0.0000000000000000e+00 0.0000000000000000e+00 0.0000000000000000e+00 0.0000000000000000e+00  3.8332353402767495e+02 -2.9597801343161012e+02 0.0000000000000000e+00 -2.9597801343161069e+02 3.6990635467624916e+03 0.0000000000000000e+00 0.0000000000000000e+00 0.0000000000000000e+00 0.0000000000000000e+00  -7.6985437984414084e+03 -6.2357063538751345e+03 0.0000000000000000e+00 -6.2357063538751345e+03 -6.3537911288293126e+03 0.0000000000000000e+00 0.0000000000000000e+00 0.0000000000000000e+00 0.0000000000000000e+00  -3.8476155137250857e+03 4.7492301763903697e+03 0.0000000000000000e+00 4.7492301763903679e+03 -4.2460938707255746e+03 0.0000000000000000e+00 0.0000000000000000e+00 0.0000000000000000e+00 0.0000000000000000e+00  -3.2506425301166423e+03 -4.4356417248087919e+03 0.0000000000000000e+00 -4.4356417248087919e+03 -5.1071083163685862e+03 0.0000000000000000e+00 0.0000000000000000e+00 0.0000000000000000e+00 0.0000000000000000e+00  -7.7600123542242718e+03 6.2491133597861462e+03 0.0000000000000000e+00 6.2491133597861462e+03 -6.1442300248408756e+03 0.0000000000000000e+00 0.0000000000000000e+00 0.0000000000000000e+00 0.0000000000000000e+00  1.9337662250012292e+02 -2.8259134015908018e+02 0.0000000000000000e+00 -2.8259134015908012e+02 5.8202175316958744e+02 0.0000000000000000e+00 0.0000000000000000e+00 0.0000000000000000e+00 0.0000000000000000e+00  -3.5326350534371168e+03 4.5369008503188652e+03 0.0000000000000000e+00 4.5369008503188679e+03 -5.4241453662227032e+03 0.0000000000000000e+00 0.0000000000000000e+00 0.0000000000000000e+00 0.0000000000000000e+00  -1.9698250428592735e+03 3.0902525948031830e+03 0.0000000000000000e+00 3.0902525948031830e+03 -3.8940170086937610e+03 0.0000000000000000e+00 0.0000000000000000e+00 0.0000000000000000e+00 0.0000000000000000e+00  1.5762743549719164e+02 -8.6014665301047174e+01 0.0000000000000000e+00 -8.6014665301046762e+01 -5.0606983323647255e+03 0.0000000000000000e+00 0.0000000000000000e+00 0.0000000000000000e+00 0.0000000000000000e+00  1.5141107571265829e+03 -2.6137598968232505e+03 0.0000000000000000e+00 -2.6137598968232496e+03 3.1337354610408952e+03 0.0000000000000000e+00 0.0000000000000000e+00 0.0000000000000000e+00 0.0000000000000000e+00  1.2776204100657900e+02 5.7492661566804418e+02 0.0000000000000000e+00 5.7492661566804418e+02 1.2282494656790473e+03 0.0000000000000000e+00 0.0000000000000000e+00 0.0000000000000000e+00 0.0000000000000000e+00  2.1397944538677148e+03 -2.0485307596120037e+01 0.0000000000000000e+00 -2.0485307596119757e+01 1.4297379564967578e+04 0.0000000000000000e+00 0.0000000000000000e+00 0.0000000000000000e+00 0.0000000000000000e+00  -1.8257836413351415e+03 -3.2580838252019657e+03 0.0000000000000000e+00 -3.2580838252019639e+03 -4.5125803064883685e+03 0.0000000000000000e+00 0.0000000000000000e+00 0.0000000000000000e+00 0.0000000000000000e+00  1.3581158268972620e+03 2.4180431202562545e+03 0.0000000000000000e+00 2.4180431202562522e+03 3.0245264835160328e+03 0.0000000000000000e+00 0.0000000000000000e+00 0.0000000000000000e+00 0.0000000000000000e+00  -4.6940208551890582e+03 3.9781244102343139e+03 0.0000000000000000e+00 3.9781244102343139e+03 -2.9701638664455013e+03 0.0000000000000000e+00 0.0000000000000000e+00 0.0000000000000000e+00 0.0000000000000000e+00  -4.2332217398804578e+03 5.0147889739011644e+03 0.0000000000000000e+00 5.0147889739011644e+03 -6.6648600874109497e+03 0.0000000000000000e+00 0.0000000000000000e+00 0.0000000000000000e+00 0.0000000000000000e+00  -6.2669960934480514e+03 -5.2021965639018981e+03 0.0000000000000000e+00 -5.2021965639018981e+03 -3.6702641620193313e+03 0.0000000000000000e+00 0.0000000000000000e+00 0.0000000000000000e+00 0.0000000000000000e+00  -5.1250698957290779e+03 4.7785457924279071e+03 0.0000000000000000e+00 4.7785457924279071e+03 -3.7677612728135159e+03 0.0000000000000000e+00 0.0000000000000000e+00 0.0000000000000000e+00 0.0000000000000000e+00  -4.2506888522642157e+03 -5.5123027534531293e+03 0.0000000000000000e+00 -5.5123027534531293e+03 -7.5735079769271360e+03 0.0000000000000000e+00 0.0000000000000000e+00 0.0000000000000000e+00 0.0000000000000000e+00  -1.3202942728251830e+03 -1.0105931688719841e+03 0.0000000000000000e+00 -1.0105931688719841e+03 -7.5219400732572524e+02 0.0000000000000000e+00 0.0000000000000000e+00 0.0000000000000000e+00 0.0000000000000000e+00  -6.6168963012435179e+03 -6.1560825509275573e+03 0.0000000000000000e+00 -6.1560825509275573e+03 -5.3074796631186882e+03 0.0000000000000000e+00 0.0000000000000000e+00 0.0000000000000000e+00 0.0000000000000000e+00  3.2088045493482844e+02 -7.0005763774817609e+01 0.0000000000000000e+00 -7.000576377481760