<?xml version="1.0"?>
<VTKFile type="UnstructuredGrid"  version="0.1"  >
<UnstructuredGrid>
<Piece  NumberOfPoints="4855" NumberOfCells="8780">
<Points>
<DataArray  type="Float64"  NumberOfComponents="3"  format="ascii">0.9483880164242298 0.6836931311526558 0  0.9494264999197789 0.6847056440044139 0  0.9494005292759887 0.6847228078606633 0  0.9735520289385229 0.7444444444444445 0  0.9494005292759886 0.8041660810282256 0  0.94942649991978 0.8041832448844759 0  0.9483880175070514 0.8051957566534116 0  3.131175874138137e-16 0.09811450876034808 0  0.06838800723463068 0.1543033514199101 0  0.05161198249294494 0.1948042433465922 0  0.0505735000802211 0.1958167551155251 0  0.05059947072401128 0.1958339189717744 0  0.0505994707240113 0.3152771921393367 0  0.05057350008021998 0.315294355995587 0  0.05161198357913653 0.3163068688507105 0  0.06838800723463068 0.356807759691201 0  3.252606517456513e-16 0.4129966023507631 0  -1.795438797635995e-16 0.4839416311832997 0  0.07083274769489223 0.4605116403870998 0  0.07084991155114129 0.4605376110308903 0  0.07186242331670639 0.4594991286215342 0  0.1696402113702762 0.5 0  0.07186242332008326 0.5405008713818427 0  0.0708499115511413 0.5394623889691096 0  0.07083274769489219 0.5394883596129002 0  -1.925543058334256e-16 0.5160583688167003 0  1.484923295436147e-15 0.5870033976492365 0  0.06838800723463068 0.643192240308799 0  0.05161198249294541 0.6836931322354806 0  0.05057350008022109 0.6847056440044139 0  0.0505994707240113 0.6847228078606633 0  0.0505994707240113 0.8041660810282256 0  0.05057350008021999 0.804183244884476 0  0.05161198249294764 0.8051957566534106 0  0.06838800723463068 0.84569664858009 0  1.485790657174135e-15 0.9018854912396524 0  0 1 0  1 1 0  0.9999999999999987 0.9018854912396523 0  1.000000000000001 0.5870033976492375 0  1 0.5160583688167003 0  0.9291672523051078 0.5394883596129003 0  0.9291500884488585 0.5394623889691117 0  0.9281375755937461 0.5405008724680134 0  0.9281375755937372 0.4594991275319777 0  0.9291500884488586 0.4605376110308884 0  0.9291672523051077 0.4605116403870997 0  1 0.4839416311832997 0  0.9999999999999987 0.4129966023507635 0  0.948388017507054 0.31630686776452 0  0.94942649991978 0.3152943559955871 0  0.9494005292759886 0.3152771921393367 0  0.9735520289385229 0.2555555555555555 0  0.9494005292759888 0.1958339189717744 0  0.9494264999197789 0.1958167551155251 0  0.9483880164208631 0.1948042422604003 0  1.000000000000001 0.09811450876034861 0  1 0 0  0 0 0  0.1958339189717744 0.2950439151684559 0  0.1958167551155252 0.2950179445246672 0  0.3152771921393367 0.2950439151684557 0  0.1948042433481841 0.2960564269357975 0  0.3152943559955858 0.2950179445246651 0  0.1948042422604031 0.2150546830875326 0  0.3163068677645244 0.2960564269373949 0  0.1958167551155251 0.2160931665864439 0  0.4140846558147206 0.2555555555555555 0  0.1958339189717744 0.2160671959426553 0  0.3163068688489276 0.215054683089313 0  0.3152771921393367 0.2160671959426553 0  0.3152943559955858 0.2160931665864459 0  0.5405008724680257 0.3163068688507107 0  0.5572768961235196 0.356807759691201 0  0.5394623889691089 0.3152943559955871 0  0.459499128618165 0.3163068677645201 0  0.5394883596129003 0.3152771921393367 0  0.4605376110308911 0.3152943559955871 0  0.5394883596129001 0.1958339189717744 0  0.4605116403870998 0.3152771921393367 0  0.53946238896911 0.1958167551155251 0  0.4846631400496339 0.2555555555555555 0  0.5405008724680251 0.1948042422604009 0  0.4605116403870998 0.1958339189717744 0  0.5572768961235196 0.1543033514199101 0  0.46053761103089 0.1958167551155251 0  0.4594991286269881 0.1948042433554141 0  0.6847228078606633 0.2950439151684559 0  0.684705644004414 0.2950179445246672 0  0.8041660810282256 0.2950439151684557 0  0.683693131164073 0.2960564280087975 0  0.8041832448844747 0.2950179445246651 0  0.6836931322354718 0.2150546841737125 0  0.8051957566534156 0.2960564269373971 0  0.6847056440044141 0.2160931665864439 0  0.9029735447036096 0.2555555555555555 0  0.6847228078606632 0.2160671959426553 0  0.8051957577274008 0.2150546830997286 0  0.8041660810282256 0.2160671959426553 0  0.8041832448844747 0.2160931665864459 0  0.2960564280235811 0.560751313295155 0  0.3128324516790751 0.6012522041356455 0  0.2950179445246645 0.5597388004400315 0  0.2150546830875235 0.5607513132951615 0  0.2950439151684557 0.5597216365837812 0  0.2160931665864466 0.5597388004400314 0  0.2950439151684558 0.4402783634162188 0  0.2160671959426553 0.5597216365837812 0  0.2950179445246656 0.4402611995599696 0  0.2402186956051895 0.5 0  0.29605642693739 0.439248687791036 0  0.2160671959426553 0.4402783634162189 0  0.3128324516790751 0.3987477958643545 0  0.2160931665864455 0.4402611995599696 0  0.2150546830875296 0.4392486867048446 0  0.1958339189717743 0.7839328040573448 0  0.1958167551155252 0.7839068334135562 0  0.3152771921393367 0.7839328040573447 0  0.1948042422604028 0.7849453169124678 0  0.3152943559955858 0.783906833413554 0  0.1948042433465913 0.7039435730626098 0  0.3163068677645284 0.7849453158262878 0  0.1958167551155251 0.7049820554753328 0  0.4140846558147206 0.7444444444444445 0  0.1958339189717744 0.7049560848315441 0  0.3163068688486237 0.7039435719785058 0  0.3152771921393367 0.7049560848315441 0  0.3152943559955858 0.7049820554753349 0  0.4402783634162188 0.5394883596129003 0  0.4402611995599696 0.5394623889691117 0  0.5597216365837812 0.5394883596129002 0  0.4392486867048468 0.5405008724680237 0  0.5597388004400302 0.5394623889691096 0  0.4392486877998708 0.4594991286270004 0  0.5607513122089726 0.540500871381843 0  0.4402611995599696 0.4605376110308884 0  0.6585291002591651 0.5 0  0.4402783634162188 0.4605116403870998 0  0.5607513121946796 0.45949912863245 0  0.5597216365837812 0.4605116403870998 0  0.5597388004400302 0.4605376110308904 0  0.78494531690701 0.5607513132896949 0  0.8017213405679641 0.6012522041356455 0  0.7839068334135535 0.5597388004400315 0  0.7039435730626069 0.5607513122089671 0  0.7839328040573448 0.5597216365837812 0  0.7049820554753355 0.5597388004400314 0  0.7839328040573448 0.4402783634162188 0  0.7049560848315441 0.5597216365837812 0  0.7839068334135545 0.4402611995599696 0  0.7291075844940784 0.5 0  0.784945315826279 0.4392486877910359 0  0.7049560848315444 0.4402783634162188 0  0.8017213405679641 0.3987477958643545 0  0.7049820554753344 0.4402611995599696 0  0.7039435719764182 0.4392486867048443 0  0.5405008724625655 0.8051957577341393 0  0.5572768961235196 0.84569664858009 0  0.539462388969109 0.804183244884476 0  0.4594991286181648 0.8051957566534091 0  0.5394883596129003 0.8041660810282256 0  0.4605376110308911 0.804183244884476 0  0.5394883596129003 0.6847228078606633 0  0.4605116403870998 0.8041660810282256 0  0.53946238896911 0.6847056440044139 0  0.4846631400496339 0.7444444444444445 0  0.5405008713818347 0.6836931322354802 0  0.4605116403870998 0.6847228078606633 0  0.5572768961235196 0.643192240308799 0  0.46053761103089 0.6847056440044139 0  0.4594991275353449 0.6836931311526599 0  0.6847228078606633 0.7839328040573448 0  0.684705644004414 0.7839068334135562 0  0.8041660810282256 0.7839328040573447 0  0.6836931311493016 0.7849453169124578 0  0.8041832448844747 0.783906833413554 0  0.68369313223548 0.7039435730626096 0  0.805195756653417 0.7849453158262875 0  0.6847056440044141 0.7049820554753328 0  0.9029735447036096 0.7444444444444445 0  0.6847228078606633 0.7049560848315441 0  0.805195757738809 0.7039435719772094 0  0.8041660810282256 0.7049560848315441 0  0.8041832448844747 0.7049820554753349 0  0.9578164230213342 0.6948838683471341 0  0.9645772892192558 0.7062137009141434 0  0.9695236884064815 0.7184451175460498 0  0.972538971146615 0.7312896684428197 0  0.9725389711466151 0.7575992204460691 0  0.9695236884064815 0.7704437713428391 0  0.9645772892192558 0.7826751879747456 0  0.9578164230213342 0.7940050205417549 0  0.01437766570919127 0.09711967848259151 0  0.02854851642641832 0.09974531144948819 0  0.04161535472570586 0.1058251712658871 0  0.05275088139110013 0.1149743244732108 0  0.06125007411586489 0.1266135117968212 0  0.06657482449792251 0.1400058227212122 0  0.06643634307317195 0.1691277076584997 0  0.06071435336153361 0.1829418078690686 0  0.04134737123322858 0.3039103077764334 0  0.03416190609801732 0.2911362521989113 0  0.02925217947541549 0.2773267630846004 0  0.02676106927623143 0.2628837102534819 0  0.02676106927623143 0.2482274008576293 0  0.02925217947541547 0.2337843480265108 0  0.03416190609801727 0.2199748589121999 0  0.04134737123322851 0.2072008033346779 0  0.06071435387356935 0.328169304128914 0  0.06643634320569657 0.3419834039471998 0  0.06657482449792249 0.371105288389899 0  0.06125007411586481 0.3844975993142901 0  0.05275088139109994 0.3961367866379005 0  0.04161535472570563 0.4052859398452242 0  0.02854851642641818 0.411365799661623 0  0.01437766570919127 0.4139914326285196 0  0 0.4697526254167924 0  0 0.455563619650285 0  0 0.4413746138837777 0  0 0.4271856081172704 0  0.06095233986089402 0.4687284952262988 0  0.04995687430503332 0.4753797281664747 0  0.03809234373417287 0.4803165365228644 0  0.02562418374773841 0.4834284730529493 0  0.01283133446055119 0.4846459169037758 0  0.08372485599813187 0.4503967593658507 0  0.09753895276796982 0.4446747697099958 0  0.1123633055586467 0.4427231038764812 0  0.1271876590095525 0.4446747646950606 0  0.1410017577150834 0.45039674967774 0  0.1528641934757506 0.4594991149204779 0  0.161966560724962 0.471361549141524 0  0.1676885480442292 0.4851756468792086 0  0.1676885480443665 0.514824353120279 0  0.1619665607254926 0.528638450857557 0  0.1528641934768762 0.5405008850783964 0  0.1410017577169217 0.5496032503211987 0  0.1271876590121153 0.5553252353042526 0  0.1123633055618306 0.5572768961235188 0  0.09753895277155772 0.5553252302909656 0  0.08372485600180817 0.5496032406362719 0  0.0128313344605512 0.5153540830962242 0  0.0256241837477384 0.5165715269470507 0  0.03809234373417282 0.5196834634771356 0  0.04995687430503334 0.5246202718335253 0  0.06095233986089401
[...]
<PointData  Tensors="$\sigma$"> 
<DataArray  type="Float64"  Name="$\sigma$"  NumberOfComponents="9" format="ascii">-3.1637825231044712e+03 -3.5233780897619613e+03 0.0000000000000000e+00 -3.5233780897619613e+03 -3.5505254545245925e+03 0.0000000000000000e+00 0.0000000000000000e+00 0.0000000000000000e+00 0.0000000000000000e+00  -7.3601813554028904e+03 -6.3398286016653865e+03 0.0000000000000000e+00 -6.3398286016653856e+03 -6.1139007287334116e+03 0.0000000000000000e+00 0.0000000000000000e+00 0.0000000000000000e+00 0.0000000000000000e+00  -2.7276192316786091e+03 -3.6641670826263307e+03 0.0000000000000000e+00 -3.6641670826263316e+03 -4.1557852127287888e+03 0.0000000000000000e+00 0.0000000000000000e+00 0.0000000000000000e+00 0.0000000000000000e+00  1.1158489109022391e+02 5.3686941044895391e+01 0.0000000000000000e+00 5.3686941044895249e+01 -6.1269738828025074e+03 0.0000000000000000e+00 0.0000000000000000e+00 0.0000000000000000e+00 0.0000000000000000e+00  -2.3635320595445301e+03 2.9942691832639566e+03 0.0000000000000000e+00 2.9942691832639589e+03 -3.3671089933096646e+03 0.0000000000000000e+00 0.0000000000000000e+00 0.0000000000000000e+00 0.0000000000000000e+00  -6.0245090336294998e+03 5.4376253591070199e+03 0.0000000000000000e+00 5.4376253591070208e+03 -5.6113344121038826e+03 0.0000000000000000e+00 0.0000000000000000e+00 0.0000000000000000e+00 0.0000000000000000e+00  -2.3343516003434183e+03 2.5225314789796253e+03 0.0000000000000000e+00 2.5225314789796248e+03 -2.1664460290779048e+03 0.0000000000000000e+00 0.0000000000000000e+00 0.0000000000000000e+00 0.0000000000000000e+00  6.5537046296836543e+00 -2.4190965823310822e+00 0.0000000000000000e+00 -2.4190965823310657e+00 1.1206830023834362e+00 0.0000000000000000e+00 0.0000000000000000e+00 0.0000000000000000e+00 0.0000000000000000e+00  8.9876232304338998e+01 3.2213677094233667e+01 0.0000000000000000e+00 3.2213677094233631e+01 6.4043646853342225e+03 0.0000000000000000e+00 0.0000000000000000e+00 0.0000000000000000e+00 0.0000000000000000e+00  -2.2505081722239252e+03 2.3845365974988795e+03 0.0000000000000000e+00 2.3845365974988808e+03 -2.3793033516149821e+03 0.0000000000000000e+00 0.0000000000000000e+00 0.0000000000000000e+00 0.0000000000000000e+00  -5.8965319688277214e+03 5.3186486704055060e+03 0.0000000000000000e+00 5.3186486704055051e+03 -5.2653242040983487e+03 0.0000000000000000e+00 0.0000000000000000e+00 0.0000000000000000e+00 0.0000000000000000e+00  -2.2715456998707514e+03 2.9232709749197606e+03 0.0000000000000000e+00 2.9232709749197606e+03 -3.2047610618514414e+03 0.0000000000000000e+00 0.0000000000000000e+00 0.0000000000000000e+00 0.0000000000000000e+00  -2.5959602953628159e+03 -3.5703909076633254e+03 0.0000000000000000e+00 -3.5703909076633313e+03 -3.8148264609302819e+03 0.0000000000000000e+00 0.0000000000000000e+00 0.0000000000000000e+00 0.0000000000000000e+00  -7.2155454511163180e+03 -5.9970200197507638e+03 0.0000000000000000e+00 -5.9970200197507638e+03 -6.0619804004470416e+03 0.0000000000000000e+00 0.0000000000000000e+00 0.0000000000000000e+00 0.0000000000000000e+00  -2.9401535432678425e+03 -3.5118282941749840e+03 0.0000000000000000e+00 -3.5118282941749790e+03 -3.4076732688680390e+03 0.0000000000000000e+00 0.0000000000000000e+00 0.0000000000000000e+00 0.0000000000000000e+00  1.1756824848425953e+02 -1.0207074495086761e+01 0.0000000000000000e+00 -1.0207074495086689e+01 2.2020405608868955e+03 0.0000000000000000e+00 0.0000000000000000e+00 0.0000000000000000e+00 0.0000000000000000e+00  6.6348828951414029e-01 -3.9980652580354636e-01 0.0000000000000000e+00 -3.9980652580354498e-01 -4.1907620591484065e+00 0.0000000000000000e+00 0.0000000000000000e+00 0.0000000000000000e+00 0.0000000000000000e+00  -1.4453310972946254e-01 2.1086320777353545e-01 0.0000000000000000e+00 2.1086320777353490e-01 8.2263484186119573e-01 0.0000000000000000e+00 0.0000000000000000e+00 0.0000000000000000e+00 0.0000000000000000e+00  -2.4329438584245409e+01 2.5107941711959263e+01 0.0000000000000000e+00 2.5107941711959281e+01 -1.4669762747104430e+01 0.0000000000000000e+00 0.0000000000000000e+00 0.0000000000000000e+00 0.0000000000000000e+00  -2.6383922690496011e+01 1.4462821076507297e+00 0.0000000000000000e+00 1.4462821076507533e+00 -1.3945697639546246e+01 0.0000000000000000e+00 0.0000000000000000e+00 0.0000000000000000e+00 0.0000000000000000e+00  -3.7302800930913044e+01 6.3184563693575669e+01 0.0000000000000000e+00 6.3184563693575647e+01 -5.9529702997032913e+01 0.0000000000000000e+00 0.0000000000000000e+00 0.0000000000000000e+00 0.0000000000000000e+00  2.0442420371768044e+03 -1.4476404359583401e+02 0.0000000000000000e+00 -1.4476404359583336e+02 1.3894982477134223e+04 0.0000000000000000e+00 0.0000000000000000e+00 0.0000000000000000e+00 0.0000000000000000e+00  -4.8838660282200237e+01 -8.9989363407896363e+01 0.0000000000000000e+00 -8.9989363407896221e+01 -4.5262394251442878e+01 0.0000000000000000e+00 0.0000000000000000e+00 0.0000000000000000e+00 0.0000000000000000e+00  4.6898225155190161e+01 8.2181606107397982e+01 0.0000000000000000e+00 8.2181606107397954e+01 2.5542658085994496e+01 0.0000000000000000e+00 0.0000000000000000e+00 0.0000000000000000e+00 0.0000000000000000e+00  -2.4398184021357910e+01 -2.0671111609889092e+01 0.0000000000000000e+00 -2.0671111609889120e+01 -5.9160209251930471e+00 0.0000000000000000e+00 0.0000000000000000e+00 0.0000000000000000e+00 0.0000000000000000e+00  4.5732559003577374e-02 -2.5588802288579043e-01 0.0000000000000000e+00 -2.5588802288579043e-01 5.5360458928698519e-01 0.0000000000000000e+00 0.0000000000000000e+00 0.0000000000000000e+00 0.0000000000000000e+00  2.9230781495186869e-01 -4.0072690680054341e+00 0.0000000000000000e+00 -4.0072690680054341e+00 5.9054171041764336e-01 0.0000000000000000e+00 0.0000000000000000e+00 0.0000000000000000e+00 0.0000000000000000e+00  6.8305917843396401e+01 -5.6835492193642750e+01 0.0000000000000000e+00 -5.6835492193642743e+01 2.3177570852488975e+03 0.0000000000000000e+00 0.0000000000000000e+00 0.0000000000000000e+00 0.0000000000000000e+00  -3.0608750898154353e+03 3.5891332911343447e+03 0.0000000000000000e+00 3.5891332911343475e+03 -3.4998323820031219e+03 0.0000000000000000e+00 0.0000000000000000e+00 0.0000000000000000e+00 0.0000000000000000e+00  -6.8926926754697388e+03 5.7884213200490658e+03 0.0000000000000000e+00 5.7884213200490603e+03 -5.2640100531979870e+03 0.0000000000000000e+00 0.0000000000000000e+00 0.0000000000000000e+00 0.0000000000000000e+00  -2.5850612668440262e+03 3.4386007427359782e+03 0.0000000000000000e+00 3.4386007427359814e+03 -4.3187843770982545e+03 0.0000000000000000e+00 0.0000000000000000e+00 0.0000000000000000e+00 0.0000000000000000e+00  -2.2639602714981693e+03 -2.9123356125901528e+03 0.0000000000000000e+00 -2.9123356125901546e+03 -3.2579527894306193e+03 0.0000000000000000e+00 0.0000000000000000e+00 0.0000000000000000e+00 0.0000000000000000e+00  -5.7918988960548422e+03 -5.1922042068920327e+03 0.0000000000000000e+00 -5.1922042068920309e+03 -5.3653531515210498e+03 0.0000000000000000e+00 0.0000000000000000e+00 0.0000000000000000e+00 0.0000000000000000e+00  -2.2982220307406524e+03 -2.4562565159795322e+03 0.0000000000000000e+00 -2.4562565159795322e+03 -2.1248036569058513e+03 0.0000000000000000e+00 0.0000000000000000e+00 0.0000000000000000e+00 0.0000000000000000e+00  2.4991129299051093e+02 -2.1564285034970962e+02 0.0000000000000000e+00 -2.1564285034970959e+02 6.0171027202014129e+03 0.0000000000000000e+00 0.0000000000000000e+00 0.0000000000000000e+00 0.0000000000000000e+00  -5.8036568244060504e+01 3.0090579923580997e+01 0.0000000000000000e+00 3.0090579923581004e+01 -2.8827589001214857e+01 0.0000000000000000e+00 0.0000000000000000e+00 0.0000000000000000e+00 0.0000000000000000e+00  2.1612559357278105e+00 6.5305260314417817e+00 0.0000000000000000e+00 6.5305260314417861e+00 4.3651588872837777e+02 0.0000000000000000e+00 0.0000000000000000e+00 0.0000000000000000e+00 0.0000000000000000e+00  2.8633906122464472e+00 -7.5038668275451448e+00 0.0000000000000000e+00 -7.5038668275451466e+00 4.4653713263877108e+02 0.0000000000000000e+00 0.0000000000000000e+00 0.0000000000000000e+00 0.0000000000000000e+00  1.0274041231634008e+01 -2.7801490825912971e+00 0.0000000000000000e+00 -2.7801490825912842e+00 -1.7431461643383024e+01 0.0000000000000000e+00 0.0000000000000000e+00 0.0000000000000000e+00 0.0000000000000000e+00  -7.1121309713903080e-01 -4.0736355012547837e-01 0.0000000000000000e+00 -4.0736355012547459e-01 -3.2529532431756749e+00 0.0000000000000000e+00 0.0000000000000000e+00 0.0000000000000000e+00 0.0000000000000000e+00  -1.1493747014501093e-02 3.0870126033369533e-01 0.0000000000000000e+00 3.0870126033369527e-01 5.1626398922178229e-01 0.0000000000000000e+00 0.0000000000000000e+00 0.0000000000000000e+00 0.0000000000000000e+00  -2.9592351560318193e+01 3.1451016011175266e+01 0.0000000000000000e+00 3.1451016011175291e+01 -2.0199424881882461e+01 0.0000000000000000e+00 0.0000000000000000e+00 0.0000000000000000e+00 0.0000000000000000e+00  -3.9102424745704134e+01 -1.7404353534027742e+01 0.0000000000000000e+00 -1.7404353534027766e+01 -1.0948903071855744e+01 0.0000000000000000e+00 0.0000000000000000e+00 0.0000000000000000e+00 0.0000000000000000e+00  -7.3981618168202177e+00 6.5404110873354199e+01 0.0000000000000000e+00 6.5404110873354227e+01 -4.5641073844776265e+01 0.0000000000000000e+00 0.0000000000000000e+00 0.0000000000000000e+00 0.0000000000000000e+00  -3.4053065059295335e+01 -7.0416087583031242e+01 0.0000000000000000e+00 -7.0416087583031199e+01 -5.4954897258710680e+01 0.0000000000000000e+00 0.0000000000000000e+00 0.0000000000000000e+00 0.0000000000000000e+00  -4.3660943973384732e+01 -2.2119204078857550e+01 0.0000000000000000e+00 -2.2119204078857557e+01 -5.1959032197315452e+01 0.0000000000000000e+00 0.0000000000000000e+00 0.0000000000000000e+00 0.0000000000000000e+00  -3.2744780764940437e+01 -1.7650228271981614e+01 0.0000000000000000e+00 -1.7650228271981614e+01 -7.6842937284970858e-01 0.0000000000000000e+00 0.0000000000000000e+00 0.0000000000000000e+00 0.0000000000000000e+00  -2.2661504344786954e-01 -3.0508814040547794e-01 0.0000000000000000e+00 -3.0508814040547816e-01 -4.2278748340141448e-02 0.0000000000000000e+00 0.0000000000000000e+00 0.0000000000000000e+00 0.0000000000000000e+00  -3.4239327649639590e+00 -9.5124374012218937e-01 0.0000000000000000e+00 -9.5124374012218682e-01 -2.3532313647656942e+00 0.0000000000000000e+00 0.0000000000000000e+00 0.0000000000000000e+00 0.0000000000000000e+00  -2.8591439846457238e+03 3.2939957195072020e+03 0.0000000000000000e+00 3.2939957195072020e+03 -3.2946388473938523e+03 0.0000000000000000e+00 0.0000000000000000e+00 0.0000000000000000e+00 0.0000000000000000e+00  -7.1139552664613775e+03 6.1122238441561640e+03 0.0000000000000000e+00 6.1122238441561667e+03 -5.7801694549207732e+03 0.0000000000000000e+00 0.0000000000000000e+00 0.0000000000000000e+00 0.0000000000000000e+00  -2.7613409636167553e+03 3.6078781419578959e+03 0.0000000000000000e+00 3.6078781419578982e+03 -4.2264112691093978e+03 0.0000000000000000e+00 0.0000000000000000e+00 0.0000000000000000e+00 0.0000000000000000e+00  1.2466915612273392e+02 4.2903007096180808e+01 0.0000000000000000e+00 4.2903007096180886e+01 -6.1093374804484420e+03 0.0000000000000000e+00 0.0000000000000000e+00 0.0000000000000000e+00 0.0000000000000000e+00  -2.1448766295881742e+03 -2.9256806694894376e+03 0.0000000000000000e+00 -2.9256806694894376e+03 -3.2345054186616758e+03 0.0000000000000000e+00 0.0000000000000000e+00 0.0000000000000000e+00 0.0000000000000000e+00  -6.7624567830356609e+03 -6.0737449901871178e+03 0.0000000000000000e+00 -6.0737449901871187e+03 -5.8420265586246451e+03 0.0000000000000000e+00 0.0000000000000000e+00 0.0000000000000000e+00 0.0000000000000000e+00  -2.2402816570653740e+03 -2.3899000296026984e+03 0.0000000000000000e+00 -2.3899000296026970e+03 -2.5604981664240127e+03 0.0000000000000000e+00 0.0000000000000000e+00 0.0000000000000000e+00 0.0000000000000000e+00  -4.1136400962194443e+01 1.5369019177189687e+01 0.0000000000000000e+00 1.5369019177189699e+01 -7.2595239028515630e+00 0.0000000000000000e+00 0.0000000000000000e+00 0.0000000000000000e+00 0.0000000000000000e+00  1.6627560581837912e+00 5.0730965296919859e+00 0.0000000000000000e+00 5.0730965296919877e+00 4.3988392954498840e+02 0.0000000000000000e+00 0.0000000000000000e+00 0.0000000000000000e+00 0.0000000000000000e+00  1.1968935819829319e+02 9.4852793210831194e+01 0.0000000000000000e+00 9.4852793210831194e+01 5.3348699187399848e+02 0.0000000000000000e+00 0.0000000000000000e+00 0.0000000000000000e+00 0.0000000000000000e+00  -6.3247331883853712e+03 6.2194521627347985e+03 0.0000000000000000e+00 6.2194521627347985e+03 -4.7460454136641538e+03 0.0000000000000000e+00 0.0000000000000000e+00 0.0000000000000000e+00 0.0000000000000000e+00  -4.6353368489115001e+03 5.5563324823234416e+03 0.0000000000000000e+00 5.5563324823234434e+03 -6.8751696410683462e+03 0.0000000000000000e+00 0.0000000000000000e+00 0.0000000000000000e+00 0.0000000000000000e+00  -5.5913053406994431e+03 -4.7213103986994684e+03 0.0000000000000000e+00 -4.7213103986994674e+03 -3.4786318480209970e+03 0.0000000000000000e+00 0.0000000000000000e+00 0.0000000000000000e+00 0.0000000000000000e+00  -6.7090467243170069e+03 5.7655678745661817e+03 0.0000000000000000e+00 5.7655678745661799e+03 -5.5971086006099940e+03 0.0000000000000000e+00 0.0000000000000000e+00 0.0000000000000000e+00 0.0000000000000000e+00  -4.3960992196014004e+03 -5.2577622260423059e+03 0.0000000000000000e+00 -5.2577622260422986e+03 -7.3736358824244680e+03 0.0000000000000000e+00 0.0000000000000000e+00 0.0000000000000000e+00 0.0000000000000000e+00  -1.0292592054292534e+03 -9.4312763893435545e+02 0.0000000000000000e+00 -9.4312763893435545e+02 -7.0679546633360587e+02 0.0000000000000000e+00 0.0000000000000000e+00 0.0000000000000000e+00 0.0000000000000000e+00  -6.1523627378442270e+03 -5.8403666436120093e+03 0.0000000000000000e+00 -5.8403666436120138e+03 -4.5838834227640700e+03 0.0000000000000000e+00 0.0000000000000000e+00 0.0000000000000000e+00 0.0000000000000000e+00  -3.6841828921612529e+02 -4.0355680178453764e+02 0.0000000000000000e+00 -4.0355680178453753e+02 -7.0966138893488790e+02 0.0000000000000000e+00 0.0000000000000000e+00 0.0000000000000000e+00 0.0000000000000000e+00  3.4753785025914372e+03 3.1143638151076379e+02 0.0000000000000000e+00 3.1143638151076402e+02 1.5146606886127853e+04 0.0000000000000000e+00 0.0000000000000000e+00 0.0000000000000000e+00 0.0000000000000000e+00  -4.8590750976065732e+02 -5.0500814270766307e+02 0.0000000000000000e+00 -5.0500814270766284e+02 -3.8756679244801273e+02 0.0000000000000000e+00 0.0000000000000000e+00 0.0000000000000000e+00 0.0000000000000000e+00  -1.2294626229363266e+03 1.1509858262047262e+03 0.0000000000000000e+00 1.1509858262047258e+03 -8.4475855698336181e+02 0.0000000000000000e+00 0.0000000000000000e+00 0.0000000000000000e+00 0.0000000000000000e+00  -9.4093587105176766e+02 6.9699602724661008e+02 0.0000000000000000e+00 6.9699602724661088e+02 -5.4788135445665205e+02 0.0000000000000000e+00 0.0000000000000000e+00 0.0000000000000000e+00 0.0000000000000000e+00  3.8781906315163587e+02 -9.5046905568914084e+01 0.0000000000000000e+00 -9.5046905568914369e+01 -3.2365539842776872e+02 0.0000000000000000e+00 0.0000000000000000e+00 0.0000000000000000e+00 0.0000000000000000e+00  -4.6236121188519492e+03 -5.5478727746200593e+03 0.0000000000000000e+00 -5.5478727746200593e+03 -4.8063128222518462e+03 0.0000000000000000e+00 0.0000000000000000e+00 0.0000000000000000e+00 0.0000000000000000e+00  4.7835337682974881e+02 -2.6094792358976821e+02 0.0000000000000000e+00 -2.6094792358976821e+02 4.5988877285866765e+03 0.0000000000000000e+00 0.0000000000000000e+00 0.0000000000000000e+00 0.0000000000000000e+00  -8.4263414777188918e+03 -6.0338184038094732e+03 0.0000000000000000e+00 -6.0338184038094714e+03 -6.8759082070921277e+03 0.0000000000000000e+00 0.0000000000000000e+00 0.0000000000000000e+00 0.0000000000000000e+00  -4.5326294400583411e+03 5.8168114940220976e+03 0.0000000000000000e+00 5.8168114940220958e+03 -5.2058319981215673e+03 0.0000000000000000e+00 0.0000000000000000e+00 0.0000000000000000e+00 0.0000000000000000e+00  -4.1322149302312555e+03 -5.5025363964887547e+03 0.0000000000000000e+00 -5.5025363964887547e+03 -6.3610812557683785e+03 0.0000000000000000e+00 0.0000000000000000e+00 0.0000000000000000e+00 0.0000000000000000e+00  -8.2147504955835811e+03 5.8517160145323160e+03 0.0000000000000000e+00 5.8517160145323187e+03 -6.3331554235660851e+03 0.0000000000000000e+00 0.0000000000000000e+00 0.0000000000000000e+00 0.0000000000000000e+00  2.8089351388631621e+02 -3.4465879770455655e+02 0.0000000000000000e+00 -3.4465879770455643e+02 8.7961342194998451e+02 0.0000000000000000e+00 0.0000000000000000e+00 0.0000000000000000e+00 0.0000000000000000e+00  -4.5166157727104010e+03 5.6012346615788338e+03 0.0000000000000000e+00 5.6012346615788356e+03 -6.6802682122254364e+03 0.0000000000000000e+00 0.0000000000000000e+00 0.0000000000000000e+00 0.0000000000000000e+00  -2.6348230492120019e+03 3.9565400640559387e+03 0.0000000000000000e+00 3.9565400640559392e+03 -4.9282175339330879e+03 0.0000000000000000e+00 0.0000000000000000e+00 0.0000000000000000e+00 0.0000000000000000e+00  1.5426492871248874e+02 -7.8873833980837716e+01 0.0000000000000000e+00 -7.8873833980836864e+01 -6.1643656337890861e+03 0.0000000000000000e+00 0.0000000000000000e+00 0.0000000000000000e+00 0.0000000000000000e+00  1.7761058644512902e+03 -3.1046793125559930e+03 0.0000000000000000e+00 -3.1046793125559925e+03 3.6254413000044924e+03 0.0000000000000000e+00 0.0000000000000000e+00 0.0000000000000000e+00 0.0000000000000000e+00  1.6417310716036835e+02 7.6100056713492290e+02 0.0000000000000000e+00 7.6100056713492222e+02 1.6040485490062263e+03 0.0000000000000000e+00 0.0000000000000000e+00 0.0000000000000000e+00 0.0000000000000000e+00  2.0081961194248017e+03 3.7314412068330633e+01 0.0000000000000000e+00 3.7314412068330270e+01 1.3454197318166347e+04 0.0000000000000000e+00 0.0000000000000000e+00 0.0000000000000000e+00 0.0000000000000000e+00  -2.3833796119675330e+03 -4.0969966898273033e+03 0.0000000000000000e+00 -4.0969966898273015e+03 -5.4768931582246751e+03 0.0000000000000000e+00 0.0000000000000000e+00 0.0000000000000000e+00 0.0000000000000000e+00  1.5671030558101816e+03 2.8022005093366806e+03 0.0000000000000000e+00 2.8022005093366784e+03 3.4081931107832606e+03 0.0000000000000000e+00 0.0000000000000000e+00 0.0000000000000000e+00 0.0000000000000000e+00  -5.5778528797180370e+03 4.7765112026053039e+03 0.0000000000000000e+00 4.7765112026053039e+03 -3.5950685583165455e+03 0.0000000000000000e+00 0.0000000000000000e+00 0.0000000000000000e+00 0.0000000000000000e+00  -5.2592843443257352e+03 6.0303059510316543e+03 0.0000000000000000e+00 6.0303059510316543e+03 -8.0702451344398414e+03 0.0000000000000000e+00 0.0000000000000000e+00 0.0000000000000000e+00 0.0000000000000000e+00  -6.5197547566121893e+03 -6.0969952752896934e+03 0.0000000000000000e+00 -6.0969952752896934e+03 -4.4771236166164454e+03 0.0000000000000000e+00 0.0000000000000000e+00 0.0000000000000000e+00 0.0000000000000000e+00  -6.0590628827009505e+03 5.6882773668811260e+03 0.0000000000000000e+00 5.6882773668811260e+03 -4.4983605217094419e+03 0.0000000000000000e+00 0.0000000000000000e+00 0.0000000000000000e+00 0.0000000000000000e+00  -4.8738535645301217e+03 -5.6123276380191328e+03 0.0000000000000000e+00 -5.6123276380191328e+03 -7.0538631241299390e+03 0.0000000000000000e+00 0.0000000000000000e+00 0.0000000000000000e+00 0.0000000000000000e+00  -1.4644390068887983e+03 -1.1465783043847118e+03 0.0000000000000000e+00 -1.1465783043847114e+03 -8.7773495976496838e+02 0.0000000000000000e+00 0.0000000000000000e+00 0.0000000000000000e+00 0.0000000000000000e+00  -6.1304693469079339e+03 -5.7425676016939478e+03 0.0000000000000000e+00 -5.7425676016939497e+03 -5.5935468705683788e+03 0.0000000000000000e+00 0.0000000000000000e+00 0.0000000000000000e+00 0.0000000000000000e+00  4.7235034543116399e+02 6.0350714312189837e+01 0.0000000000000000e+00 6.0350714312189204e+01 