<?xml version="1.0"?>
<VTKFile type="UnstructuredGrid"  version="0.1"  >
<UnstructuredGrid>
<Piece  NumberOfPoints="4855" NumberOfCells="8780">
<Points>
<DataArray  type="Float64"  NumberOfComponents="3"  format="ascii">0.9483880164242298 0.6836931311526558 0  0.9494264999197789 0.6847056440044139 0  0.9494005292759887 0.6847228078606633 0  0.9735520289385229 0.7444444444444445 0  0.9494005292759886 0.8041660810282256 0  0.94942649991978 0.8041832448844759 0  0.9483880175070514 0.8051957566534116 0  3.131175874138137e-16 0.09811450876034808 0  0.06838800723463068 0.1543033514199101 0  0.05161198249294494 0.1948042433465922 0  0.0505735000802211 0.1958167551155251 0  0.05059947072401128 0.1958339189717744 0  0.0505994707240113 0.3152771921393367 0  0.05057350008021998 0.315294355995587 0  0.05161198357913653 0.3163068688507105 0  0.06838800723463068 0.356807759691201 0  3.252606517456513e-16 0.4129966023507631 0  -1.795438797635995e-16 0.4839416311832997 0  0.07083274769489223 0.4605116403870998 0  0.07084991155114129 0.4605376110308903 0  0.07186242331670639 0.4594991286215342 0  0.1696402113702762 0.5 0  0.07186242332008326 0.5405008713818427 0  0.0708499115511413 0.5394623889691096 0  0.07083274769489219 0.5394883596129002 0  -1.925543058334256e-16 0.5160583688167003 0  1.484923295436147e-15 0.5870033976492365 0  0.06838800723463068 0.643192240308799 0  0.05161198249294541 0.6836931322354806 0  0.05057350008022109 0.6847056440044139 0  0.0505994707240113 0.6847228078606633 0  0.0505994707240113 0.8041660810282256 0  0.05057350008021999 0.804183244884476 0  0.05161198249294764 0.8051957566534106 0  0.06838800723463068 0.84569664858009 0  1.485790657174135e-15 0.9018854912396524 0  0 1 0  1 1 0  0.9999999999999987 0.9018854912396523 0  1.000000000000001 0.5870033976492375 0  1 0.5160583688167003 0  0.9291672523051078 0.5394883596129003 0  0.9291500884488585 0.5394623889691117 0  0.9281375755937461 0.5405008724680134 0  0.9281375755937372 0.4594991275319777 0  0.9291500884488586 0.4605376110308884 0  0.9291672523051077 0.4605116403870997 0  1 0.4839416311832997 0  0.9999999999999987 0.4129966023507635 0  0.948388017507054 0.31630686776452 0  0.94942649991978 0.3152943559955871 0  0.9494005292759886 0.3152771921393367 0  0.9735520289385229 0.2555555555555555 0  0.9494005292759888 0.1958339189717744 0  0.9494264999197789 0.1958167551155251 0  0.9483880164208631 0.1948042422604003 0  1.000000000000001 0.09811450876034861 0  1 0 0  0 0 0  0.1958339189717744 0.2950439151684559 0  0.1958167551155252 0.2950179445246672 0  0.3152771921393367 0.2950439151684557 0  0.1948042433481841 0.2960564269357975 0  0.3152943559955858 0.2950179445246651 0  0.1948042422604031 0.2150546830875326 0  0.3163068677645244 0.2960564269373949 0  0.1958167551155251 0.2160931665864439 0  0.4140846558147206 0.2555555555555555 0  0.1958339189717744 0.2160671959426553 0  0.3163068688489276 0.215054683089313 0  0.3152771921393367 0.2160671959426553 0  0.3152943559955858 0.2160931665864459 0  0.5405008724680257 0.3163068688507107 0  0.5572768961235196 0.356807759691201 0  0.5394623889691089 0.3152943559955871 0  0.459499128618165 0.3163068677645201 0  0.5394883596129003 0.3152771921393367 0  0.4605376110308911 0.3152943559955871 0  0.5394883596129001 0.1958339189717744 0  0.4605116403870998 0.3152771921393367 0  0.53946238896911 0.1958167551155251 0  0.4846631400496339 0.2555555555555555 0  0.5405008724680251 0.1948042422604009 0  0.4605116403870998 0.1958339189717744 0  0.5572768961235196 0.1543033514199101 0  0.46053761103089 0.1958167551155251 0  0.4594991286269881 0.1948042433554141 0  0.6847228078606633 0.2950439151684559 0  0.684705644004414 0.2950179445246672 0  0.8041660810282256 0.2950439151684557 0  0.683693131164073 0.2960564280087975 0  0.8041832448844747 0.2950179445246651 0  0.6836931322354718 0.2150546841737125 0  0.8051957566534156 0.2960564269373971 0  0.6847056440044141 0.2160931665864439 0  0.9029735447036096 0.2555555555555555 0  0.6847228078606632 0.2160671959426553 0  0.8051957577274008 0.2150546830997286 0  0.8041660810282256 0.2160671959426553 0  0.8041832448844747 0.2160931665864459 0  0.2960564280235811 0.560751313295155 0  0.3128324516790751 0.6012522041356455 0  0.2950179445246645 0.5597388004400315 0  0.2150546830875235 0.5607513132951615 0  0.2950439151684557 0.5597216365837812 0  0.2160931665864466 0.5597388004400314 0  0.2950439151684558 0.4402783634162188 0  0.2160671959426553 0.5597216365837812 0  0.2950179445246656 0.4402611995599696 0  0.2402186956051895 0.5 0  0.29605642693739 0.439248687791036 0  0.2160671959426553 0.4402783634162189 0  0.3128324516790751 0.3987477958643545 0  0.2160931665864455 0.4402611995599696 0  0.2150546830875296 0.4392486867048446 0  0.1958339189717743 0.7839328040573448 0  0.1958167551155252 0.7839068334135562 0  0.3152771921393367 0.7839328040573447 0  0.1948042422604028 0.7849453169124678 0  0.3152943559955858 0.783906833413554 0  0.1948042433465913 0.7039435730626098 0  0.3163068677645284 0.7849453158262878 0  0.1958167551155251 0.7049820554753328 0  0.4140846558147206 0.7444444444444445 0  0.1958339189717744 0.7049560848315441 0  0.3163068688486237 0.7039435719785058 0  0.3152771921393367 0.7049560848315441 0  0.3152943559955858 0.7049820554753349 0  0.4402783634162188 0.5394883596129003 0  0.4402611995599696 0.5394623889691117 0  0.5597216365837812 0.5394883596129002 0  0.4392486867048468 0.5405008724680237 0  0.5597388004400302 0.5394623889691096 0  0.4392486877998708 0.4594991286270004 0  0.5607513122089726 0.540500871381843 0  0.4402611995599696 0.4605376110308884 0  0.6585291002591651 0.5 0  0.4402783634162188 0.4605116403870998 0  0.5607513121946796 0.45949912863245 0  0.5597216365837812 0.4605116403870998 0  0.5597388004400302 0.4605376110308904 0  0.78494531690701 0.5607513132896949 0  0.8017213405679641 0.6012522041356455 0  0.7839068334135535 0.5597388004400315 0  0.7039435730626069 0.5607513122089671 0  0.7839328040573448 0.5597216365837812 0  0.7049820554753355 0.5597388004400314 0  0.7839328040573448 0.4402783634162188 0  0.7049560848315441 0.5597216365837812 0  0.7839068334135545 0.4402611995599696 0  0.7291075844940784 0.5 0  0.784945315826279 0.4392486877910359 0  0.7049560848315444 0.4402783634162188 0  0.8017213405679641 0.3987477958643545 0  0.7049820554753344 0.4402611995599696 0  0.7039435719764182 0.4392486867048443 0  0.5405008724625655 0.8051957577341393 0  0.5572768961235196 0.84569664858009 0  0.539462388969109 0.804183244884476 0  0.4594991286181648 0.8051957566534091 0  0.5394883596129003 0.8041660810282256 0  0.4605376110308911 0.804183244884476 0  0.5394883596129003 0.6847228078606633 0  0.4605116403870998 0.8041660810282256 0  0.53946238896911 0.6847056440044139 0  0.4846631400496339 0.7444444444444445 0  0.5405008713818347 0.6836931322354802 0  0.4605116403870998 0.6847228078606633 0  0.5572768961235196 0.643192240308799 0  0.46053761103089 0.6847056440044139 0  0.4594991275353449 0.6836931311526599 0  0.6847228078606633 0.7839328040573448 0  0.684705644004414 0.7839068334135562 0  0.8041660810282256 0.7839328040573447 0  0.6836931311493016 0.7849453169124578 0  0.8041832448844747 0.783906833413554 0  0.68369313223548 0.7039435730626096 0  0.805195756653417 0.7849453158262875 0  0.6847056440044141 0.7049820554753328 0  0.9029735447036096 0.7444444444444445 0  0.6847228078606633 0.7049560848315441 0  0.805195757738809 0.7039435719772094 0  0.8041660810282256 0.7049560848315441 0  0.8041832448844747 0.7049820554753349 0  0.9578164230213342 0.6948838683471341 0  0.9645772892192558 0.7062137009141434 0  0.9695236884064815 0.7184451175460498 0  0.972538971146615 0.7312896684428197 0  0.9725389711466151 0.7575992204460691 0  0.9695236884064815 0.7704437713428391 0  0.9645772892192558 0.7826751879747456 0  0.9578164230213342 0.7940050205417549 0  0.01437766570919127 0.09711967848259151 0  0.02854851642641832 0.09974531144948819 0  0.04161535472570586 0.1058251712658871 0  0.05275088139110013 0.1149743244732108 0  0.06125007411586489 0.1266135117968212 0  0.06657482449792251 0.1400058227212122 0  0.06643634307317195 0.1691277076584997 0  0.06071435336153361 0.1829418078690686 0  0.04134737123322858 0.3039103077764334 0  0.03416190609801732 0.2911362521989113 0  0.02925217947541549 0.2773267630846004 0  0.02676106927623143 0.2628837102534819 0  0.02676106927623143 0.2482274008576293 0  0.02925217947541547 0.2337843480265108 0  0.03416190609801727 0.2199748589121999 0  0.04134737123322851 0.2072008033346779 0  0.06071435387356935 0.328169304128914 0  0.06643634320569657 0.3419834039471998 0  0.06657482449792249 0.371105288389899 0  0.06125007411586481 0.3844975993142901 0  0.05275088139109994 0.3961367866379005 0  0.04161535472570563 0.4052859398452242 0  0.02854851642641818 0.411365799661623 0  0.01437766570919127 0.4139914326285196 0  0 0.4697526254167924 0  0 0.455563619650285 0  0 0.4413746138837777 0  0 0.4271856081172704 0  0.06095233986089402 0.4687284952262988 0  0.04995687430503332 0.4753797281664747 0  0.03809234373417287 0.4803165365228644 0  0.02562418374773841 0.4834284730529493 0  0.01283133446055119 0.4846459169037758 0  0.08372485599813187 0.4503967593658507 0  0.09753895276796982 0.4446747697099958 0  0.1123633055586467 0.4427231038764812 0  0.1271876590095525 0.4446747646950606 0  0.1410017577150834 0.45039674967774 0  0.1528641934757506 0.4594991149204779 0  0.161966560724962 0.471361549141524 0  0.1676885480442292 0.4851756468792086 0  0.1676885480443665 0.514824353120279 0  0.1619665607254926 0.528638450857557 0  0.1528641934768762 0.5405008850783964 0  0.1410017577169217 0.5496032503211987 0  0.1271876590121153 0.5553252353042526 0  0.1123633055618306 0.5572768961235188 0  0.09753895277155772 0.5553252302909656 0  0.08372485600180817 0.5496032406362719 0  0.0128313344605512 0.5153540830962242 0  0.0256241837477384 0.5165715269470507 0  0.03809234373417282 0.5196834634771356 0  0.04995687430503334 0.5246202718335253 0  0.06095233986089401
[...]
<PointData  Tensors="$\sigma$"> 
<DataArray  type="Float64"  Name="$\sigma$"  NumberOfComponents="9" format="ascii">-4.5513793219944600e+03 -5.1358108345974106e+03 0.0000000000000000e+00 -5.1358108345974060e+03 -5.4034136077839676e+03 0.0000000000000000e+00 0.0000000000000000e+00 0.0000000000000000e+00 0.0000000000000000e+00  -8.5096583522818455e+03 -6.3301297852372409e+03 0.0000000000000000e+00 -6.3301297852372427e+03 -6.6721067183078876e+03 0.0000000000000000e+00 0.0000000000000000e+00 0.0000000000000000e+00 0.0000000000000000e+00  -4.1900812614167935e+03 -5.3570778182197728e+03 0.0000000000000000e+00 -5.3570778182197728e+03 -6.0367133286640365e+03 0.0000000000000000e+00 0.0000000000000000e+00 0.0000000000000000e+00 0.0000000000000000e+00  1.1389100411769122e+02 3.3466453160668934e+01 0.0000000000000000e+00 3.3466453160668806e+01 -9.0569908585808662e+03 0.0000000000000000e+00 0.0000000000000000e+00 0.0000000000000000e+00 0.0000000000000000e+00  -3.2949148558453940e+03 4.0581966898946889e+03 0.0000000000000000e+00 4.0581966898946939e+03 -4.4750617053232736e+03 0.0000000000000000e+00 0.0000000000000000e+00 0.0000000000000000e+00 0.0000000000000000e+00  -8.5355525949154598e+03 7.1869885470860081e+03 0.0000000000000000e+00 7.1869885470860099e+03 -7.8435800963835964e+03 0.0000000000000000e+00 0.0000000000000000e+00 0.0000000000000000e+00 0.0000000000000000e+00  -3.0146090711515735e+03 3.4196432796089466e+03 0.0000000000000000e+00 3.4196432796089493e+03 -3.1343108603533346e+03 0.0000000000000000e+00 0.0000000000000000e+00 0.0000000000000000e+00 0.0000000000000000e+00  2.9824159790733610e+01 -2.3358019565215768e-01 0.0000000000000000e+00 -2.3358019565210603e-01 1.2149898976768752e+01 0.0000000000000000e+00 0.0000000000000000e+00 0.0000000000000000e+00 0.0000000000000000e+00  5.4925287924453229e+01 3.8073309167034189e+01 0.0000000000000000e+00 3.8073309167034246e+01 7.5714402339298740e+03 0.0000000000000000e+00 0.0000000000000000e+00 0.0000000000000000e+00 0.0000000000000000e+00  -2.8898488602274624e+03 3.1771452111487606e+03 0.0000000000000000e+00 3.1771452111487624e+03 -3.5318632243819220e+03 0.0000000000000000e+00 0.0000000000000000e+00 0.0000000000000000e+00 0.0000000000000000e+00  -8.3463626439979289e+03 7.1876861815023667e+03 0.0000000000000000e+00 7.1876861815023622e+03 -7.2438137161431205e+03 0.0000000000000000e+00 0.0000000000000000e+00 0.0000000000000000e+00 0.0000000000000000e+00  -3.2027976177919231e+03 3.9521375954049527e+03 0.0000000000000000e+00 3.9521375954049586e+03 -4.2979084642245589e+03 0.0000000000000000e+00 0.0000000000000000e+00 0.0000000000000000e+00 0.0000000000000000e+00  -3.6334734857135613e+03 -5.3390322413823114e+03 0.0000000000000000e+00 -5.3390322413823114e+03 -5.4012379341782353e+03 0.0000000000000000e+00 0.0000000000000000e+00 0.0000000000000000e+00 0.0000000000000000e+00  -9.5520472994062566e+03 -6.3270783092870324e+03 0.0000000000000000e+00 -6.3270783092870342e+03 -7.6214962796994596e+03 0.0000000000000000e+00 0.0000000000000000e+00 0.0000000000000000e+00 0.0000000000000000e+00  -3.8578102342608622e+03 -5.1469171536440026e+03 0.0000000000000000e+00 -5.1469171536439935e+03 -4.9490772613874860e+03 0.0000000000000000e+00 0.0000000000000000e+00 0.0000000000000000e+00 0.0000000000000000e+00  1.8050237270471732e+02 -2.1326891998731757e+01 0.0000000000000000e+00 -2.1326891998731863e+01 2.2441206343150948e+03 0.0000000000000000e+00 0.0000000000000000e+00 0.0000000000000000e+00 0.0000000000000000e+00  1.0410381116533385e+00 -1.0687503577087899e-01 0.0000000000000000e+00 -1.0687503577087940e-01 -6.1002064234082365e+00 0.0000000000000000e+00 0.0000000000000000e+00 0.0000000000000000e+00 0.0000000000000000e+00  -3.4958735869195307e-01 2.5793668803835784e-01 0.0000000000000000e+00 2.5793668803835745e-01 1.7597016607247591e+00 0.0000000000000000e+00 0.0000000000000000e+00 0.0000000000000000e+00 0.0000000000000000e+00  -2.9350767224588285e+01 2.9013194624908920e+01 0.0000000000000000e+00 2.9013194624908955e+01 -1.7422447929847348e+01 0.0000000000000000e+00 0.0000000000000000e+00 0.0000000000000000e+00 0.0000000000000000e+00  -5.7104461590382826e+01 9.0498650240124014e+00 0.0000000000000000e+00 9.0498650240123979e+00 -2.3665978016260603e+01 0.0000000000000000e+00 0.0000000000000000e+00 0.0000000000000000e+00 0.0000000000000000e+00  -1.7509794259930697e+01 6.7890585288145843e+01 0.0000000000000000e+00 6.7890585288145829e+01 -6.2561853626373583e+01 0.0000000000000000e+00 0.0000000000000000e+00 0.0000000000000000e+00 0.0000000000000000e+00  2.9479352328133946e+03 -1.7597943989176761e+02 0.0000000000000000e+00 -1.7597943989176696e+02 1.5577689941786835e+04 0.0000000000000000e+00 0.0000000000000000e+00 0.0000000000000000e+00 0.0000000000000000e+00  -3.9106234235978270e+01 -9.5499047966681601e+01 0.0000000000000000e+00 -9.5499047966681516e+01 -4.4365168578266001e+01 0.0000000000000000e+00 0.0000000000000000e+00 0.0000000000000000e+00 0.0000000000000000e+00  8.8022672703837060e+01 1.3986364327978680e+02 0.0000000000000000e+00 1.3986364327978686e+02 7.2599763902915129e+01 0.0000000000000000e+00 0.0000000000000000e+00 0.0000000000000000e+00 0.0000000000000000e+00  -2.4639828963693258e+01 -2.3120979136983994e+01 0.0000000000000000e+00 -2.3120979136984026e+01 -6.6216828162034442e+00 0.0000000000000000e+00 0.0000000000000000e+00 0.0000000000000000e+00 0.0000000000000000e+00  7.2136844884165108e-01 -2.6495540661468118e-02 0.0000000000000000e+00 -2.6495540661468270e-02 1.5530547803616017e+00 0.0000000000000000e+00 0.0000000000000000e+00 0.0000000000000000e+00 0.0000000000000000e+00  -2.5039828211987727e+00 -6.4122950902225977e+00 0.0000000000000000e+00 -6.4122950902225933e+00 1.3262633523140808e+00 0.0000000000000000e+00 0.0000000000000000e+00 0.0000000000000000e+00 0.0000000000000000e+00  2.8654677330187205e+01 -3.8338561040145414e+01 0.0000000000000000e+00 -3.8338561040145265e+01 2.3106213990872857e+03 0.0000000000000000e+00 0.0000000000000000e+00 0.0000000000000000e+00 0.0000000000000000e+00  -4.3688625425728023e+03 5.2089793137249389e+03 0.0000000000000000e+00 5.2089793137249426e+03 -5.3962920788412093e+03 0.0000000000000000e+00 0.0000000000000000e+00 0.0000000000000000e+00 0.0000000000000000e+00  -8.7606929931216800e+03 6.4099632776319131e+03 0.0000000000000000e+00 6.4099632776319058e+03 -6.3739131168660824e+03 0.0000000000000000e+00 0.0000000000000000e+00 0.0000000000000000e+00 0.0000000000000000e+00  -3.9148893404879482e+03 5.0671693237152722e+03 0.0000000000000000e+00 5.0671693237152749e+03 -6.1985485027152599e+03 0.0000000000000000e+00 0.0000000000000000e+00 0.0000000000000000e+00 0.0000000000000000e+00  -3.2587536814310406e+03 -3.9726471581041469e+03 0.0000000000000000e+00 -3.9726471581041501e+03 -4.3638208896395354e+03 0.0000000000000000e+00 0.0000000000000000e+00 0.0000000000000000e+00 0.0000000000000000e+00  -8.1896343581300580e+03 -7.1155538440748269e+03 0.0000000000000000e+00 -7.1155538440748287e+03 -7.6513996546862654e+03 0.0000000000000000e+00 0.0000000000000000e+00 0.0000000000000000e+00 0.0000000000000000e+00  -3.0334287578963904e+03 -3.2992516710236005e+03 0.0000000000000000e+00 -3.2992516710235977e+03 -3.0190594656555077e+03 0.0000000000000000e+00 0.0000000000000000e+00 0.0000000000000000e+00 0.0000000000000000e+00  1.8460885655093170e+02 -2.6316508840845495e+02 0.0000000000000000e+00 -2.6316508840845472e+02 7.2175783321123381e+03 0.0000000000000000e+00 0.0000000000000000e+00 0.0000000000000000e+00 0.0000000000000000e+00  -7.7470655172022333e+01 3.6239085322631290e+01 0.0000000000000000e+00 3.6239085322631233e+01 -3.6012069130945740e+01 0.0000000000000000e+00 0.0000000000000000e+00 0.0000000000000000e+00 0.0000000000000000e+00  3.9573000565287515e+00 7.7340882152805772e+00 0.0000000000000000e+00 7.7340882152805914e+00 5.3655725439633875e+02 0.0000000000000000e+00 0.0000000000000000e+00 0.0000000000000000e+00 0.0000000000000000e+00  3.7160503985553408e+00 -1.0204154963795094e+01 0.0000000000000000e+00 -1.0204154963795130e+01 5.4886021118908491e+02 0.0000000000000000e+00 0.0000000000000000e+00 0.0000000000000000e+00 0.0000000000000000e+00  3.1414998493634570e+01 -2.4980778526554568e+00 0.0000000000000000e+00 -2.4980778526554186e+00 -1.7904677964131302e+01 0.0000000000000000e+00 0.0000000000000000e+00 0.0000000000000000e+00 0.0000000000000000e+00  -3.4934655514798978e+00 -8.9320682398739337e-01 0.0000000000000000e+00 -8.9320682398739137e-01 -3.4760871983081691e+00 0.0000000000000000e+00 0.0000000000000000e+00 0.0000000000000000e+00 0.0000000000000000e+00  4.1605179999739855e-01 3.5079204900531885e-01 0.0000000000000000e+00 3.5079204900531830e-01 9.5730893083788815e-01 0.0000000000000000e+00 0.0000000000000000e+00 0.0000000000000000e+00 0.0000000000000000e+00  -2.6780031057699848e+01 3.0310435334715947e+01 0.0000000000000000e+00 3.0310435334715958e+01 -2.1943858394558386e+01 0.0000000000000000e+00 0.0000000000000000e+00 0.0000000000000000e+00 0.0000000000000000e+00  -4.0071542340555233e+01 -4.0572758262916736e+01 0.0000000000000000e+00 -4.0572758262916757e+01 4.1960665985305123e+00 0.0000000000000000e+00 0.0000000000000000e+00 0.0000000000000000e+00 0.0000000000000000e+00  8.4711241807461590e+00 7.0810391094568175e+01 0.0000000000000000e+00 7.0810391094568246e+01 -4.0742164837683831e+01 0.0000000000000000e+00 0.0000000000000000e+00 0.0000000000000000e+00 0.0000000000000000e+00  -2.5603898141651360e+01 -7.1778773767479507e+01 0.0000000000000000e+00 -7.1778773767479436e+01 -6.5539374480217901e+01 0.0000000000000000e+00 0.0000000000000000e+00 0.0000000000000000e+00 0.0000000000000000e+00  -8.5255308498049885e+01 -5.4172922067651157e+01 0.0000000000000000e+00 -5.4172922067651186e+01 -8.3455553961025672e+01 0.0000000000000000e+00 0.0000000000000000e+00 0.0000000000000000e+00 0.0000000000000000e+00  -4.0439134253371400e+01 -2.4097099543559995e+01 0.0000000000000000e+00 -2.4097099543560006e+01 1.0245978256168289e+00 0.0000000000000000e+00 0.0000000000000000e+00 0.0000000000000000e+00 0.0000000000000000e+00  -8.9495654746200082e-01 -5.6418658948677536e-01 0.0000000000000000e+00 -5.6418658948677503e-01 -2.4831597346966994e-01 0.0000000000000000e+00 0.0000000000000000e+00 0.0000000000000000e+00 0.0000000000000000e+00  -4.8577469061833014e+00 -1.4880708943041381e+00 0.0000000000000000e+00 -1.4880708943041367e+00 -3.3239774740170502e+00 0.0000000000000000e+00 0.0000000000000000e+00 0.0000000000000000e+00 0.0000000000000000e+00  -3.9684275712618937e+03 4.7162722482343897e+03 0.0000000000000000e+00 4.7162722482343834e+03 -5.0643761133149246e+03 0.0000000000000000e+00 0.0000000000000000e+00 0.0000000000000000e+00 0.0000000000000000e+00  -8.6936533735706089e+03 6.6293918812868515e+03 0.0000000000000000e+00 6.6293918812868505e+03 -6.7112396915941999e+03 0.0000000000000000e+00 0.0000000000000000e+00 0.0000000000000000e+00 0.0000000000000000e+00  -4.3228884168159766e+03 5.1142940400248908e+03 0.0000000000000000e+00 5.1142940400248935e+03 -6.0564116827882108e+03 0.0000000000000000e+00 0.0000000000000000e+00 0.0000000000000000e+00 0.0000000000000000e+00  1.6282676873406126e+02 5.8483842260490611e+01 0.0000000000000000e+00 5.8483842260491087e+01 -9.0055470660097435e+03 0.0000000000000000e+00 0.0000000000000000e+00 0.0000000000000000e+00 0.0000000000000000e+00  -3.0401061733054285e+03 -3.9643247182378677e+03 0.0000000000000000e+00 -3.9643247182378682e+03 -4.2902542830742677e+03 0.0000000000000000e+00 0.0000000000000000e+00 0.0000000000000000e+00 0.0000000000000000e+00  -9.0705820203428593e+03 -7.4177960511321935e+03 0.0000000000000000e+00 -7.4177960511321908e+03 -7.6851762076575396e+03 0.0000000000000000e+00 0.0000000000000000e+00 0.0000000000000000e+00 0.0000000000000000e+00  -2.9153177538681380e+03 -3.2466948282292328e+03 0.0000000000000000e+00 -3.2466948282292301e+03 -3.7351424698044034e+03 0.0000000000000000e+00 0.0000000000000000e+00 0.0000000000000000e+00 0.0000000000000000e+00  -4.0185627984831271e+01 1.1853454642291085e+01 0.0000000000000000e+00 1.1853454642291078e+01 -1.0909826449043914e+01 0.0000000000000000e+00 0.0000000000000000e+00 0.0000000000000000e+00 0.0000000000000000e+00  3.0771353826925956e+00 5.7349870976677559e+00 0.0000000000000000e+00 5.7349870976677630e+00 5.3858184448045097e+02 0.0000000000000000e+00 0.0000000000000000e+00 0.0000000000000000e+00 0.0000000000000000e+00  1.3752588727405265e+02 1.1061521528875376e+02 0.0000000000000000e+00 1.1061521528875376e+02 6.4879805352479468e+02 0.0000000000000000e+00 0.0000000000000000e+00 0.0000000000000000e+00 0.0000000000000000e+00  -5.7190609063864185e+03 5.8683637433338254e+03 0.0000000000000000e+00 5.8683637433338281e+03 -5.5531926292805401e+03 0.0000000000000000e+00 0.0000000000000000e+00 0.0000000000000000e+00 0.0000000000000000e+00  -7.6204764836567110e+03 5.8772375692039732e+03 0.0000000000000000e+00 5.8772375692039714e+03 -8.7416861623118784e+03 0.0000000000000000e+00 0.0000000000000000e+00 0.0000000000000000e+00 0.0000000000000000e+00  -6.4700964555459495e+03 -6.1062343090881732e+03 0.0000000000000000e+00 -6.1062343090881741e+03 -4.7762038247523797e+03 0.0000000000000000e+00 0.0000000000000000e+00 0.0000000000000000e+00 0.0000000000000000e+00  -4.5527537035103269e+03 5.9847785530783713e+03 0.0000000000000000e+00 5.9847785530783731e+03 -2.4598884880512869e+03 0.0000000000000000e+00 0.0000000000000000e+00 0.0000000000000000e+00 0.0000000000000000e+00  -4.5349238810128691e+03 -5.5642679768496664e+03 0.0000000000000000e+00 -5.5642679768496573e+03 -6.6253017531758005e+03 0.0000000000000000e+00 0.0000000000000000e+00 0.0000000000000000e+00 0.0000000000000000e+00  -1.1576882467861528e+03 -1.0948333014238365e+03 0.0000000000000000e+00 -1.0948333014238367e+03 -8.2909031020794055e+02 0.0000000000000000e+00 0.0000000000000000e+00 0.0000000000000000e+00 0.0000000000000000e+00  -6.5900453053268820e+03 -5.8640135539325502e+03 0.0000000000000000e+00 -5.8640135539325547e+03 -5.7533781916943317e+03 0.0000000000000000e+00 0.0000000000000000e+00 0.0000000000000000e+00 0.0000000000000000e+00  -3.6718741584870406e+02 -4.0345954300634503e+02 0.0000000000000000e+00 -4.0345954300634531e+02 -7.8925411898622838e+02 0.0000000000000000e+00 0.0000000000000000e+00 0.0000000000000000e+00 0.0000000000000000e+00  3.6027054786864369e+03 3.4979862645554925e+02 0.0000000000000000e+00 3.4979862645554959e+02 1.5787114457147556e+04 0.0000000000000000e+00 0.0000000000000000e+00 0.0000000000000000e+00 0.0000000000000000e+00  -5.8315144846283852e+02 -5.7355895561872910e+02 0.0000000000000000e+00 -5.7355895561872842e+02 -4.0963001481008826e+02 0.0000000000000000e+00 0.0000000000000000e+00 0.0000000000000000e+00 0.0000000000000000e+00  -1.2613420349594455e+03 1.2973379737811163e+03 0.0000000000000000e+00 1.2973379737811140e+03 -1.0283925265803841e+03 0.0000000000000000e+00 0.0000000000000000e+00 0.0000000000000000e+00 0.0000000000000000e+00  -1.0873366700104912e+03 7.8552815701690031e+02 0.0000000000000000e+00 7.8552815701690110e+02 -6.1974876915821380e+02 0.0000000000000000e+00 0.0000000000000000e+00 0.0000000000000000e+00 0.0000000000000000e+00  4.4725440171338812e+02 -2.0569244649737408e+02 0.0000000000000000e+00 -2.0569244649737414e+02 -2.0133162028365240e+02 0.0000000000000000e+00 0.0000000000000000e+00 0.0000000000000000e+00 0.0000000000000000e+00  -5.3005337526464655e+03 -6.5422877086169738e+03 0.0000000000000000e+00 -6.5422877086169756e+03 -5.9998150863838046e+03 0.0000000000000000e+00 0.0000000000000000e+00 0.0000000000000000e+00 0.0000000000000000e+00  6.7747671226076807e+02 -1.2913727697628173e+02 0.0000000000000000e+00 -1.2913727697627991e+02 6.4251167438663488e+03 0.0000000000000000e+00 0.0000000000000000e+00 0.0000000000000000e+00 0.0000000000000000e+00  -5.7496841163555919e+03 -5.3284217458904504e+03 0.0000000000000000e+00 -5.3284217458904541e+03 -3.9809337528720039e+03 0.0000000000000000e+00 0.0000000000000000e+00 0.0000000000000000e+00 0.0000000000000000e+00  -4.9726217801512712e+03 6.5395283081213256e+03 0.0000000000000000e+00 6.5395283081213238e+03 -6.7301866724961974e+03 0.0000000000000000e+00 0.0000000000000000e+00 0.0000000000000000e+00 0.0000000000000000e+00  -6.2308218979294579e+03 -6.1285657975274398e+03 0.0000000000000000e+00 -6.1285657975274398e+03 -8.1649389191177988e+03 0.0000000000000000e+00 0.0000000000000000e+00 0.0000000000000000e+00 0.0000000000000000e+00  -5.5515671097606983e+03 5.3807827310380062e+03 0.0000000000000000e+00 5.3807827310380135e+03 -3.2464982044580770e+03 0.0000000000000000e+00 0.0000000000000000e+00 0.0000000000000000e+00 0.0000000000000000e+00  1.0707293516855079e+02 1.1564531524386662e+03 0.0000000000000000e+00 1.1564531524386659e+03 -4.6728975952312339e+02 0.0000000000000000e+00 0.0000000000000000e+00 0.0000000000000000e+00 0.0000000000000000e+00  -6.6415870419957082e+03 6.0428534660924061e+03 0.0000000000000000e+00 6.0428534660924079e+03 -8.2243469609398817e+03 0.0000000000000000e+00 0.0000000000000000e+00 0.0000000000000000e+00 0.0000000000000000e+00  -9.0875748985227547e+03 9.6169055524586838e+03 0.0000000000000000e+00 9.6169055524586929e+03 -1.3741414543805226e+04 0.0000000000000000e+00 0.0000000000000000e+00 0.0000000000000000e+00 0.0000000000000000e+00  6.2062610299236887e+01 5.1792379502515423e+01 0.0000000000000000e+00 5.1792379502517491e+01 -9.0633092073666303e+03 0.0000000000000000e+00 0.0000000000000000e+00 0.0000000000000000e+00 0.0000000000000000e+00  8.2324161306755752e+02 -3.2755730289268377e+03 0.0000000000000000e+00 -3.2755730289268422e+03 6.6851753111073922e+03 0.0000000000000000e+00 0.0000000000000000e+00 0.0000000000000000e+00 0.0000000000000000e+00  -1.3536966550550599e+03 -5.1646259538846573e+02 0.0000000000000000e+00 -5.1646259538846709e+02 4.2621631604029665e+02 0.0000000000000000e+00 0.0000000000000000e+00 0.0000000000000000e+00 0.0000000000000000e+00  7.8498575392536088e+02 -3.9462405175073030e+02 0.0000000000000000e+00 -3.9462405175073110e+02 1.2845868937222902e+04 0.0000000000000000e+00 0.0000000000000000e+00 0.0000000000000000e+00 0.0000000000000000e+00  -6.7548115115014707e+03 -8.6235466668697281e+03 0.0000000000000000e+00 -8.6235466668697281e+03 -1.1601816954286576e+04 0.0000000000000000e+00 0.0000000000000000e+00 0.0000000000000000e+00 0.0000000000000000e+00  6.5576407860480651e+02 2.0240375874255744e+03 0.0000000000000000e+00 2.0240375874255747e+03 4.0088594075204019e+03 0.0000000000000000e+00 0.0000000000000000e+00 0.0000000000000000e+00 0.0000000000000000e+00  -6.5208719185110067e+03 6.1892791867332271e+03 0.0000000000000000e+00 6.1892791867332253e+03 -4.9112265408864150e+03 0.0000000000000000e+00 0.0000000000000000e+00 0.0000000000000000e+00 0.0000000000000000e+00  -4.5655503161688521e+03 5.5364476434143407e+03 0.0000000000000000e+00 5.5364476434143417e+03 -6.6026893337564752e+03 0.0000000000000000e+00 0.0000000000000000e+00 0.0000000000000000e+00 0.0000000000000000e+00  -6.3155254795466371e+03 -5.8442667344820702e+03 0.0000000000000000e+00 -5.8442667344820702e+03 -5.9398692502376716e+03 0.0000000000000000e+00 0.0000000000000000e+00 0.0000000000000000e+00 0.0000000000000000e+00  -6.5941626181692454e+03 5.8876120026295284e+03 0.0000000000000000e+00 5.8876120026295312e+03 -5.6597093125659776e+03 0.0000000000000000e+00 0.0000000000000000e+00 0.0000000000000000e+00 0.0000000000000000e+00  -7.2980380788181246e+03 -5.8163900677480151e+03 0.0000000000000000e+00 -5.8163900677480151e+03 -8.1982562140241571e+03 0.0000000000000000e+00 0.0000000000000000e+00 0.0000000000000000e+00 0.0000000000000000e+00  -1.5401501712406687e+03 -1.2880675437225104e+03 0.0000000000000000e+00 -1.2880675437225102e+03 -1.0508287469828169e+03 0.0000000000000000e+00 0.0000000000000000e+00 0.0000000000000000e+00 0.0000000000000000e+00  -4.4393650298686107e+03 -6.0761620617706894e+03 0.0000000000000000e+00 -6.0761620617706949e+03 -2.9200613463232098e+03 0.0000000000000000e+00 0.0000000000000000e+00 0.0000000000000000e+00 0.0000000000000000e+00  8.4567001137831369e+02 4.7144550257672734e+02 0.0000000000000000e+00 4.7144550257672699e+02 6