<?xml version="1.0"?>
<VTKFile type="UnstructuredGrid"  version="0.1"  >
<UnstructuredGrid>
<Piece  NumberOfPoints="4855" NumberOfCells="8780">
<Points>
<DataArray  type="Float64"  NumberOfComponents="3"  format="ascii">0.9483880164242298 0.6836931311526558 0  0.9494264999197789 0.6847056440044139 0  0.9494005292759887 0.6847228078606633 0  0.9735520289385229 0.7444444444444445 0  0.9494005292759886 0.8041660810282256 0  0.94942649991978 0.8041832448844759 0  0.9483880175070514 0.8051957566534116 0  3.131175874138137e-16 0.09811450876034808 0  0.06838800723463068 0.1543033514199101 0  0.05161198249294494 0.1948042433465922 0  0.0505735000802211 0.1958167551155251 0  0.05059947072401128 0.1958339189717744 0  0.0505994707240113 0.3152771921393367 0  0.05057350008021998 0.315294355995587 0  0.05161198357913653 0.3163068688507105 0  0.06838800723463068 0.356807759691201 0  3.252606517456513e-16 0.4129966023507631 0  -1.795438797635995e-16 0.4839416311832997 0  0.07083274769489223 0.4605116403870998 0  0.07084991155114129 0.4605376110308903 0  0.07186242331670639 0.4594991286215342 0  0.1696402113702762 0.5 0  0.07186242332008326 0.5405008713818427 0  0.0708499115511413 0.5394623889691096 0  0.07083274769489219 0.5394883596129002 0  -1.925543058334256e-16 0.5160583688167003 0  1.484923295436147e-15 0.5870033976492365 0  0.06838800723463068 0.643192240308799 0  0.05161198249294541 0.6836931322354806 0  0.05057350008022109 0.6847056440044139 0  0.0505994707240113 0.6847228078606633 0  0.0505994707240113 0.8041660810282256 0  0.05057350008021999 0.804183244884476 0  0.05161198249294764 0.8051957566534106 0  0.06838800723463068 0.84569664858009 0  1.485790657174135e-15 0.9018854912396524 0  0 1 0  1 1 0  0.9999999999999987 0.9018854912396523 0  1.000000000000001 0.5870033976492375 0  1 0.5160583688167003 0  0.9291672523051078 0.5394883596129003 0  0.9291500884488585 0.5394623889691117 0  0.9281375755937461 0.5405008724680134 0  0.9281375755937372 0.4594991275319777 0  0.9291500884488586 0.4605376110308884 0  0.9291672523051077 0.4605116403870997 0  1 0.4839416311832997 0  0.9999999999999987 0.4129966023507635 0  0.948388017507054 0.31630686776452 0  0.94942649991978 0.3152943559955871 0  0.9494005292759886 0.3152771921393367 0  0.9735520289385229 0.2555555555555555 0  0.9494005292759888 0.1958339189717744 0  0.9494264999197789 0.1958167551155251 0  0.9483880164208631 0.1948042422604003 0  1.000000000000001 0.09811450876034861 0  1 0 0  0 0 0  0.1958339189717744 0.2950439151684559 0  0.1958167551155252 0.2950179445246672 0  0.3152771921393367 0.2950439151684557 0  0.1948042433481841 0.2960564269357975 0  0.3152943559955858 0.2950179445246651 0  0.1948042422604031 0.2150546830875326 0  0.3163068677645244 0.2960564269373949 0  0.1958167551155251 0.2160931665864439 0  0.4140846558147206 0.2555555555555555 0  0.1958339189717744 0.2160671959426553 0  0.3163068688489276 0.215054683089313 0  0.3152771921393367 0.2160671959426553 0  0.3152943559955858 0.2160931665864459 0  0.5405008724680257 0.3163068688507107 0  0.5572768961235196 0.356807759691201 0  0.5394623889691089 0.3152943559955871 0  0.459499128618165 0.3163068677645201 0  0.5394883596129003 0.3152771921393367 0  0.4605376110308911 0.3152943559955871 0  0.5394883596129001 0.1958339189717744 0  0.4605116403870998 0.3152771921393367 0  0.53946238896911 0.1958167551155251 0  0.4846631400496339 0.2555555555555555 0  0.5405008724680251 0.1948042422604009 0  0.4605116403870998 0.1958339189717744 0  0.5572768961235196 0.1543033514199101 0  0.46053761103089 0.1958167551155251 0  0.4594991286269881 0.1948042433554141 0  0.6847228078606633 0.2950439151684559 0  0.684705644004414 0.2950179445246672 0  0.8041660810282256 0.2950439151684557 0  0.683693131164073 0.2960564280087975 0  0.8041832448844747 0.2950179445246651 0  0.6836931322354718 0.2150546841737125 0  0.8051957566534156 0.2960564269373971 0  0.6847056440044141 0.2160931665864439 0  0.9029735447036096 0.2555555555555555 0  0.6847228078606632 0.2160671959426553 0  0.8051957577274008 0.2150546830997286 0  0.8041660810282256 0.2160671959426553 0  0.8041832448844747 0.2160931665864459 0  0.2960564280235811 0.560751313295155 0  0.3128324516790751 0.6012522041356455 0  0.2950179445246645 0.5597388004400315 0  0.2150546830875235 0.5607513132951615 0  0.2950439151684557 0.5597216365837812 0  0.2160931665864466 0.5597388004400314 0  0.2950439151684558 0.4402783634162188 0  0.2160671959426553 0.5597216365837812 0  0.2950179445246656 0.4402611995599696 0  0.2402186956051895 0.5 0  0.29605642693739 0.439248687791036 0  0.2160671959426553 0.4402783634162189 0  0.3128324516790751 0.3987477958643545 0  0.2160931665864455 0.4402611995599696 0  0.2150546830875296 0.4392486867048446 0  0.1958339189717743 0.7839328040573448 0  0.1958167551155252 0.7839068334135562 0  0.3152771921393367 0.7839328040573447 0  0.1948042422604028 0.7849453169124678 0  0.3152943559955858 0.783906833413554 0  0.1948042433465913 0.7039435730626098 0  0.3163068677645284 0.7849453158262878 0  0.1958167551155251 0.7049820554753328 0  0.4140846558147206 0.7444444444444445 0  0.1958339189717744 0.7049560848315441 0  0.3163068688486237 0.7039435719785058 0  0.3152771921393367 0.7049560848315441 0  0.3152943559955858 0.7049820554753349 0  0.4402783634162188 0.5394883596129003 0  0.4402611995599696 0.5394623889691117 0  0.5597216365837812 0.5394883596129002 0  0.4392486867048468 0.5405008724680237 0  0.5597388004400302 0.5394623889691096 0  0.4392486877998708 0.4594991286270004 0  0.5607513122089726 0.540500871381843 0  0.4402611995599696 0.4605376110308884 0  0.6585291002591651 0.5 0  0.4402783634162188 0.4605116403870998 0  0.5607513121946796 0.45949912863245 0  0.5597216365837812 0.4605116403870998 0  0.5597388004400302 0.4605376110308904 0  0.78494531690701 0.5607513132896949 0  0.8017213405679641 0.6012522041356455 0  0.7839068334135535 0.5597388004400315 0  0.7039435730626069 0.5607513122089671 0  0.7839328040573448 0.5597216365837812 0  0.7049820554753355 0.5597388004400314 0  0.7839328040573448 0.4402783634162188 0  0.7049560848315441 0.5597216365837812 0  0.7839068334135545 0.4402611995599696 0  0.7291075844940784 0.5 0  0.784945315826279 0.4392486877910359 0  0.7049560848315444 0.4402783634162188 0  0.8017213405679641 0.3987477958643545 0  0.7049820554753344 0.4402611995599696 0  0.7039435719764182 0.4392486867048443 0  0.5405008724625655 0.8051957577341393 0  0.5572768961235196 0.84569664858009 0  0.539462388969109 0.804183244884476 0  0.4594991286181648 0.8051957566534091 0  0.5394883596129003 0.8041660810282256 0  0.4605376110308911 0.804183244884476 0  0.5394883596129003 0.6847228078606633 0  0.4605116403870998 0.8041660810282256 0  0.53946238896911 0.6847056440044139 0  0.4846631400496339 0.7444444444444445 0  0.5405008713818347 0.6836931322354802 0  0.4605116403870998 0.6847228078606633 0  0.5572768961235196 0.643192240308799 0  0.46053761103089 0.6847056440044139 0  0.4594991275353449 0.6836931311526599 0  0.6847228078606633 0.7839328040573448 0  0.684705644004414 0.7839068334135562 0  0.8041660810282256 0.7839328040573447 0  0.6836931311493016 0.7849453169124578 0  0.8041832448844747 0.783906833413554 0  0.68369313223548 0.7039435730626096 0  0.805195756653417 0.7849453158262875 0  0.6847056440044141 0.7049820554753328 0  0.9029735447036096 0.7444444444444445 0  0.6847228078606633 0.7049560848315441 0  0.805195757738809 0.7039435719772094 0  0.8041660810282256 0.7049560848315441 0  0.8041832448844747 0.7049820554753349 0  0.9578164230213342 0.6948838683471341 0  0.9645772892192558 0.7062137009141434 0  0.9695236884064815 0.7184451175460498 0  0.972538971146615 0.7312896684428197 0  0.9725389711466151 0.7575992204460691 0  0.9695236884064815 0.7704437713428391 0  0.9645772892192558 0.7826751879747456 0  0.9578164230213342 0.7940050205417549 0  0.01437766570919127 0.09711967848259151 0  0.02854851642641832 0.09974531144948819 0  0.04161535472570586 0.1058251712658871 0  0.05275088139110013 0.1149743244732108 0  0.06125007411586489 0.1266135117968212 0  0.06657482449792251 0.1400058227212122 0  0.06643634307317195 0.1691277076584997 0  0.06071435336153361 0.1829418078690686 0  0.04134737123322858 0.3039103077764334 0  0.03416190609801732 0.2911362521989113 0  0.02925217947541549 0.2773267630846004 0  0.02676106927623143 0.2628837102534819 0  0.02676106927623143 0.2482274008576293 0  0.02925217947541547 0.2337843480265108 0  0.03416190609801727 0.2199748589121999 0  0.04134737123322851 0.2072008033346779 0  0.06071435387356935 0.328169304128914 0  0.06643634320569657 0.3419834039471998 0  0.06657482449792249 0.371105288389899 0  0.06125007411586481 0.3844975993142901 0  0.05275088139109994 0.3961367866379005 0  0.04161535472570563 0.4052859398452242 0  0.02854851642641818 0.411365799661623 0  0.01437766570919127 0.4139914326285196 0  0 0.4697526254167924 0  0 0.455563619650285 0  0 0.4413746138837777 0  0 0.4271856081172704 0  0.06095233986089402 0.4687284952262988 0  0.04995687430503332 0.4753797281664747 0  0.03809234373417287 0.4803165365228644 0  0.02562418374773841 0.4834284730529493 0  0.01283133446055119 0.4846459169037758 0  0.08372485599813187 0.4503967593658507 0  0.09753895276796982 0.4446747697099958 0  0.1123633055586467 0.4427231038764812 0  0.1271876590095525 0.4446747646950606 0  0.1410017577150834 0.45039674967774 0  0.1528641934757506 0.4594991149204779 0  0.161966560724962 0.471361549141524 0  0.1676885480442292 0.4851756468792086 0  0.1676885480443665 0.514824353120279 0  0.1619665607254926 0.528638450857557 0  0.1528641934768762 0.5405008850783964 0  0.1410017577169217 0.5496032503211987 0  0.1271876590121153 0.5553252353042526 0  0.1123633055618306 0.5572768961235188 0  0.09753895277155772 0.5553252302909656 0  0.08372485600180817 0.5496032406362719 0  0.0128313344605512 0.5153540830962242 0  0.0256241837477384 0.5165715269470507 0  0.03809234373417282 0.5196834634771356 0  0.04995687430503334 0.5246202718335253 0  0.06095233986089401
[...]
<PointData  Tensors="$\sigma$"> 
<DataArray  type="Float64"  Name="$\sigma$"  NumberOfComponents="9" format="ascii">-4.5069171703501388e+03 -5.8136939944032920e+03 0.0000000000000000e+00 -5.8136939944033029e+03 -5.6692406440665982e+03 0.0000000000000000e+00 0.0000000000000000e+00 0.0000000000000000e+00 0.0000000000000000e+00  -7.8258745854605104e+03 -6.1347882352055385e+03 0.0000000000000000e+00 -6.1347882352055285e+03 -6.4599255647612836e+03 0.0000000000000000e+00 0.0000000000000000e+00 0.0000000000000000e+00 0.0000000000000000e+00  -5.1168105997443727e+03 -5.9401194873598515e+03 0.0000000000000000e+00 -5.9401194873598515e+03 -6.1312194139320891e+03 0.0000000000000000e+00 0.0000000000000000e+00 0.0000000000000000e+00 0.0000000000000000e+00  1.1110205297355277e+02 -2.4141677728443508e+02 0.0000000000000000e+00 -2.4141677728443560e+02 -1.1583574402533879e+04 0.0000000000000000e+00 0.0000000000000000e+00 0.0000000000000000e+00 0.0000000000000000e+00  -5.4643692683359241e+03 6.0596020593711992e+03 0.0000000000000000e+00 6.0596020593712110e+03 -6.7160769163764535e+03 0.0000000000000000e+00 0.0000000000000000e+00 0.0000000000000000e+00 0.0000000000000000e+00  -7.9151487169219736e+03 5.8807498641805814e+03 0.0000000000000000e+00 5.8807498641805778e+03 -5.7235337783177392e+03 0.0000000000000000e+00 0.0000000000000000e+00 0.0000000000000000e+00 0.0000000000000000e+00  -3.7300823481067732e+03 5.5126902074435284e+03 0.0000000000000000e+00 5.5126902074435247e+03 -5.3287827780484613e+03 0.0000000000000000e+00 0.0000000000000000e+00 0.0000000000000000e+00 0.0000000000000000e+00  8.7062883789005824e+01 4.7479191589963508e+00 0.0000000000000000e+00 4.7479191589962992e+00 3.5965548491887695e+01 0.0000000000000000e+00 0.0000000000000000e+00 0.0000000000000000e+00 0.0000000000000000e+00  -5.5374918218662962e+01 7.3442444312601637e+01 0.0000000000000000e+00 7.3442444312600614e+01 8.3320943985381255e+03 0.0000000000000000e+00 0.0000000000000000e+00 0.0000000000000000e+00 0.0000000000000000e+00  -4.4951253490055415e+03 4.8579681258794299e+03 0.0000000000000000e+00 4.8579681258794271e+03 -6.7070003343629924e+03 0.0000000000000000e+00 0.0000000000000000e+00 0.0000000000000000e+00 0.0000000000000000e+00  -6.7356248304772025e+03 6.0741325258791294e+03 0.0000000000000000e+00 6.0741325258791367e+03 -3.8801489933823550e+03 0.0000000000000000e+00 0.0000000000000000e+00 0.0000000000000000e+00 0.0000000000000000e+00  -5.5236515293643288e+03 5.9638127631040206e+03 0.0000000000000000e+00 5.9638127631040379e+03 -6.8208068823599888e+03 0.0000000000000000e+00 0.0000000000000000e+00 0.0000000000000000e+00 0.0000000000000000e+00  -4.4978072598331219e+03 -6.0767903428315931e+03 0.0000000000000000e+00 -6.0767903428315885e+03 -5.1088345247623547e+03 0.0000000000000000e+00 0.0000000000000000e+00 0.0000000000000000e+00 0.0000000000000000e+00  -9.3304097683510645e+03 -6.1006551167043945e+03 0.0000000000000000e+00 -6.1006551167044045e+03 -7.9578868358002965e+03 0.0000000000000000e+00 0.0000000000000000e+00 0.0000000000000000e+00 0.0000000000000000e+00  -3.5871769722979643e+03 -5.8213835050339121e+03 0.0000000000000000e+00 -5.8213835050339039e+03 -5.1601210565121000e+03 0.0000000000000000e+00 0.0000000000000000e+00 0.0000000000000000e+00 0.0000000000000000e+00  3.5597891261699846e+02 4.4912247583734633e+01 0.0000000000000000e+00 4.4912247583734768e+01 1.0053795456382572e+03 0.0000000000000000e+00 0.0000000000000000e+00 0.0000000000000000e+00 0.0000000000000000e+00  7.3772472653229046e+00 5.4368572151276773e+00 0.0000000000000000e+00 5.4368572151276719e+00 -7.6843173001366729e+00 0.0000000000000000e+00 0.0000000000000000e+00 0.0000000000000000e+00 0.0000000000000000e+00  -6.2751558766583830e+00 1.5851357811350215e+00 0.0000000000000000e+00 1.5851357811350246e+00 3.9048206854130685e+00 0.0000000000000000e+00 0.0000000000000000e+00 0.0000000000000000e+00 0.0000000000000000e+00  -5.5995574863993298e+01 3.9617906314035530e+01 0.0000000000000000e+00 3.9617906314035508e+01 -2.2348683739453779e+01 0.0000000000000000e+00 0.0000000000000000e+00 0.0000000000000000e+00 0.0000000000000000e+00  -5.3686752577304526e+02 4.1708442920296307e+02 0.0000000000000000e+00 4.1708442920296295e+02 -4.4677079015177674e+02 0.0000000000000000e+00 0.0000000000000000e+00 0.0000000000000000e+00 0.0000000000000000e+00  1.1381230910124088e+02 1.4981387206936471e+01 0.0000000000000000e+00 1.4981387206936411e+01 5.8980384814585616e+00 0.0000000000000000e+00 0.0000000000000000e+00 0.0000000000000000e+00 0.0000000000000000e+00  7.2379007595335743e+03 -3.7452119021415416e+02 0.0000000000000000e+00 -3.7452119021415319e+02 2.0183130341706285e+04 0.0000000000000000e+00 0.0000000000000000e+00 0.0000000000000000e+00 0.0000000000000000e+00  3.2653297863834958e+01 -6.0770880115081830e+01 0.0000000000000000e+00 -6.0770880115081525e+01 -1.9780514925329264e+01 0.0000000000000000e+00 0.0000000000000000e+00 0.0000000000000000e+00 0.0000000000000000e+00  8.7343428775912855e+01 1.8448806023842434e+02 0.0000000000000000e+00 1.8448806023842420e+02 1.3072467212341346e+02 0.0000000000000000e+00 0.0000000000000000e+00 0.0000000000000000e+00 0.0000000000000000e+00  -3.0323962856417015e+01 -3.6220102620575425e+01 0.0000000000000000e+00 -3.6220102620575439e+01 -2.6120363193460264e+01 0.0000000000000000e+00 0.0000000000000000e+00 0.0000000000000000e+00 0.0000000000000000e+00  -2.8761875923646758e+00 -5.3664537131052258e-02 0.0000000000000000e+00 -5.3664537131057510e-02 1.3430544012694403e+00 0.0000000000000000e+00 0.0000000000000000e+00 0.0000000000000000e+00 0.0000000000000000e+00  -1.0339447452270150e+01 -8.5185712395741255e+00 0.0000000000000000e+00 -8.5185712395741344e+00 -1.5267799176216301e+00 0.0000000000000000e+00 0.0000000000000000e+00 0.0000000000000000e+00 0.0000000000000000e+00  -7.4673319895098217e+01 -1.5655727164309849e+02 0.0000000000000000e+00 -1.5655727164309843e+02 1.0710569397840445e+03 0.0000000000000000e+00 0.0000000000000000e+00 0.0000000000000000e+00 0.0000000000000000e+00  -4.8056662231194068e+03 5.7408680113448791e+03 0.0000000000000000e+00 5.7408680113448609e+03 -6.0355328865879728e+03 0.0000000000000000e+00 0.0000000000000000e+00 0.0000000000000000e+00 0.0000000000000000e+00  -7.4502323605035654e+03 6.2022691951779689e+03 0.0000000000000000e+00 6.2022691951779761e+03 -5.3395982836235216e+03 0.0000000000000000e+00 0.0000000000000000e+00 0.0000000000000000e+00 0.0000000000000000e+00  -5.1306381740715960e+03 5.8503632993687970e+03 0.0000000000000000e+00 5.8503632993687952e+03 -6.9571605652308117e+03 0.0000000000000000e+00 0.0000000000000000e+00 0.0000000000000000e+00 0.0000000000000000e+00  -5.8588465752268721e+03 -6.1360066153822027e+03 0.0000000000000000e+00 -6.1360066153822063e+03 -7.1096479782046499e+03 0.0000000000000000e+00 0.0000000000000000e+00 0.0000000000000000e+00 0.0000000000000000e+00  -7.3085536851321422e+03 -5.9213842477749295e+03 0.0000000000000000e+00 -5.9213842477749240e+03 -5.5547176393772625e+03 0.0000000000000000e+00 0.0000000000000000e+00 0.0000000000000000e+00 0.0000000000000000e+00  -3.7154636958313258e+03 -5.1144688636119072e+03 0.0000000000000000e+00 -5.1144688636119145e+03 -4.8263123193032934e+03 0.0000000000000000e+00 0.0000000000000000e+00 0.0000000000000000e+00 0.0000000000000000e+00  5.5545038569076631e+01 -3.5636805774131335e+02 0.0000000000000000e+00 -3.5636805774131636e+02 8.0488155478386625e+03 0.0000000000000000e+00 0.0000000000000000e+00 0.0000000000000000e+00 0.0000000000000000e+00  -1.1747639303735171e+02 4.9919410611596987e+01 0.0000000000000000e+00 4.9919410611596938e+01 -4.5198735497306878e+01 0.0000000000000000e+00 0.0000000000000000e+00 0.0000000000000000e+00 0.0000000000000000e+00  -8.0231983113376232e-02 1.2629849063402697e+01 0.0000000000000000e+00 1.2629849063402695e+01 6.5282714881454569e+02 0.0000000000000000e+00 0.0000000000000000e+00 0.0000000000000000e+00 0.0000000000000000e+00  -1.7384233842279755e+00 -1.7025515513742377e+01 0.0000000000000000e+00 -1.7025515513742423e+01 6.6440674276741697e+02 0.0000000000000000e+00 0.0000000000000000e+00 0.0000000000000000e+00 0.0000000000000000e+00  7.7195001693441029e+01 -2.3182806466289487e+00 0.0000000000000000e+00 -2.3182806466287698e+00 -2.3100871074887355e+01 0.0000000000000000e+00 0.0000000000000000e+00 0.0000000000000000e+00 0.0000000000000000e+00  -1.8936052949713339e+01 -2.3723107696585659e+00 0.0000000000000000e+00 -2.3723107696585757e+00 6.8241813336430168e-01 0.0000000000000000e+00 0.0000000000000000e+00 0.0000000000000000e+00 0.0000000000000000e+00  3.7957586252661468e-01 1.4871528637661653e+00 0.0000000000000000e+00 1.4871528637661673e+00 -1.2596454989189183e+00 0.0000000000000000e+00 0.0000000000000000e+00 0.0000000000000000e+00 0.0000000000000000e+00  -1.4683165385916539e+01 3.4631263679399213e-02 0.0000000000000000e+00 3.4631263679351224e-02 -4.1711782982436069e-01 0.0000000000000000e+00 0.0000000000000000e+00 0.0000000000000000e+00 0.0000000000000000e+00  -4.5961050099337058e+01 -7.1151455875524931e+01 0.0000000000000000e+00 -7.1151455875524917e+01 3.2965478110394713e+01 0.0000000000000000e+00 0.0000000000000000e+00 0.0000000000000000e+00 0.0000000000000000e+00  7.3065680745345077e+01 5.8914518551306202e+01 0.0000000000000000e+00 5.8914518551306237e+01 -2.1882443480735713e+01 0.0000000000000000e+00 0.0000000000000000e+00 0.0000000000000000e+00 0.0000000000000000e+00  -1.5848772257939990e+01 -7.0207080831629241e+01 0.0000000000000000e+00 -7.0207080831629156e+01 -5.8649572063622578e+01 0.0000000000000000e+00 0.0000000000000000e+00 0.0000000000000000e+00 0.0000000000000000e+00  -2.1805387676024520e+02 -1.7444830473654338e+02 0.0000000000000000e+00 -1.7444830473654341e+02 -1.9761061476684887e+02 0.0000000000000000e+00 0.0000000000000000e+00 0.0000000000000000e+00 0.0000000000000000e+00  -4.6691696451026829e+01 -3.1256778823379545e+01 0.0000000000000000e+00 -3.1256778823379545e+01 -1.4655795606096389e+01 0.0000000000000000e+00 0.0000000000000000e+00 0.0000000000000000e+00 0.0000000000000000e+00  1.1898790935510661e+00 5.4293669858111893e-01 0.0000000000000000e+00 5.4293669858111970e-01 5.8797109121326336e+00 0.0000000000000000e+00 0.0000000000000000e+00 0.0000000000000000e+00 0.0000000000000000e+00  -2.2773353003472585e+00 -4.1058937640633991e-01 0.0000000000000000e+00 -4.1058937640634030e-01 -3.4506488349444759e+00 0.0000000000000000e+00 0.0000000000000000e+00 0.0000000000000000e+00 0.0000000000000000e+00  -5.0977724496964811e+03 5.8253515933466015e+03 0.0000000000000000e+00 5.8253515933465887e+03 -5.8510855113939988e+03 0.0000000000000000e+00 0.0000000000000000e+00 0.0000000000000000e+00 0.0000000000000000e+00  -7.1062426751209887e+03 6.1932400656538330e+03 0.0000000000000000e+00 6.1932400656538348e+03 -5.7055055699730619e+03 0.0000000000000000e+00 0.0000000000000000e+00 0.0000000000000000e+00 0.0000000000000000e+00  -5.2382945578453700e+03 5.8807195793229421e+03 0.0000000000000000e+00 5.8807195793229448e+03 -6.8273563783432037e+03 0.0000000000000000e+00 0.0000000000000000e+00 0.0000000000000000e+00 0.0000000000000000e+00  -1.5507390425238663e+02 -3.1855522953428078e+02 0.0000000000000000e+00 -3.1855522953427965e+02 -1.1826119230965234e+04 0.0000000000000000e+00 0.0000000000000000e+00 0.0000000000000000e+00 0.0000000000000000e+00  -5.3020706811876789e+03 -6.0775916163688753e+03 0.0000000000000000e+00 -6.0775916163688689e+03 -5.9719198672344382e+03 0.0000000000000000e+00 0.0000000000000000e+00 0.0000000000000000e+00 0.0000000000000000e+00  -7.1881058657802159e+03 -6.0770575622693204e+03 0.0000000000000000e+00 -6.0770575622693341e+03 -4.9790138402966804e+03 0.0000000000000000e+00 0.0000000000000000e+00 0.0000000000000000e+00 0.0000000000000000e+00  -4.6825322730967728e+03 -5.2114283830185504e+03 0.0000000000000000e+00 -5.2114283830185359e+03 -6.8929692252287841e+03 0.0000000000000000e+00 0.0000000000000000e+00 0.0000000000000000e+00 0.0000000000000000e+00  -1.4741887099846979e+01 -4.3349762014086943e+00 0.0000000000000000e+00 -4.3349762014089501e+00 -2.4986912996925160e+01 0.0000000000000000e+00 0.0000000000000000e+00 0.0000000000000000e+00 0.0000000000000000e+00  9.1119814091006557e+00 2.9165691281894524e+00 0.0000000000000000e+00 2.9165691281894648e+00 6.6227880148854399e+02 0.0000000000000000e+00 0.0000000000000000e+00 0.0000000000000000e+00 0.0000000000000000e+00  1.5329950089709351e+02 1.2588526334247067e+02 0.0000000000000000e+00 1.2588526334247103e+02 7.8660995219705171e+02 0.0000000000000000e+00 0.0000000000000000e+00 0.0000000000000000e+00 0.0000000000000000e+00  -6.1345242029910205e+03 6.1548972744447155e+03 0.0000000000000000e+00 6.1548972744447146e+03 -5.4606473087408604e+03 0.0000000000000000e+00 0.0000000000000000e+00 0.0000000000000000e+00 0.0000000000000000e+00  -5.7450758789593165e+03 6.3628102932476095e+03 0.0000000000000000e+00 6.3628102932476149e+03 -8.5186317455711142e+03 0.0000000000000000e+00 0.0000000000000000e+00 0.0000000000000000e+00 0.0000000000000000e+00  -6.7711554943543288e+03 -5.9105708649060280e+03 0.0000000000000000e+00 -5.9105708649060307e+03 -5.8112047963529021e+03 0.0000000000000000e+00 0.0000000000000000e+00 0.0000000000000000e+00 0.0000000000000000e+00  -7.3004870296228555e+03 5.9752037660248170e+03 0.0000000000000000e+00 5.9752037660248116e+03 -3.7866357477531274e+03 0.0000000000000000e+00 0.0000000000000000e+00 0.0000000000000000e+00 0.0000000000000000e+00  -6.9717874714933068e+03 -5.9413602663247020e+03 0.0000000000000000e+00 -5.9413602663247038e+03 -8.0268391582738486e+03 0.0000000000000000e+00 0.0000000000000000e+00 0.0000000000000000e+00 0.0000000000000000e+00  -1.2821753529132409e+03 -1.2983366496491512e+03 0.0000000000000000e+00 -1.2983366496491540e+03 -1.0124184300642668e+03 0.0000000000000000e+00 0.0000000000000000e+00 0.0000000000000000e+00 0.0000000000000000e+00  -4.7130577382988286e+03 -6.1820299135604510e+03 0.0000000000000000e+00 -6.1820299135604510e+03 -3.8085488754778271e+03 0.0000000000000000e+00 0.0000000000000000e+00 0.0000000000000000e+00 0.0000000000000000e+00  -5.3304558092393336e+02 -6.0777560038826437e+02 0.0000000000000000e+00 -6.0777560038826539e+02 -1.1396869629910307e+03 0.0000000000000000e+00 0.0000000000000000e+00 0.0000000000000000e+00 0.0000000000000000e+00  4.0800204001053462e+03 3.3969253006344894e+02 0.0000000000000000e+00 3.3969253006344798e+02 1.6922189695911529e+04 0.0000000000000000e+00 0.0000000000000000e+00 0.0000000000000000e+00 0.0000000000000000e+00  -7.6825907061729811e+02 -6.3252833971565803e+02 0.0000000000000000e+00 -6.3252833971565758e+02 -3.4131802923103578e+02 0.0000000000000000e+00 0.0000000000000000e+00 0.0000000000000000e+00 0.0000000000000000e+00  -1.6009875183671209e+03 1.6132939595048392e+03 0.0000000000000000e+00 1.6132939595048372e+03 -1.2907558379448762e+03 0.0000000000000000e+00 0.0000000000000000e+00 0.0000000000000000e+00 0.0000000000000000e+00  -1.1792355115698181e+03 8.4158161547272766e+02 0.0000000000000000e+00 8.4158161547272721e+02 -6.4305268115552792e+02 0.0000000000000000e+00 0.0000000000000000e+00 0.0000000000000000e+00 0.0000000000000000e+00  8.9832241130318994e+02 -6.0623203801766033e+02 0.0000000000000000e+00 -6.0623203801765965e+02 1.2059261656380474e+02 0.0000000000000000e+00 0.0000000000000000e+00 0.0000000000000000e+00 0.0000000000000000e+00  -3.7929510934588934e+03 -6.0285751629984570e+03 0.0000000000000000e+00 -6.0285751629984597e+03 -5.5894429363568070e+03 0.0000000000000000e+00 0.0000000000000000e+00 0.0000000000000000e+00 0.0000000000000000e+00  1.1057117637034871e+03 1.6177470966884982e+02 0.0000000000000000e+00 1.6177470966884954e+02 1.0121342954304999e+04 0.0000000000000000e+00 0.0000000000000000e+00 0.0000000000000000e+00 0.0000000000000000e+00  -8.3816629706855292e+03 -6.0773427849405962e+03 0.0000000000000000e+00 -6.0773427849405916e+03 -6.1622604240700066e+03 0.0000000000000000e+00 0.0000000000000000e+00 0.0000000000000000e+00 0.0000000000000000e+00  -3.7672318820950427e+03 5.8896765147656060e+03 0.0000000000000000e+00 5.8896765147655997e+03 -6.4718383368457226e+03 0.0000000000000000e+00 0.0000000000000000e+00 0.0000000000000000e+00 0.0000000000000000e+00  -5.2449269964860714e+03 -5.9256333751529564e+03 0.0000000000000000e+00 -5.9256333751529583e+03 -6.6601950152439449e+03 0.0000000000000000e+00 0.0000000000000000e+00 0.0000000000000000e+00 0.0000000000000000e+00  -7.4855760482975093e+03 6.2236128198442766e+03 0.0000000000000000e+00 6.2236128198442757e+03 -4.7909054281807430e+03 0.0000000000000000e+00 0.0000000000000000e+00 0.0000000000000000e+00 0.0000000000000000e+00  2.8281467041721326e+03 5.5165616119066726e+03 0.0000000000000000e+00 5.5165616119066744e+03 -6.5583404761603861e+03 0.0000000000000000e+00 0.0000000000000000e+00 0.0000000000000000e+00 0.0000000000000000e+00  -6.1424629073965971e+03 5.9029897309381149e+03 0.0000000000000000e+00 5.9029897309381249e+03 -7.3451097285199212e+03 0.0000000000000000e+00 0.0000000000000000e+00 0.0000000000000000e+00 0.0000000000000000e+00  -1.7947017750117866e+04 9.9275737932575066e+03 0.0000000000000000e+00 9.9275737932575048e+03 -2.0229091055448112e+04 0.0000000000000000e+00 0.0000000000000000e+00 0.0000000000000000e+00 0.0000000000000000e+00  -1.4498845337505409e+02 5.1432882975966413e+02 0.0000000000000000e+00 5.1432882975966572e+02 -1.1852336291997164e+04 0.0000000000000000e+00 0.0000000000000000e+00 0.0000000000000000e+00 0.0000000000000000e+00  -1.9341025274403812e+03 -1.1675527695831336e+03 0.0000000000000000e+00 -1.1675527695831336e+03 9.3031064009454622e+03 0.0000000000000000e+00 0.0000000000000000e+00 0.0000000000000000e+00 0.0000000000000000e+00  -6.0720680976765971e+03 -6.3886955935721007e+03 0.0000000000000000e+00 -6.3886955935720925e+03 -7.8975989740617661e+03 0.0000000000000000e+00 0.0000000000000000e+00 0.0000000000000000e+00 0.0000000000000000e+00  9.8387255616715549e+02 -1.1416944136643197e+03 0.0000000000000000e+00 -1.1416944136643199e+03 1.3545101770114903e+04 0.0000000000000000e+00 0.0000000000000000e+00 0.0000000000000000e+00 0.0000000000000000e+00  -1.0409637083036598e+04 -8.8784434564470066e+03 0.0000000000000000e+00 -8.8784434564470066e+03 -1.7467546868699603e+04 0.0000000000000000e+00 0.0000000000000000e+00 0.0000000000000000e+00 0.0000000000000000e+00  -1.4999663077071928e+03 2.2123395651358047e+02 0.0000000000000000e+00 2.2123395651357310e+02 8.4776032978525582e+03 0.0000000000000000e+00 0.0000000000000000e+00 0.0000000000000000e+00 0.0000000000000000e+00  -5.7249445989344094e+03 5.9329550965902481e+03 0.0000000000000000e+00 5.9329550965902527e+03 -4.7396933952274212e+03 0.0000000000000000e+00 0.0000000000000000e+00 0.0000000000000000e+00 0.0000000000000000e+00  -8.9895308345036028e+03 6.0661924892401239e+03 0.0000000000000000e+00 6.0661924892401148e+03 -1.0939905728288468e+04 0.0000000000000000e+00 0.0000000000000000e+00 0.0000000000000000e+00 0.0000000000000000e+00  -6.3357008882084156e+03 -6.1024753823382562e+03 0.0000000000000000e+00 -6.1024753823382598e+03 -5.1645812478707639e+03 0.0000000000000000e+00 0.0000000000000000e+00 0.0000000000000000e+00 0.0000000000000000e+00  -3.9174620768643413e+03 6.0676177696700588e+03 0.0000000000000000e+00 6.0676177696700606e+03 -2.0120191870541453e+03 0.0000000000000000e+00 0.0000000000000000e+00 0.0000000000000000e+00 0.0000000000000000e+00  -8.6046155243451813e+03 -6.3028791124901327e+03 0.0000000000000000e+00 -6.3028791124901309e+03 -1.0784457728342592e+04 0.0000000000000000e+00 0.0000000000000000e+00 0.0000000000000000e+00 0.0000000000000000e+00  -1.4982685206658052e+03 -1.3584791755076124e+03 0.0000000000000000e+00 -1.3584791755076087e+03 -1.1308882551169609e+03 0.0000000000000000e+00 0.0000000000000000e+00 0.0000000000000000e+00 0.0000000000000000e+00  -4.0871464217142934e+03 -6.1441606497071098e+03 0.0000000000000000e+00 -6.1441606497071107e+03 -1.7800616411700262e+03 0.0000000000000000e+00 0.0000000000000000e+00 0.0000000000000000e+00 0.0000000000000000e+00  1.3527008303034347e+03 1.0034243499037350e+03 0.0000000000000000e+00 1.0034243499037323e+03