<?xml version="1.0"?>
<VTKFile type="UnstructuredGrid"  version="0.1"  >
<UnstructuredGrid>
<Piece  NumberOfPoints="4855" NumberOfCells="8780">
<Points>
<DataArray  type="Float64"  NumberOfComponents="3"  format="ascii">0.9483880164242298 0.6836931311526558 0  0.9494264999197789 0.6847056440044139 0  0.9494005292759887 0.6847228078606633 0  0.9735520289385229 0.7444444444444445 0  0.9494005292759886 0.8041660810282256 0  0.94942649991978 0.8041832448844759 0  0.9483880175070514 0.8051957566534116 0  3.131175874138137e-16 0.09811450876034808 0  0.06838800723463068 0.1543033514199101 0  0.05161198249294494 0.1948042433465922 0  0.0505735000802211 0.1958167551155251 0  0.05059947072401128 0.1958339189717744 0  0.0505994707240113 0.3152771921393367 0  0.05057350008021998 0.315294355995587 0  0.05161198357913653 0.3163068688507105 0  0.06838800723463068 0.356807759691201 0  3.252606517456513e-16 0.4129966023507631 0  -1.795438797635995e-16 0.4839416311832997 0  0.07083274769489223 0.4605116403870998 0  0.07084991155114129 0.4605376110308903 0  0.07186242331670639 0.4594991286215342 0  0.1696402113702762 0.5 0  0.07186242332008326 0.5405008713818427 0  0.0708499115511413 0.5394623889691096 0  0.07083274769489219 0.5394883596129002 0  -1.925543058334256e-16 0.5160583688167003 0  1.484923295436147e-15 0.5870033976492365 0  0.06838800723463068 0.643192240308799 0  0.05161198249294541 0.6836931322354806 0  0.05057350008022109 0.6847056440044139 0  0.0505994707240113 0.6847228078606633 0  0.0505994707240113 0.8041660810282256 0  0.05057350008021999 0.804183244884476 0  0.05161198249294764 0.8051957566534106 0  0.06838800723463068 0.84569664858009 0  1.485790657174135e-15 0.9018854912396524 0  0 1 0  1 1 0  0.9999999999999987 0.9018854912396523 0  1.000000000000001 0.5870033976492375 0  1 0.5160583688167003 0  0.9291672523051078 0.5394883596129003 0  0.9291500884488585 0.5394623889691117 0  0.9281375755937461 0.5405008724680134 0  0.9281375755937372 0.4594991275319777 0  0.9291500884488586 0.4605376110308884 0  0.9291672523051077 0.4605116403870997 0  1 0.4839416311832997 0  0.9999999999999987 0.4129966023507635 0  0.948388017507054 0.31630686776452 0  0.94942649991978 0.3152943559955871 0  0.9494005292759886 0.3152771921393367 0  0.9735520289385229 0.2555555555555555 0  0.9494005292759888 0.1958339189717744 0  0.9494264999197789 0.1958167551155251 0  0.9483880164208631 0.1948042422604003 0  1.000000000000001 0.09811450876034861 0  1 0 0  0 0 0  0.1958339189717744 0.2950439151684559 0  0.1958167551155252 0.2950179445246672 0  0.3152771921393367 0.2950439151684557 0  0.1948042433481841 0.2960564269357975 0  0.3152943559955858 0.2950179445246651 0  0.1948042422604031 0.2150546830875326 0  0.3163068677645244 0.2960564269373949 0  0.1958167551155251 0.2160931665864439 0  0.4140846558147206 0.2555555555555555 0  0.1958339189717744 0.2160671959426553 0  0.3163068688489276 0.215054683089313 0  0.3152771921393367 0.2160671959426553 0  0.3152943559955858 0.2160931665864459 0  0.5405008724680257 0.3163068688507107 0  0.5572768961235196 0.356807759691201 0  0.5394623889691089 0.3152943559955871 0  0.459499128618165 0.3163068677645201 0  0.5394883596129003 0.3152771921393367 0  0.4605376110308911 0.3152943559955871 0  0.5394883596129001 0.1958339189717744 0  0.4605116403870998 0.3152771921393367 0  0.53946238896911 0.1958167551155251 0  0.4846631400496339 0.2555555555555555 0  0.5405008724680251 0.1948042422604009 0  0.4605116403870998 0.1958339189717744 0  0.5572768961235196 0.1543033514199101 0  0.46053761103089 0.1958167551155251 0  0.4594991286269881 0.1948042433554141 0  0.6847228078606633 0.2950439151684559 0  0.684705644004414 0.2950179445246672 0  0.8041660810282256 0.2950439151684557 0  0.683693131164073 0.2960564280087975 0  0.8041832448844747 0.2950179445246651 0  0.6836931322354718 0.2150546841737125 0  0.8051957566534156 0.2960564269373971 0  0.6847056440044141 0.2160931665864439 0  0.9029735447036096 0.2555555555555555 0  0.6847228078606632 0.2160671959426553 0  0.8051957577274008 0.2150546830997286 0  0.8041660810282256 0.2160671959426553 0  0.8041832448844747 0.2160931665864459 0  0.2960564280235811 0.560751313295155 0  0.3128324516790751 0.6012522041356455 0  0.2950179445246645 0.5597388004400315 0  0.2150546830875235 0.5607513132951615 0  0.2950439151684557 0.5597216365837812 0  0.2160931665864466 0.5597388004400314 0  0.2950439151684558 0.4402783634162188 0  0.2160671959426553 0.5597216365837812 0  0.2950179445246656 0.4402611995599696 0  0.2402186956051895 0.5 0  0.29605642693739 0.439248687791036 0  0.2160671959426553 0.4402783634162189 0  0.3128324516790751 0.3987477958643545 0  0.2160931665864455 0.4402611995599696 0  0.2150546830875296 0.4392486867048446 0  0.1958339189717743 0.7839328040573448 0  0.1958167551155252 0.7839068334135562 0  0.3152771921393367 0.7839328040573447 0  0.1948042422604028 0.7849453169124678 0  0.3152943559955858 0.783906833413554 0  0.1948042433465913 0.7039435730626098 0  0.3163068677645284 0.7849453158262878 0  0.1958167551155251 0.7049820554753328 0  0.4140846558147206 0.7444444444444445 0  0.1958339189717744 0.7049560848315441 0  0.3163068688486237 0.7039435719785058 0  0.3152771921393367 0.7049560848315441 0  0.3152943559955858 0.7049820554753349 0  0.4402783634162188 0.5394883596129003 0  0.4402611995599696 0.5394623889691117 0  0.5597216365837812 0.5394883596129002 0  0.4392486867048468 0.5405008724680237 0  0.5597388004400302 0.5394623889691096 0  0.4392486877998708 0.4594991286270004 0  0.5607513122089726 0.540500871381843 0  0.4402611995599696 0.4605376110308884 0  0.6585291002591651 0.5 0  0.4402783634162188 0.4605116403870998 0  0.5607513121946796 0.45949912863245 0  0.5597216365837812 0.4605116403870998 0  0.5597388004400302 0.4605376110308904 0  0.78494531690701 0.5607513132896949 0  0.8017213405679641 0.6012522041356455 0  0.7839068334135535 0.5597388004400315 0  0.7039435730626069 0.5607513122089671 0  0.7839328040573448 0.5597216365837812 0  0.7049820554753355 0.5597388004400314 0  0.7839328040573448 0.4402783634162188 0  0.7049560848315441 0.5597216365837812 0  0.7839068334135545 0.4402611995599696 0  0.7291075844940784 0.5 0  0.784945315826279 0.4392486877910359 0  0.7049560848315444 0.4402783634162188 0  0.8017213405679641 0.3987477958643545 0  0.7049820554753344 0.4402611995599696 0  0.7039435719764182 0.4392486867048443 0  0.5405008724625655 0.8051957577341393 0  0.5572768961235196 0.84569664858009 0  0.539462388969109 0.804183244884476 0  0.4594991286181648 0.8051957566534091 0  0.5394883596129003 0.8041660810282256 0  0.4605376110308911 0.804183244884476 0  0.5394883596129003 0.6847228078606633 0  0.4605116403870998 0.8041660810282256 0  0.53946238896911 0.6847056440044139 0  0.4846631400496339 0.7444444444444445 0  0.5405008713818347 0.6836931322354802 0  0.4605116403870998 0.6847228078606633 0  0.5572768961235196 0.643192240308799 0  0.46053761103089 0.6847056440044139 0  0.4594991275353449 0.6836931311526599 0  0.6847228078606633 0.7839328040573448 0  0.684705644004414 0.7839068334135562 0  0.8041660810282256 0.7839328040573447 0  0.6836931311493016 0.7849453169124578 0  0.8041832448844747 0.783906833413554 0  0.68369313223548 0.7039435730626096 0  0.805195756653417 0.7849453158262875 0  0.6847056440044141 0.7049820554753328 0  0.9029735447036096 0.7444444444444445 0  0.6847228078606633 0.7049560848315441 0  0.805195757738809 0.7039435719772094 0  0.8041660810282256 0.7049560848315441 0  0.8041832448844747 0.7049820554753349 0  0.9578164230213342 0.6948838683471341 0  0.9645772892192558 0.7062137009141434 0  0.9695236884064815 0.7184451175460498 0  0.972538971146615 0.7312896684428197 0  0.9725389711466151 0.7575992204460691 0  0.9695236884064815 0.7704437713428391 0  0.9645772892192558 0.7826751879747456 0  0.9578164230213342 0.7940050205417549 0  0.01437766570919127 0.09711967848259151 0  0.02854851642641832 0.09974531144948819 0  0.04161535472570586 0.1058251712658871 0  0.05275088139110013 0.1149743244732108 0  0.06125007411586489 0.1266135117968212 0  0.06657482449792251 0.1400058227212122 0  0.06643634307317195 0.1691277076584997 0  0.06071435336153361 0.1829418078690686 0  0.04134737123322858 0.3039103077764334 0  0.03416190609801732 0.2911362521989113 0  0.02925217947541549 0.2773267630846004 0  0.02676106927623143 0.2628837102534819 0  0.02676106927623143 0.2482274008576293 0  0.02925217947541547 0.2337843480265108 0  0.03416190609801727 0.2199748589121999 0  0.04134737123322851 0.2072008033346779 0  0.06071435387356935 0.328169304128914 0  0.06643634320569657 0.3419834039471998 0  0.06657482449792249 0.371105288389899 0  0.06125007411586481 0.3844975993142901 0  0.05275088139109994 0.3961367866379005 0  0.04161535472570563 0.4052859398452242 0  0.02854851642641818 0.411365799661623 0  0.01437766570919127 0.4139914326285196 0  0 0.4697526254167924 0  0 0.455563619650285 0  0 0.4413746138837777 0  0 0.4271856081172704 0  0.06095233986089402 0.4687284952262988 0  0.04995687430503332 0.4753797281664747 0  0.03809234373417287 0.4803165365228644 0  0.02562418374773841 0.4834284730529493 0  0.01283133446055119 0.4846459169037758 0  0.08372485599813187 0.4503967593658507 0  0.09753895276796982 0.4446747697099958 0  0.1123633055586467 0.4427231038764812 0  0.1271876590095525 0.4446747646950606 0  0.1410017577150834 0.45039674967774 0  0.1528641934757506 0.4594991149204779 0  0.161966560724962 0.471361549141524 0  0.1676885480442292 0.4851756468792086 0  0.1676885480443665 0.514824353120279 0  0.1619665607254926 0.528638450857557 0  0.1528641934768762 0.5405008850783964 0  0.1410017577169217 0.5496032503211987 0  0.1271876590121153 0.5553252353042526 0  0.1123633055618306 0.5572768961235188 0  0.09753895277155772 0.5553252302909656 0  0.08372485600180817 0.5496032406362719 0  0.0128313344605512 0.5153540830962242 0  0.0256241837477384 0.5165715269470507 0  0.03809234373417282 0.5196834634771356 0  0.04995687430503334 0.5246202718335253 0  0.06095233986089401
[...]
<PointData  Tensors="$\sigma$"> 
<DataArray  type="Float64"  Name="$\sigma$"  NumberOfComponents="9" format="ascii">-4.4937355390318062e+03 -5.8369459489787923e+03 0.0000000000000000e+00 -5.8369459489788051e+03 -5.5585779132626312e+03 0.0000000000000000e+00 0.0000000000000000e+00 0.0000000000000000e+00 0.0000000000000000e+00  -7.9741789478446817e+03 -6.1558773809170098e+03 0.0000000000000000e+00 -6.1558773809169988e+03 -6.6422332424681072e+03 0.0000000000000000e+00 0.0000000000000000e+00 0.0000000000000000e+00 0.0000000000000000e+00  -5.0453483688521255e+03 -5.9494904124146442e+03 0.0000000000000000e+00 -5.9494904124146460e+03 -6.1237328060083264e+03 0.0000000000000000e+00 0.0000000000000000e+00 0.0000000000000000e+00 0.0000000000000000e+00  1.2667580221901208e+02 -2.3702103062630232e+02 0.0000000000000000e+00 -2.3702103062630260e+02 -1.1615051833713476e+04 0.0000000000000000e+00 0.0000000000000000e+00 0.0000000000000000e+00 0.0000000000000000e+00  -5.5080291754570680e+03 6.0521927558324778e+03 0.0000000000000000e+00 6.0521927558324933e+03 -6.6252593572783617e+03 0.0000000000000000e+00 0.0000000000000000e+00 0.0000000000000000e+00 0.0000000000000000e+00  -7.9195196431789791e+03 5.8783335588270220e+03 0.0000000000000000e+00 5.8783335588270111e+03 -5.7307366918665575e+03 0.0000000000000000e+00 0.0000000000000000e+00 0.0000000000000000e+00 0.0000000000000000e+00  -3.6841772366623059e+03 5.5388816636388665e+03 0.0000000000000000e+00 5.5388816636388628e+03 -5.4071566655228653e+03 0.0000000000000000e+00 0.0000000000000000e+00 0.0000000000000000e+00 0.0000000000000000e+00  8.9830316360796147e+01 4.8203134564028076e+00 0.0000000000000000e+00 4.8203134564028298e+00 3.7308768840388765e+01 0.0000000000000000e+00 0.0000000000000000e+00 0.0000000000000000e+00 0.0000000000000000e+00  -6.1344969386821582e+01 7.0874335130252973e+01 0.0000000000000000e+00 7.0874335130251765e+01 8.3376402026902015e+03 0.0000000000000000e+00 0.0000000000000000e+00 0.0000000000000000e+00 0.0000000000000000e+00  -4.5358423652049987e+03 4.8587197148577370e+03 0.0000000000000000e+00 4.8587197148577334e+03 -6.8212601949156251e+03 0.0000000000000000e+00 0.0000000000000000e+00 0.0000000000000000e+00 0.0000000000000000e+00  -6.5623690572273708e+03 6.0327964988914819e+03 0.0000000000000000e+00 6.0327964988914891e+03 -3.6378219840921370e+03 0.0000000000000000e+00 0.0000000000000000e+00 0.0000000000000000e+00 0.0000000000000000e+00  -5.5915112546915725e+03 5.9717935724349600e+03 0.0000000000000000e+00 5.9717935724349754e+03 -6.8659162615876176e+03 0.0000000000000000e+00 0.0000000000000000e+00 0.0000000000000000e+00 0.0000000000000000e+00  -4.4585824865029372e+03 -6.0983119783500615e+03 0.0000000000000000e+00 -6.0983119783500624e+03 -5.0658117370308237e+03 0.0000000000000000e+00 0.0000000000000000e+00 0.0000000000000000e+00 0.0000000000000000e+00  -9.5391717987045467e+03 -6.1262273773244951e+03 0.0000000000000000e+00 -6.1262273773244979e+03 -8.4544386475646697e+03 0.0000000000000000e+00 0.0000000000000000e+00 0.0000000000000000e+00 0.0000000000000000e+00  -3.5145121413898560e+03 -5.8625986427033940e+03 0.0000000000000000e+00 -5.8625986427033849e+03 -4.7806645984483212e+03 0.0000000000000000e+00 0.0000000000000000e+00 0.0000000000000000e+00 0.0000000000000000e+00  3.5618213713737396e+02 6.2977711717189806e+01 0.0000000000000000e+00 6.2977711717190424e+01 9.9351715904316757e+02 0.0000000000000000e+00 0.0000000000000000e+00 0.0000000000000000e+00 0.0000000000000000e+00  9.0490825804438799e+00 6.2203348593434393e+00 0.0000000000000000e+00 6.2203348593434304e+00 -7.5045657980068610e+00 0.0000000000000000e+00 0.0000000000000000e+00 0.0000000000000000e+00 0.0000000000000000e+00  -7.2747060732733821e+00 1.7099735881421885e+00 0.0000000000000000e+00 1.7099735881421918e+00 4.0016347206489469e+00 0.0000000000000000e+00 0.0000000000000000e+00 0.0000000000000000e+00 0.0000000000000000e+00  -6.0139914176115170e+01 4.2243259966525827e+01 0.0000000000000000e+00 4.2243259966525791e+01 -2.4902556252236558e+01 0.0000000000000000e+00 0.0000000000000000e+00 0.0000000000000000e+00 0.0000000000000000e+00  -6.2385933900477221e+02 5.0123687469755367e+02 0.0000000000000000e+00 5.0123687469755367e+02 -5.3120883601897344e+02 0.0000000000000000e+00 0.0000000000000000e+00 0.0000000000000000e+00 0.0000000000000000e+00  1.2345770128373465e+02 8.1854624361082262e+00 0.0000000000000000e+00 8.1854624361081694e+00 1.4297421811163268e+01 0.0000000000000000e+00 0.0000000000000000e+00 0.0000000000000000e+00 0.0000000000000000e+00  7.3757846749293922e+03 -3.9130275911700352e+02 0.0000000000000000e+00 -3.9130275911700403e+02 2.0323220129594316e+04 0.0000000000000000e+00 0.0000000000000000e+00 0.0000000000000000e+00 0.0000000000000000e+00  3.6112099182884890e+01 -5.7644503232952779e+01 0.0000000000000000e+00 -5.7644503232952516e+01 -1.8760684649697495e+01 0.0000000000000000e+00 0.0000000000000000e+00 0.0000000000000000e+00 0.0000000000000000e+00  8.0732775899043773e+01 1.7963011158960632e+02 0.0000000000000000e+00 1.7963011158960614e+02 1.2935358471883436e+02 0.0000000000000000e+00 0.0000000000000000e+00 0.0000000000000000e+00 0.0000000000000000e+00  -3.1082664888171262e+01 -3.8229953793215429e+01 0.0000000000000000e+00 -3.8229953793215444e+01 -2.9547456716457472e+01 0.0000000000000000e+00 0.0000000000000000e+00 0.0000000000000000e+00 0.0000000000000000e+00  -4.1039346927595881e+00 -3.6313497818070434e-01 0.0000000000000000e+00 -3.6313497818070944e-01 5.9792214204128014e-01 0.0000000000000000e+00 0.0000000000000000e+00 0.0000000000000000e+00 0.0000000000000000e+00  -1.0451209381484045e+01 -8.4383780015792222e+00 0.0000000000000000e+00 -8.4383780015792347e+00 -1.9444728662181949e+00 0.0000000000000000e+00 0.0000000000000000e+00 0.0000000000000000e+00 0.0000000000000000e+00  -9.6269917457437188e+01 -1.8370350351921306e+02 0.0000000000000000e+00 -1.8370350351921343e+02 1.0441936641895161e+03 0.0000000000000000e+00 0.0000000000000000e+00 0.0000000000000000e+00 0.0000000000000000e+00  -4.8888573825346712e+03 5.7671175616441751e+03 0.0000000000000000e+00 5.7671175616441578e+03 -5.9194346203160731e+03 0.0000000000000000e+00 0.0000000000000000e+00 0.0000000000000000e+00 0.0000000000000000e+00  -7.4464321829584615e+03 6.2277108987060365e+03 0.0000000000000000e+00 6.2277108987060428e+03 -5.4873760979567578e+03 0.0000000000000000e+00 0.0000000000000000e+00 0.0000000000000000e+00 0.0000000000000000e+00  -5.1555365541448982e+03 5.8681006391051715e+03 0.0000000000000000e+00 5.8681006391051669e+03 -6.9985895698589038e+03 0.0000000000000000e+00 0.0000000000000000e+00 0.0000000000000000e+00 0.0000000000000000e+00  -5.9382390587547306e+03 -6.1269810866052421e+03 0.0000000000000000e+00 -6.1269810866052385e+03 -7.0738219712050613e+03 0.0000000000000000e+00 0.0000000000000000e+00 0.0000000000000000e+00 0.0000000000000000e+00  -7.2925907735062574e+03 -5.9102692412553679e+03 0.0000000000000000e+00 -5.9102692412553570e+03 -5.5573712319303313e+03 0.0000000000000000e+00 0.0000000000000000e+00 0.0000000000000000e+00 0.0000000000000000e+00  -3.6473791947440704e+03 -5.1443994623087929e+03 0.0000000000000000e+00 -5.1443994623088038e+03 -4.8386305557660935e+03 0.0000000000000000e+00 0.0000000000000000e+00 0.0000000000000000e+00 0.0000000000000000e+00  5.8297102586386828e+01 -3.5693498842082113e+02 0.0000000000000000e+00 -3.5693498842082352e+02 8.0743126947595210e+03 0.0000000000000000e+00 0.0000000000000000e+00 0.0000000000000000e+00 0.0000000000000000e+00  -1.1949681795794929e+02 5.0765086341526136e+01 0.0000000000000000e+00 5.0765086341526093e+01 -4.5442539664699659e+01 0.0000000000000000e+00 0.0000000000000000e+00 0.0000000000000000e+00 0.0000000000000000e+00  -8.9059510118910834e-01 1.3090542139853047e+01 0.0000000000000000e+00 1.3090542139853046e+01 6.5465412705049096e+02 0.0000000000000000e+00 0.0000000000000000e+00 0.0000000000000000e+00 0.0000000000000000e+00  -2.2754111006335136e+00 -1.7385912923367133e+01 0.0000000000000000e+00 -1.7385912923367190e+01 6.6644198237812191e+02 0.0000000000000000e+00 0.0000000000000000e+00 0.0000000000000000e+00 0.0000000000000000e+00  7.9685092101789735e+01 -2.2215325018571774e+00 0.0000000000000000e+00 -2.2215325018569696e+00 -2.3747851075010534e+01 0.0000000000000000e+00 0.0000000000000000e+00 0.0000000000000000e+00 0.0000000000000000e+00  -2.0747067617026698e+01 -2.1845106242420713e+00 0.0000000000000000e+00 -2.1845106242420855e+00 1.4196082214580732e+00 0.0000000000000000e+00 0.0000000000000000e+00 0.0000000000000000e+00 0.0000000000000000e+00  2.2764022993080574e-01 1.8414114603930369e+00 0.0000000000000000e+00 1.8414114603930403e+00 -1.7472748678375938e+00 0.0000000000000000e+00 0.0000000000000000e+00 0.0000000000000000e+00 0.0000000000000000e+00  -1.3219478208292424e+01 -2.7986432161951482e+00 0.0000000000000000e+00 -2.7986432161952148e+00 2.9266465253822878e+00 0.0000000000000000e+00 0.0000000000000000e+00 0.0000000000000000e+00 0.0000000000000000e+00  -4.1617689489444302e+01 -7.5129105381556698e+01 0.0000000000000000e+00 -7.5129105381556741e+01 4.0959096134019823e+01 0.0000000000000000e+00 0.0000000000000000e+00 0.0000000000000000e+00 0.0000000000000000e+00  7.5781447411051190e+01 5.7150754072751859e+01 0.0000000000000000e+00 5.7150754072751923e+01 -2.5103618226806407e+01 0.0000000000000000e+00 0.0000000000000000e+00 0.0000000000000000e+00 0.0000000000000000e+00  -1.6532237901157515e+01 -7.1147297517596868e+01 0.0000000000000000e+00 -7.1147297517596797e+01 -5.6809667659729101e+01 0.0000000000000000e+00 0.0000000000000000e+00 0.0000000000000000e+00 0.0000000000000000e+00  -2.2036939942461098e+02 -1.7676740343847257e+02 0.0000000000000000e+00 -1.7676740343847268e+02 -2.0106759775405217e+02 0.0000000000000000e+00 0.0000000000000000e+00 0.0000000000000000e+00 0.0000000000000000e+00  -4.6582283479947705e+01 -3.0820535729570452e+01 0.0000000000000000e+00 -3.0820535729570476e+01 -1.5744787617979386e+01 0.0000000000000000e+00 0.0000000000000000e+00 0.0000000000000000e+00 0.0000000000000000e+00  1.8631447884818513e+00 8.3543573760647127e-01 0.0000000000000000e+00 8.3543573760647205e-01 6.8260178555163185e+00 0.0000000000000000e+00 0.0000000000000000e+00 0.0000000000000000e+00 0.0000000000000000e+00  -1.6872697095017837e+00 6.7979850578318374e-02 0.0000000000000000e+00 6.7979850578318693e-02 -3.3233547609914122e+00 0.0000000000000000e+00 0.0000000000000000e+00 0.0000000000000000e+00 0.0000000000000000e+00  -5.1712042272737435e+03 5.8633504828426885e+03 0.0000000000000000e+00 5.8633504828426758e+03 -5.7799312056204781e+03 0.0000000000000000e+00 0.0000000000000000e+00 0.0000000000000000e+00 0.0000000000000000e+00  -7.1779966031709255e+03 6.2347006791836848e+03 0.0000000000000000e+00 6.2347006791836920e+03 -5.8061820654813364e+03 0.0000000000000000e+00 0.0000000000000000e+00 0.0000000000000000e+00 0.0000000000000000e+00  -5.1959388245681166e+03 5.8818338289287913e+03 0.0000000000000000e+00 5.8818338289287913e+03 -6.9137367602828408e+03 0.0000000000000000e+00 0.0000000000000000e+00 0.0000000000000000e+00 0.0000000000000000e+00  -1.8267945712883028e+02 -3.8563382896931915e+02 0.0000000000000000e+00 -3.8563382896931893e+02 -1.1881380481074444e+04 0.0000000000000000e+00 0.0000000000000000e+00 0.0000000000000000e+00 0.0000000000000000e+00  -5.3300488460722909e+03 -6.0709387958777643e+03 0.0000000000000000e+00 -6.0709387958777570e+03 -5.8160357363537241e+03 0.0000000000000000e+00 0.0000000000000000e+00 0.0000000000000000e+00 0.0000000000000000e+00  -7.1143803020797795e+03 -6.0764952066933920e+03 0.0000000000000000e+00 -6.0764952066934056e+03 -4.9947378673168259e+03 0.0000000000000000e+00 0.0000000000000000e+00 0.0000000000000000e+00 0.0000000000000000e+00  -4.7330505844396585e+03 -5.2502158093128664e+03 0.0000000000000000e+00 -5.2502158093128492e+03 -7.0280289313098019e+03 0.0000000000000000e+00 0.0000000000000000e+00 0.0000000000000000e+00 0.0000000000000000e+00  -1.2288149819047113e+01 -5.4577143930542817e+00 0.0000000000000000e+00 -5.4577143930545438e+00 -2.6107753804379222e+01 0.0000000000000000e+00 0.0000000000000000e+00 0.0000000000000000e+00 0.0000000000000000e+00  9.8217019825741598e+00 2.3964826950545661e+00 0.0000000000000000e+00 2.3964826950545706e+00 6.6480251858098859e+02 0.0000000000000000e+00 0.0000000000000000e+00 0.0000000000000000e+00 0.0000000000000000e+00  1.5352851765782671e+02 1.2612157345897097e+02 0.0000000000000000e+00 1.2612157345897138e+02 7.8838180655474548e+02 0.0000000000000000e+00 0.0000000000000000e+00 0.0000000000000000e+00 0.0000000000000000e+00  -6.0097814152903575e+03 6.1745419949377319e+03 0.0000000000000000e+00 6.1745419949377338e+03 -5.3140619339340228e+03 0.0000000000000000e+00 0.0000000000000000e+00 0.0000000000000000e+00 0.0000000000000000e+00  -6.0946540849968123e+03 6.3844126584708210e+03 0.0000000000000000e+00 6.3844126584708210e+03 -8.8837222800160107e+03 0.0000000000000000e+00 0.0000000000000000e+00 0.0000000000000000e+00 0.0000000000000000e+00  -6.8809455225215488e+03 -5.9199631398044130e+03 0.0000000000000000e+00 -5.9199631398044157e+03 -5.9405106313456590e+03 0.0000000000000000e+00 0.0000000000000000e+00 0.0000000000000000e+00 0.0000000000000000e+00  -7.1410558520516797e+03 5.9859380437749678e+03 0.0000000000000000e+00 5.9859380437749678e+03 -3.6066715625670199e+03 0.0000000000000000e+00 0.0000000000000000e+00 0.0000000000000000e+00 0.0000000000000000e+00  -6.6059326115053145e+03 -5.9760688380612391e+03 0.0000000000000000e+00 -5.9760688380612382e+03 -7.7357604749960346e+03 0.0000000000000000e+00 0.0000000000000000e+00 0.0000000000000000e+00 0.0000000000000000e+00  -1.2874730653164775e+03 -1.3070283125852186e+03 0.0000000000000000e+00 -1.3070283125852218e+03 -1.0197765551823289e+03 0.0000000000000000e+00 0.0000000000000000e+00 0.0000000000000000e+00 0.0000000000000000e+00  -5.0091236793076305e+03 -6.1736122043637288e+03 0.0000000000000000e+00 -6.1736122043637215e+03 -4.0065922123128666e+03 0.0000000000000000e+00 0.0000000000000000e+00 0.0000000000000000e+00 0.0000000000000000e+00  -5.6408438639614064e+02 -6.4326601527975401e+02 0.0000000000000000e+00 -6.4326601527975492e+02 -1.1818859275806551e+03 0.0000000000000000e+00 0.0000000000000000e+00 0.0000000000000000e+00 0.0000000000000000e+00  4.1584467280885219e+03 3.3015305941357445e+02 0.0000000000000000e+00 3.3015305941357445e+02 1.7018442301897721e+04 0.0000000000000000e+00 0.0000000000000000e+00 0.0000000000000000e+00 0.0000000000000000e+00  -7.7814907019895873e+02 -6.3366270076147248e+02 0.0000000000000000e+00 -6.3366270076147157e+02 -3.3658217967919342e+02 0.0000000000000000e+00 0.0000000000000000e+00 0.0000000000000000e+00 0.0000000000000000e+00  -1.6458813588274570e+03 1.6464937120772888e+03 0.0000000000000000e+00 1.6464937120772875e+03 -1.3051347722873425e+03 0.0000000000000000e+00 0.0000000000000000e+00 0.0000000000000000e+00 0.0000000000000000e+00  -1.1681652707772107e+03 8.3820918762201154e+02 0.0000000000000000e+00 8.3820918762201097e+02 -6.4537526485717206e+02 0.0000000000000000e+00 0.0000000000000000e+00 0.0000000000000000e+00 0.0000000000000000e+00  1.0722916886703904e+03 -7.7326922100260470e+02 0.0000000000000000e+00 -7.7326922100260458e+02 2.7233838818149883e+02 0.0000000000000000e+00 0.0000000000000000e+00 0.0000000000000000e+00 0.0000000000000000e+00  -3.6874970164784754e+03 -6.0174777214738142e+03 0.0000000000000000e+00 -6.0174777214738142e+03 -5.6251746359514800e+03 0.0000000000000000e+00 0.0000000000000000e+00 0.0000000000000000e+00 0.0000000000000000e+00  1.1645526981118653e+03 2.2046195265725046e+02 0.0000000000000000e+00 2.2046195265725032e+02 1.0314160792441318e+04 0.0000000000000000e+00 0.0000000000000000e+00 0.0000000000000000e+00 0.0000000000000000e+00  -8.5550905559413695e+03 -6.1048113054954165e+03 0.0000000000000000e+00 -6.1048113054954129e+03 -6.2624198343300677e+03 0.0000000000000000e+00 0.0000000000000000e+00 0.0000000000000000e+00 0.0000000000000000e+00  -3.5986638396924222e+03 5.8961877210347548e+03 0.0000000000000000e+00 5.8961877210347520e+03 -6.4992647510500929e+03 0.0000000000000000e+00 0.0000000000000000e+00 0.0000000000000000e+00 0.0000000000000000e+00  -5.2335732813110180e+03 -5.9496132300012159e+03 0.0000000000000000e+00 -5.9496132300012232e+03 -6.5882205512328801e+03 0.0000000000000000e+00 0.0000000000000000e+00 0.0000000000000000e+00 0.0000000000000000e+00  -7.6725396953849822e+03 6.2466189450159727e+03 0.0000000000000000e+00 6.2466189450159673e+03 -4.8809936374292101e+03 0.0000000000000000e+00 0.0000000000000000e+00 0.0000000000000000e+00 0.0000000000000000e+00  3.0463441877183359e+03 5.4868434598919639e+03 0.0000000000000000e+00 5.4868434598919657e+03 -6.4563550900896589e+03 0.0000000000000000e+00 0.0000000000000000e+00 0.0000000000000000e+00 0.0000000000000000e+00  -6.1846264238721533e+03 5.9404396065241262e+03 0.0000000000000000e+00 5.9404396065241326e+03 -7.3244635104219597e+03 0.0000000000000000e+00 0.0000000000000000e+00 0.0000000000000000e+00 0.0000000000000000e+00  -1.8172144548046526e+04 9.9806324837889606e+03 0.0000000000000000e+00 9.9806324837889588e+03 -2.0380009680885771e+04 0.0000000000000000e+00 0.0000000000000000e+00 0.0000000000000000e+00 0.0000000000000000e+00  -5.2233282833344965e+01 5.6230116756615473e+02 0.0000000000000000e+00 5.6230116756615564e+02 -1.1729970818098544e+04 0.0000000000000000e+00 0.0000000000000000e+00 0.0000000000000000e+00 0.0000000000000000e+00  -1.9746563653098372e+03 -1.1699121729668404e+03 0.0000000000000000e+00 -1.1699121729668407e+03 9.2835557128341025e+03 0.0000000000000000e+00 0.0000000000000000e+00 0.0000000000000000e+00 0.0000000000000000e+00  -6.4175104253893296e+03 -6.4377904116057762e+03 0.0000000000000000e+00 -6.4377904116057680e+03 -7.9704234319562001e+03 0.0000000000000000e+00 0.0000000000000000e+00 0.0000000000000000e+00 0.0000000000000000e+00  9.8247955225293322e+02 -1.1728313104725398e+03 0.0000000000000000e+00 -1.1728313104725396e+03 1.3571569379495475e+04 0.0000000000000000e+00 0.0000000000000000e+00 0.0000000000000000e+00 0.0000000000000000e+00  -1.0151169775711311e+04 -8.9143257652879765e+03 0.0000000000000000e+00 -8.9143257652879693e+03 -1.7497143605891684e+04 0.0000000000000000e+00 0.0000000000000000e+00 0.0000000000000000e+00 0.0000000000000000e+00  -1.5018834086131997e+03 2.7598377002743393e+02 0.0000000000000000e+00 2.7598377002742529e+02 8.5737235066352732e+03 0.0000000000000000e+00 0.0000000000000000e+00 0.0000000000000000e+00 0.0000000000000000e+00  -5.8607918624757976e+03 5.9502910149873469e+03 0.0000000000000000e+00 5.9502910149873542e+03 -4.9714077132388065e+03 0.0000000000000000e+00 0.0000000000000000e+00 0.0000000000000000e+00 0.0000000000000000e+00  -8.5515721969200386e+03 6.0938112036680868e+03 0.0000000000000000e+00 6.0938112036680695e+03 -1.0522232642836219e+04 0.0000000000000000e+00 0.0000000000000000e+00 0.0000000000000000e+00 0.0000000000000000e+00  -6.2058884396611493e+03 -6.1176949322517366e+03 0.0000000000000000e+00 -6.1176949322517385e+03 -4.9876616737545492e+03 0.0000000000000000e+00 0.0000000000000000e+00 0.0000000000000000e+00 0.0000000000000000e+00  -4.2623684601950927e+03 6.0607753537083127e+03 0.0000000000000000e+00 6.0607753537083108e+03 -2.2642564565419821e+03 0.0000000000000000e+00 0.0000000000000000e+00 0.0000000000000000e+00 0.0000000000000000e+00  -9.1915296043889830e+03 -6.3274672492359305e+03 0.0000000000000000e+00 -6.3274672492359314e+03 -1.1379443973559697e+04 0.0000000000000000e+00 0.0000000000000000e+00 0.0000000000000000e+00 0.0000000000000000e+00  -1.5061958602455481e+03 -1.3644338128880554e+03 0.0000000000000000e+00 -1.3644338128880504e+03 -1.1289717409056420e+03 0.0000000000000000e+00 0.0000000000000000e+00 0.0000000000000000e+00 0.0000000000000000e+00  -3.7202628887800283e+03 -6.1634592177636750e+03 0.0000000000000000e+00 -6.1634592177636750e+03 -1.4337684624977517e+03 0.0000000000000000e+00 0.0000000000000000e+00 0.0000000000000000e+00 0.0000000000000000e+00  1.3460836699020738e+03 9.8904644385900917e+02 0.0000000000000000e+00 9.8904644385900633e+02 