<?xml version="1.0"?>
<VTKFile type="UnstructuredGrid"  version="0.1"  >
<UnstructuredGrid>
<Piece  NumberOfPoints="4855" NumberOfCells="8780">
<Points>
<DataArray  type="Float64"  NumberOfComponents="3"  format="ascii">0.9483880164242298 0.6836931311526558 0  0.9494264999197789 0.6847056440044139 0  0.9494005292759887 0.6847228078606633 0  0.9735520289385229 0.7444444444444445 0  0.9494005292759886 0.8041660810282256 0  0.94942649991978 0.8041832448844759 0  0.9483880175070514 0.8051957566534116 0  3.131175874138137e-16 0.09811450876034808 0  0.06838800723463068 0.1543033514199101 0  0.05161198249294494 0.1948042433465922 0  0.0505735000802211 0.1958167551155251 0  0.05059947072401128 0.1958339189717744 0  0.0505994707240113 0.3152771921393367 0  0.05057350008021998 0.315294355995587 0  0.05161198357913653 0.3163068688507105 0  0.06838800723463068 0.356807759691201 0  3.252606517456513e-16 0.4129966023507631 0  -1.795438797635995e-16 0.4839416311832997 0  0.07083274769489223 0.4605116403870998 0  0.07084991155114129 0.4605376110308903 0  0.07186242331670639 0.4594991286215342 0  0.1696402113702762 0.5 0  0.07186242332008326 0.5405008713818427 0  0.0708499115511413 0.5394623889691096 0  0.07083274769489219 0.5394883596129002 0  -1.925543058334256e-16 0.5160583688167003 0  1.484923295436147e-15 0.5870033976492365 0  0.06838800723463068 0.643192240308799 0  0.05161198249294541 0.6836931322354806 0  0.05057350008022109 0.6847056440044139 0  0.0505994707240113 0.6847228078606633 0  0.0505994707240113 0.8041660810282256 0  0.05057350008021999 0.804183244884476 0  0.05161198249294764 0.8051957566534106 0  0.06838800723463068 0.84569664858009 0  1.485790657174135e-15 0.9018854912396524 0  0 1 0  1 1 0  0.9999999999999987 0.9018854912396523 0  1.000000000000001 0.5870033976492375 0  1 0.5160583688167003 0  0.9291672523051078 0.5394883596129003 0  0.9291500884488585 0.5394623889691117 0  0.9281375755937461 0.5405008724680134 0  0.9281375755937372 0.4594991275319777 0  0.9291500884488586 0.4605376110308884 0  0.9291672523051077 0.4605116403870997 0  1 0.4839416311832997 0  0.9999999999999987 0.4129966023507635 0  0.948388017507054 0.31630686776452 0  0.94942649991978 0.3152943559955871 0  0.9494005292759886 0.3152771921393367 0  0.9735520289385229 0.2555555555555555 0  0.9494005292759888 0.1958339189717744 0  0.9494264999197789 0.1958167551155251 0  0.9483880164208631 0.1948042422604003 0  1.000000000000001 0.09811450876034861 0  1 0 0  0 0 0  0.1958339189717744 0.2950439151684559 0  0.1958167551155252 0.2950179445246672 0  0.3152771921393367 0.2950439151684557 0  0.1948042433481841 0.2960564269357975 0  0.3152943559955858 0.2950179445246651 0  0.1948042422604031 0.2150546830875326 0  0.3163068677645244 0.2960564269373949 0  0.1958167551155251 0.2160931665864439 0  0.4140846558147206 0.2555555555555555 0  0.1958339189717744 0.2160671959426553 0  0.3163068688489276 0.215054683089313 0  0.3152771921393367 0.2160671959426553 0  0.3152943559955858 0.2160931665864459 0  0.5405008724680257 0.3163068688507107 0  0.5572768961235196 0.356807759691201 0  0.5394623889691089 0.3152943559955871 0  0.459499128618165 0.3163068677645201 0  0.5394883596129003 0.3152771921393367 0  0.4605376110308911 0.3152943559955871 0  0.5394883596129001 0.1958339189717744 0  0.4605116403870998 0.3152771921393367 0  0.53946238896911 0.1958167551155251 0  0.4846631400496339 0.2555555555555555 0  0.5405008724680251 0.1948042422604009 0  0.4605116403870998 0.1958339189717744 0  0.5572768961235196 0.1543033514199101 0  0.46053761103089 0.1958167551155251 0  0.4594991286269881 0.1948042433554141 0  0.6847228078606633 0.2950439151684559 0  0.684705644004414 0.2950179445246672 0  0.8041660810282256 0.2950439151684557 0  0.683693131164073 0.2960564280087975 0  0.8041832448844747 0.2950179445246651 0  0.6836931322354718 0.2150546841737125 0  0.8051957566534156 0.2960564269373971 0  0.6847056440044141 0.2160931665864439 0  0.9029735447036096 0.2555555555555555 0  0.6847228078606632 0.2160671959426553 0  0.8051957577274008 0.2150546830997286 0  0.8041660810282256 0.2160671959426553 0  0.8041832448844747 0.2160931665864459 0  0.2960564280235811 0.560751313295155 0  0.3128324516790751 0.6012522041356455 0  0.2950179445246645 0.5597388004400315 0  0.2150546830875235 0.5607513132951615 0  0.2950439151684557 0.5597216365837812 0  0.2160931665864466 0.5597388004400314 0  0.2950439151684558 0.4402783634162188 0  0.2160671959426553 0.5597216365837812 0  0.2950179445246656 0.4402611995599696 0  0.2402186956051895 0.5 0  0.29605642693739 0.439248687791036 0  0.2160671959426553 0.4402783634162189 0  0.3128324516790751 0.3987477958643545 0  0.2160931665864455 0.4402611995599696 0  0.2150546830875296 0.4392486867048446 0  0.1958339189717743 0.7839328040573448 0  0.1958167551155252 0.7839068334135562 0  0.3152771921393367 0.7839328040573447 0  0.1948042422604028 0.7849453169124678 0  0.3152943559955858 0.783906833413554 0  0.1948042433465913 0.7039435730626098 0  0.3163068677645284 0.7849453158262878 0  0.1958167551155251 0.7049820554753328 0  0.4140846558147206 0.7444444444444445 0  0.1958339189717744 0.7049560848315441 0  0.3163068688486237 0.7039435719785058 0  0.3152771921393367 0.7049560848315441 0  0.3152943559955858 0.7049820554753349 0  0.4402783634162188 0.5394883596129003 0  0.4402611995599696 0.5394623889691117 0  0.5597216365837812 0.5394883596129002 0  0.4392486867048468 0.5405008724680237 0  0.5597388004400302 0.5394623889691096 0  0.4392486877998708 0.4594991286270004 0  0.5607513122089726 0.540500871381843 0  0.4402611995599696 0.4605376110308884 0  0.6585291002591651 0.5 0  0.4402783634162188 0.4605116403870998 0  0.5607513121946796 0.45949912863245 0  0.5597216365837812 0.4605116403870998 0  0.5597388004400302 0.4605376110308904 0  0.78494531690701 0.5607513132896949 0  0.8017213405679641 0.6012522041356455 0  0.7839068334135535 0.5597388004400315 0  0.7039435730626069 0.5607513122089671 0  0.7839328040573448 0.5597216365837812 0  0.7049820554753355 0.5597388004400314 0  0.7839328040573448 0.4402783634162188 0  0.7049560848315441 0.5597216365837812 0  0.7839068334135545 0.4402611995599696 0  0.7291075844940784 0.5 0  0.784945315826279 0.4392486877910359 0  0.7049560848315444 0.4402783634162188 0  0.8017213405679641 0.3987477958643545 0  0.7049820554753344 0.4402611995599696 0  0.7039435719764182 0.4392486867048443 0  0.5405008724625655 0.8051957577341393 0  0.5572768961235196 0.84569664858009 0  0.539462388969109 0.804183244884476 0  0.4594991286181648 0.8051957566534091 0  0.5394883596129003 0.8041660810282256 0  0.4605376110308911 0.804183244884476 0  0.5394883596129003 0.6847228078606633 0  0.4605116403870998 0.8041660810282256 0  0.53946238896911 0.6847056440044139 0  0.4846631400496339 0.7444444444444445 0  0.5405008713818347 0.6836931322354802 0  0.4605116403870998 0.6847228078606633 0  0.5572768961235196 0.643192240308799 0  0.46053761103089 0.6847056440044139 0  0.4594991275353449 0.6836931311526599 0  0.6847228078606633 0.7839328040573448 0  0.684705644004414 0.7839068334135562 0  0.8041660810282256 0.7839328040573447 0  0.6836931311493016 0.7849453169124578 0  0.8041832448844747 0.783906833413554 0  0.68369313223548 0.7039435730626096 0  0.805195756653417 0.7849453158262875 0  0.6847056440044141 0.7049820554753328 0  0.9029735447036096 0.7444444444444445 0  0.6847228078606633 0.7049560848315441 0  0.805195757738809 0.7039435719772094 0  0.8041660810282256 0.7049560848315441 0  0.8041832448844747 0.7049820554753349 0  0.9578164230213342 0.6948838683471341 0  0.9645772892192558 0.7062137009141434 0  0.9695236884064815 0.7184451175460498 0  0.972538971146615 0.7312896684428197 0  0.9725389711466151 0.7575992204460691 0  0.9695236884064815 0.7704437713428391 0  0.9645772892192558 0.7826751879747456 0  0.9578164230213342 0.7940050205417549 0  0.01437766570919127 0.09711967848259151 0  0.02854851642641832 0.09974531144948819 0  0.04161535472570586 0.1058251712658871 0  0.05275088139110013 0.1149743244732108 0  0.06125007411586489 0.1266135117968212 0  0.06657482449792251 0.1400058227212122 0  0.06643634307317195 0.1691277076584997 0  0.06071435336153361 0.1829418078690686 0  0.04134737123322858 0.3039103077764334 0  0.03416190609801732 0.2911362521989113 0  0.02925217947541549 0.2773267630846004 0  0.02676106927623143 0.2628837102534819 0  0.02676106927623143 0.2482274008576293 0  0.02925217947541547 0.2337843480265108 0  0.03416190609801727 0.2199748589121999 0  0.04134737123322851 0.2072008033346779 0  0.06071435387356935 0.328169304128914 0  0.06643634320569657 0.3419834039471998 0  0.06657482449792249 0.371105288389899 0  0.06125007411586481 0.3844975993142901 0  0.05275088139109994 0.3961367866379005 0  0.04161535472570563 0.4052859398452242 0  0.02854851642641818 0.411365799661623 0  0.01437766570919127 0.4139914326285196 0  0 0.4697526254167924 0  0 0.455563619650285 0  0 0.4413746138837777 0  0 0.4271856081172704 0  0.06095233986089402 0.4687284952262988 0  0.04995687430503332 0.4753797281664747 0  0.03809234373417287 0.4803165365228644 0  0.02562418374773841 0.4834284730529493 0  0.01283133446055119 0.4846459169037758 0  0.08372485599813187 0.4503967593658507 0  0.09753895276796982 0.4446747697099958 0  0.1123633055586467 0.4427231038764812 0  0.1271876590095525 0.4446747646950606 0  0.1410017577150834 0.45039674967774 0  0.1528641934757506 0.4594991149204779 0  0.161966560724962 0.471361549141524 0  0.1676885480442292 0.4851756468792086 0  0.1676885480443665 0.514824353120279 0  0.1619665607254926 0.528638450857557 0  0.1528641934768762 0.5405008850783964 0  0.1410017577169217 0.5496032503211987 0  0.1271876590121153 0.5553252353042526 0  0.1123633055618306 0.5572768961235188 0  0.09753895277155772 0.5553252302909656 0  0.08372485600180817 0.5496032406362719 0  0.0128313344605512 0.5153540830962242 0  0.0256241837477384 0.5165715269470507 0  0.03809234373417282 0.5196834634771356 0  0.04995687430503334 0.5246202718335253 0  0.06095233986089401
[...]
<PointData  Tensors="$\sigma$"> 
<DataArray  type="Float64"  Name="$\sigma$"  NumberOfComponents="9" format="ascii">-4.2532367434542812e+03 -4.7810678089946960e+03 0.0000000000000000e+00 -4.7810678089946932e+03 -4.9961929357303552e+03 0.0000000000000000e+00 0.0000000000000000e+00 0.0000000000000000e+00 0.0000000000000000e+00  -8.7668507935723792e+03 -6.6468689189159686e+03 0.0000000000000000e+00 -6.6468689189159695e+03 -7.0816941984055120e+03 0.0000000000000000e+00 0.0000000000000000e+00 0.0000000000000000e+00 0.0000000000000000e+00  -3.8769199711466390e+03 -4.9967382031257193e+03 0.0000000000000000e+00 -4.9967382031257184e+03 -5.6333568886863250e+03 0.0000000000000000e+00 0.0000000000000000e+00 0.0000000000000000e+00 0.0000000000000000e+00  1.2030242660910309e+02 4.3229720318656121e+01 0.0000000000000000e+00 4.3229720318655836e+01 -8.4860679061439314e+03 0.0000000000000000e+00 0.0000000000000000e+00 0.0000000000000000e+00 0.0000000000000000e+00  -3.1288241640902625e+03 3.8629494735677081e+03 0.0000000000000000e+00 3.8629494735677117e+03 -4.2687920380060323e+03 0.0000000000000000e+00 0.0000000000000000e+00 0.0000000000000000e+00 0.0000000000000000e+00  -8.2467275623407331e+03 7.1295368477718112e+03 0.0000000000000000e+00 7.1295368477718112e+03 -7.6313239978593965e+03 0.0000000000000000e+00 0.0000000000000000e+00 0.0000000000000000e+00 0.0000000000000000e+00  -2.8981322226455986e+03 3.2453085204211702e+03 0.0000000000000000e+00 3.2453085204211725e+03 -2.9453235215423174e+03 0.0000000000000000e+00 0.0000000000000000e+00 0.0000000000000000e+00 0.0000000000000000e+00  2.5328872059435248e+01 -6.6709245735434708e-01 0.0000000000000000e+00 -6.6709245735431644e-01 1.0199265017312188e+01 0.0000000000000000e+00 0.0000000000000000e+00 0.0000000000000000e+00 0.0000000000000000e+00  6.3347922529604041e+01 3.3426108060374396e+01 0.0000000000000000e+00 3.3426108060374339e+01 7.4164346292691143e+03 0.0000000000000000e+00 0.0000000000000000e+00 0.0000000000000000e+00 0.0000000000000000e+00  -2.7785100781556994e+03 3.0282505179153568e+03 0.0000000000000000e+00 3.0282505179153595e+03 -3.3047044364084386e+03 0.0000000000000000e+00 0.0000000000000000e+00 0.0000000000000000e+00 0.0000000000000000e+00  -8.0526960292214490e+03 7.0890289787248867e+03 0.0000000000000000e+00 7.0890289787248830e+03 -7.0560911419692102e+03 0.0000000000000000e+00 0.0000000000000000e+00 0.0000000000000000e+00 0.0000000000000000e+00  -3.0382573756433035e+03 3.7694783875957046e+03 0.0000000000000000e+00 3.7694783875957096e+03 -4.1055702658229638e+03 0.0000000000000000e+00 0.0000000000000000e+00 0.0000000000000000e+00 0.0000000000000000e+00  -3.4212880823547707e+03 -4.9489286893898106e+03 0.0000000000000000e+00 -4.9489286893898116e+03 -5.0542828121706298e+03 0.0000000000000000e+00 0.0000000000000000e+00 0.0000000000000000e+00 0.0000000000000000e+00  -9.5182586850120897e+03 -6.6540064009613507e+03 0.0000000000000000e+00 -6.6540064009613579e+03 -7.8169763753582874e+03 0.0000000000000000e+00 0.0000000000000000e+00 0.0000000000000000e+00 0.0000000000000000e+00  -3.6808851798021055e+03 -4.7767862428012813e+03 0.0000000000000000e+00 -4.7767862428012704e+03 -4.6023237172525414e+03 0.0000000000000000e+00 0.0000000000000000e+00 0.0000000000000000e+00 0.0000000000000000e+00  1.6742680442755952e+02 -1.6393738486548045e+01 0.0000000000000000e+00 -1.6393738486548109e+01 2.3076127765006472e+03 0.0000000000000000e+00 0.0000000000000000e+00 0.0000000000000000e+00 0.0000000000000000e+00  9.6457701587408984e-01 -2.1516572771750261e-01 0.0000000000000000e+00 -2.1516572771750161e-01 -5.7766757145546865e+00 0.0000000000000000e+00 0.0000000000000000e+00 0.0000000000000000e+00 0.0000000000000000e+00  -2.8857825905079920e-01 2.4453149613452965e-01 0.0000000000000000e+00 2.4453149613452921e-01 1.5639906535307981e+00 0.0000000000000000e+00 0.0000000000000000e+00 0.0000000000000000e+00 0.0000000000000000e+00  -2.8730814874205457e+01 2.8681558905344826e+01 0.0000000000000000e+00 2.8681558905344861e+01 -1.7185154543430130e+01 0.0000000000000000e+00 0.0000000000000000e+00 0.0000000000000000e+00 0.0000000000000000e+00  -4.9775575502696668e+01 6.7880287542321494e+00 0.0000000000000000e+00 6.7880287542321165e+00 -2.0779843940323975e+01 0.0000000000000000e+00 0.0000000000000000e+00 0.0000000000000000e+00 0.0000000000000000e+00  -2.3078459318873481e+01 6.8091672272095792e+01 0.0000000000000000e+00 6.8091672272095821e+01 -6.3495589304500115e+01 0.0000000000000000e+00 0.0000000000000000e+00 0.0000000000000000e+00 0.0000000000000000e+00  2.5058415038885528e+03 -1.6373393036624105e+02 0.0000000000000000e+00 -1.6373393036624086e+02 1.5081207386942429e+04 0.0000000000000000e+00 0.0000000000000000e+00 0.0000000000000000e+00 0.0000000000000000e+00  -4.2590508216947313e+01 -9.6028784974059491e+01 0.0000000000000000e+00 -9.6028784974059391e+01 -4.5680583839235581e+01 0.0000000000000000e+00 0.0000000000000000e+00 0.0000000000000000e+00 0.0000000000000000e+00  8.0419865717735874e+01 1.2886174640210479e+02 0.0000000000000000e+00 1.2886174640210481e+02 6.2836589926599018e+01 0.0000000000000000e+00 0.0000000000000000e+00 0.0000000000000000e+00 0.0000000000000000e+00  -2.5088082893305558e+01 -2.2996575130169219e+01 0.0000000000000000e+00 -2.2996575130169258e+01 -6.4878240958817832e+00 0.0000000000000000e+00 0.0000000000000000e+00 0.0000000000000000e+00 0.0000000000000000e+00  5.7132721899794670e-01 -9.4272750202291145e-02 0.0000000000000000e+00 -9.4272750202291172e-02 1.3306056630421337e+00 0.0000000000000000e+00 0.0000000000000000e+00 0.0000000000000000e+00 0.0000000000000000e+00  -1.8821136959513880e+00 -5.9851313560489290e+00 0.0000000000000000e+00 -5.9851313560489263e+00 1.2191558855917040e+00 0.0000000000000000e+00 0.0000000000000000e+00 0.0000000000000000e+00 0.0000000000000000e+00  3.9865228136728184e+01 -4.8293053585328735e+01 0.0000000000000000e+00 -4.8293053585328707e+01 2.3954554193692802e+03 0.0000000000000000e+00 0.0000000000000000e+00 0.0000000000000000e+00 0.0000000000000000e+00  -4.0976903571911762e+03 4.8576326138998566e+03 0.0000000000000000e+00 4.8576326138998575e+03 -4.9688090767119656e+03 0.0000000000000000e+00 0.0000000000000000e+00 0.0000000000000000e+00 0.0000000000000000e+00  -8.8048554956917251e+03 6.6778358440006650e+03 0.0000000000000000e+00 6.6778358440006577e+03 -6.6300796969982985e+03 0.0000000000000000e+00 0.0000000000000000e+00 0.0000000000000000e+00 0.0000000000000000e+00  -3.6392742732031097e+03 4.7194829742035254e+03 0.0000000000000000e+00 4.7194829742035290e+03 -5.8046375170543479e+03 0.0000000000000000e+00 0.0000000000000000e+00 0.0000000000000000e+00 0.0000000000000000e+00  -3.0716034301631198e+03 -3.7683345093171265e+03 0.0000000000000000e+00 -3.7683345093171270e+03 -4.1517412817243821e+03 0.0000000000000000e+00 0.0000000000000000e+00 0.0000000000000000e+00 0.0000000000000000e+00  -7.8759444860298672e+03 -6.9923457912091953e+03 0.0000000000000000e+00 -6.9923457912091962e+03 -7.3723016456812675e+03 0.0000000000000000e+00 0.0000000000000000e+00 0.0000000000000000e+00 0.0000000000000000e+00  -2.8944305113321570e+03 -3.1321371998075510e+03 0.0000000000000000e+00 -3.1321371998075497e+03 -2.8364376326053607e+03 0.0000000000000000e+00 0.0000000000000000e+00 0.0000000000000000e+00 0.0000000000000000e+00  2.0137814523091421e+02 -2.5186811298459648e+02 0.0000000000000000e+00 -2.5186811298459619e+02 7.0541458798796584e+03 0.0000000000000000e+00 0.0000000000000000e+00 0.0000000000000000e+00 0.0000000000000000e+00  -7.4088180337656027e+01 3.5151851020211318e+01 0.0000000000000000e+00 3.5151851020211254e+01 -3.4890310122135098e+01 0.0000000000000000e+00 0.0000000000000000e+00 0.0000000000000000e+00 0.0000000000000000e+00  3.7134860790857163e+00 7.5368768987296129e+00 0.0000000000000000e+00 7.5368768987296226e+00 5.1942322735976518e+02 0.0000000000000000e+00 0.0000000000000000e+00 0.0000000000000000e+00 0.0000000000000000e+00  3.6889265480284199e+00 -9.7250698496588903e+00 0.0000000000000000e+00 -9.7250698496589187e+00 5.3182288108878242e+02 0.0000000000000000e+00 0.0000000000000000e+00 0.0000000000000000e+00 0.0000000000000000e+00  2.7514790516241330e+01 -2.5205187774658917e+00 0.0000000000000000e+00 -2.5205187774658504e+00 -1.7775871756310412e+01 0.0000000000000000e+00 0.0000000000000000e+00 0.0000000000000000e+00 0.0000000000000000e+00  -2.8238944270141855e+00 -7.8224817903850818e-01 0.0000000000000000e+00 -7.8224817903850596e-01 -3.5127011997633288e+00 0.0000000000000000e+00 0.0000000000000000e+00 0.0000000000000000e+00 0.0000000000000000e+00  3.1838812502584274e-01 3.4868741238657158e-01 0.0000000000000000e+00 3.4868741238657114e-01 8.8949784305577762e-01 0.0000000000000000e+00 0.0000000000000000e+00 0.0000000000000000e+00 0.0000000000000000e+00  -2.7966275868399666e+01 3.1282718780991210e+01 0.0000000000000000e+00 3.1282718780991225e+01 -2.2086700449735361e+01 0.0000000000000000e+00 0.0000000000000000e+00 0.0000000000000000e+00 0.0000000000000000e+00  -4.0531713217398540e+01 -3.5861156141673035e+01 0.0000000000000000e+00 -3.5861156141673035e+01 9.7633133026335428e-01 0.0000000000000000e+00 0.0000000000000000e+00 0.0000000000000000e+00 0.0000000000000000e+00  4.6452194360088255e+00 7.0721822095445333e+01 0.0000000000000000e+00 7.0721822095445347e+01 -4.2836951912925159e+01 0.0000000000000000e+00 0.0000000000000000e+00 0.0000000000000000e+00 0.0000000000000000e+00  -2.7845672840936569e+01 -7.2430370749463492e+01 0.0000000000000000e+00 -7.2430370749463435e+01 -6.4407304987729788e+01 0.0000000000000000e+00 0.0000000000000000e+00 0.0000000000000000e+00 0.0000000000000000e+00  -7.6098321509155966e+01 -4.6890755101287034e+01 0.0000000000000000e+00 -4.6890755101287048e+01 -7.6825973142538132e+01 0.0000000000000000e+00 0.0000000000000000e+00 0.0000000000000000e+00 0.0000000000000000e+00  -3.9454193970274495e+01 -2.3035858685154903e+01 0.0000000000000000e+00 -2.3035858685154903e+01 9.2384325649262578e-01 0.0000000000000000e+00 0.0000000000000000e+00 0.0000000000000000e+00 0.0000000000000000e+00  -7.5493271653641203e-01 -5.1724752040632083e-01 0.0000000000000000e+00 -5.1724752040632060e-01 -2.3750792198244317e-01 0.0000000000000000e+00 0.0000000000000000e+00 0.0000000000000000e+00 0.0000000000000000e+00  -4.6545501796291440e+00 -1.3853734719892807e+00 0.0000000000000000e+00 -1.3853734719892778e+00 -3.1623073445578496e+00 0.0000000000000000e+00 0.0000000000000000e+00 0.0000000000000000e+00 0.0000000000000000e+00  -3.7211975902015693e+03 4.3975738123693181e+03 0.0000000000000000e+00 4.3975738123693181e+03 -4.6706096454034805e+03 0.0000000000000000e+00 0.0000000000000000e+00 0.0000000000000000e+00 0.0000000000000000e+00  -8.7855330440372436e+03 6.8478051027877700e+03 0.0000000000000000e+00 6.8478051027877664e+03 -6.9545471876309439e+03 0.0000000000000000e+00 0.0000000000000000e+00 0.0000000000000000e+00 0.0000000000000000e+00  -3.9864528364629637e+03 4.8092778902195569e+03 0.0000000000000000e+00 4.8092778902195578e+03 -5.6744242988685091e+03 0.0000000000000000e+00 0.0000000000000000e+00 0.0000000000000000e+00 0.0000000000000000e+00  1.6765422417194327e+02 5.6144154513418201e+01 0.0000000000000000e+00 5.6144154513418812e+01 -8.4351945552752604e+03 0.0000000000000000e+00 0.0000000000000000e+00 0.0000000000000000e+00 0.0000000000000000e+00  -2.8602691761098208e+03 -3.7580511386579278e+03 0.0000000000000000e+00 -3.7580511386579283e+03 -4.0834145717932465e+03 0.0000000000000000e+00 0.0000000000000000e+00 0.0000000000000000e+00 0.0000000000000000e+00  -8.8900759102248121e+03 -7.4276867823770936e+03 0.0000000000000000e+00 -7.4276867823770917e+03 -7.5969582529251838e+03 0.0000000000000000e+00 0.0000000000000000e+00 0.0000000000000000e+00 0.0000000000000000e+00  -2.7802797823805472e+03 -3.0749170096385278e+03 0.0000000000000000e+00 -3.0749170096385260e+03 -3.5039885238652455e+03 0.0000000000000000e+00 0.0000000000000000e+00 0.0000000000000000e+00 0.0000000000000000e+00  -4.0840898059662472e+01 1.2643013023686335e+01 0.0000000000000000e+00 1.2643013023686304e+01 -1.0197568844191235e+01 0.0000000000000000e+00 0.0000000000000000e+00 0.0000000000000000e+00 0.0000000000000000e+00  2.8458193075702747e+00 5.6745492027353768e+00 0.0000000000000000e+00 5.6745492027353803e+00 5.2163718968295439e+02 0.0000000000000000e+00 0.0000000000000000e+00 0.0000000000000000e+00 0.0000000000000000e+00  1.3478868830042896e+02 1.0818289467970979e+02 0.0000000000000000e+00 1.0818289467970979e+02 6.2979609957761045e+02 0.0000000000000000e+00 0.0000000000000000e+00 0.0000000000000000e+00 0.0000000000000000e+00  -5.6443454073568491e+03 5.8743739369609248e+03 0.0000000000000000e+00 5.8743739369609229e+03 -5.5190973738753974e+03 0.0000000000000000e+00 0.0000000000000000e+00 0.0000000000000000e+00 0.0000000000000000e+00  -7.2024588652260481e+03 5.8682582593989582e+03 0.0000000000000000e+00 5.8682582593989591e+03 -8.0547952160285486e+03 0.0000000000000000e+00 0.0000000000000000e+00 0.0000000000000000e+00 0.0000000000000000e+00  -6.5151457311722970e+03 -5.9751774496318412e+03 0.0000000000000000e+00 -5.9751774496318421e+03 -4.5356651619490121e+03 0.0000000000000000e+00 0.0000000000000000e+00 0.0000000000000000e+00 0.0000000000000000e+00  -4.7751770997900912e+03 5.8979717803119247e+03 0.0000000000000000e+00 5.8979717803119265e+03 -3.0698104258158296e+03 0.0000000000000000e+00 0.0000000000000000e+00 0.0000000000000000e+00 0.0000000000000000e+00  -4.4090355208533501e+03 -5.5500140735689984e+03 0.0000000000000000e+00 -5.5500140735689874e+03 -6.9274607678540633e+03 0.0000000000000000e+00 0.0000000000000000e+00 0.0000000000000000e+00 0.0000000000000000e+00  -1.1415353218522937e+03 -1.0738454732080904e+03 0.0000000000000000e+00 -1.0738454732080904e+03 -8.1124501748535954e+02 0.0000000000000000e+00 0.0000000000000000e+00 0.0000000000000000e+00 0.0000000000000000e+00  -6.7921823869965965e+03 -5.9793790717916791e+03 0.0000000000000000e+00 -5.9793790717916827e+03 -5.7296048389780335e+03 0.0000000000000000e+00 0.0000000000000000e+00 0.0000000000000000e+00 0.0000000000000000e+00  -3.7001915013532795e+02 -4.0500192463744992e+02 0.0000000000000000e+00 -4.0500192463745026e+02 -7.7806328021589923e+02 0.0000000000000000e+00 0.0000000000000000e+00 0.0000000000000000e+00 0.0000000000000000e+00  3.6228540202072804e+03 3.7970398820209357e+02 0.0000000000000000e+00 3.7970398820209419e+02 1.5724472617545955e+04 0.0000000000000000e+00 0.0000000000000000e+00 0.0000000000000000e+00 0.0000000000000000e+00  -5.6775950343348336e+02 -5.6518843492872020e+02 0.0000000000000000e+00 -5.6518843492871986e+02 -4.1055654146152989e+02 0.0000000000000000e+00 0.0000000000000000e+00 0.0000000000000000e+00 0.0000000000000000e+00  -1.2616357910498805e+03 1.2788370570926807e+03 0.0000000000000000e+00 1.2788370570926795e+03 -1.0017313907508801e+03 0.0000000000000000e+00 0.0000000000000000e+00 0.0000000000000000e+00 0.0000000000000000e+00  -1.0669890706522688e+03 7.7524111851370196e+02 0.0000000000000000e+00 7.7524111851370230e+02 -6.1377042562396105e+02 0.0000000000000000e+00 0.0000000000000000e+00 0.0000000000000000e+00 0.0000000000000000e+00  4.4860393639042491e+02 -1.9666458949877540e+02 0.0000000000000000e+00 -1.9666458949877574e+02 -2.1522361110047882e+02 0.0000000000000000e+00 0.0000000000000000e+00 0.0000000000000000e+00 0.0000000000000000e+00  -5.3258119320837586e+03 -6.5515317774626856e+03 0.0000000000000000e+00 -6.5515317774626901e+03 -5.8779763984117571e+03 0.0000000000000000e+00 0.0000000000000000e+00 0.0000000000000000e+00 0.0000000000000000e+00  6.4780837023931383e+02 -1.5145551441552399e+02 0.0000000000000000e+00 -1.5145551441552226e+02 6.1261059249172185e+03 0.0000000000000000e+00 0.0000000000000000e+00 0.0000000000000000e+00 0.0000000000000000e+00  -6.1253991959716514e+03 -5.2509777752029067e+03 0.0000000000000000e+00 -5.2509777752029067e+03 -4.3460527727898152e+03 0.0000000000000000e+00 0.0000000000000000e+00 0.0000000000000000e+00 0.0000000000000000e+00  -5.0703291351406860e+03 6.5787257345470471e+03 0.0000000000000000e+00 6.5787257345470452e+03 -6.5629800304123373e+03 0.0000000000000000e+00 0.0000000000000000e+00 0.0000000000000000e+00 0.0000000000000000e+00  -5.8981877574903474e+03 -6.2315856047756852e+03 0.0000000000000000e+00 -6.2315856047756888e+03 -7.9986653696188223e+03 0.0000000000000000e+00 0.0000000000000000e+00 0.0000000000000000e+00 0.0000000000000000e+00  -5.8255414794593480e+03 5.2956782549451427e+03 0.0000000000000000e+00 5.2956782549451564e+03 -3.6158309642567301e+03 0.0000000000000000e+00 0.0000000000000000e+00 0.0000000000000000e+00 0.0000000000000000e+00  1.3675977427516847e+02 7.3040579570077512e+02 0.0000000000000000e+00 7.3040579570077443e+02 1.9916749764542757e+02 0.0000000000000000e+00 0.0000000000000000e+00 0.0000000000000000e+00 0.0000000000000000e+00  -6.3734825731619994e+03 6.1329268188174001e+03 0.0000000000000000e+00 6.1329268188174010e+03 -8.0953349660531621e+03 0.0000000000000000e+00 0.0000000000000000e+00 0.0000000000000000e+00 0.0000000000000000e+00  -7.0882073175228552e+03 8.2191205385077392e+03 0.0000000000000000e+00 8.2191205385077465e+03 -1.1059510023985698e+04 0.0000000000000000e+00 0.0000000000000000e+00 0.0000000000000000e+00 0.0000000000000000e+00  9.2151760434826002e+01 2.6989698645401745e+01 0.0000000000000000e+00 2.6989698645403024e+01 -8.5097535780923299e+03 0.0000000000000000e+00 0.0000000000000000e+00 0.0000000000000000e+00 0.0000000000000000e+00  1.2684468196760256e+03 -3.2685221596140987e+03 0.0000000000000000e+00 -3.2685221596141023e+03 5.5944593655293656e+03 0.0000000000000000e+00 0.0000000000000000e+00 0.0000000000000000e+00 0.0000000000000000e+00  -9.1990737664869141e+02 -7.3091095435799986e+01 0.0000000000000000e+00 -7.3091095435800668e+01 1.0062562695801041e+03 0.0000000000000000e+00 0.0000000000000000e+00 0.0000000000000000e+00 0.0000000000000000e+00  8.7089057798183183e+02 -3.0054306949061151e+02 0.0000000000000000e+00 -3.0054306949061214e+02 1.2840758927634635e+04 0.0000000000000000e+00 0.0000000000000000e+00 0.0000000000000000e+00 0.0000000000000000e+00  -5.3476462960180879e+03 -7.5082449209143988e+03 0.0000000000000000e+00 -7.5082449209143988e+03 -9.8286218848581011e+03 0.0000000000000000e+00 0.0000000000000000e+00 0.0000000000000000e+00 0.0000000000000000e+00  9.4063379994610705e+02 2.2927824073521519e+03 0.0000000000000000e+00 2.2927824073521519e+03 3.6451864649506597e+03 0.0000000000000000e+00 0.0000000000000000e+00 0.0000000000000000e+00 0.0000000000000000e+00  -6.5592524216149986e+03 6.0728420071083583e+03 0.0000000000000000e+00 6.0728420071083565e+03 -4.6671643444201600e+03 0.0000000000000000e+00 0.0000000000000000e+00 0.0000000000000000e+00 0.0000000000000000e+00  -4.4997948057192252e+03 5.5246497547424169e+03 0.0000000000000000e+00 5.5246497547424169e+03 -6.9207562014328551e+03 0.0000000000000000e+00 0.0000000000000000e+00 0.0000000000000000e+00 0.0000000000000000e+00  -6.1430090565985429e+03 -5.8621142691101513e+03 0.0000000000000000e+00 -5.8621142691101531e+03 -5.7107124200193912e+03 0.0000000000000000e+00 0.0000000000000000e+00 0.0000000000000000e+00 0.0000000000000000e+00  -6.7626388004286991e+03 5.9836868909571986e+03 0.0000000000000000e+00 5.9836868909572031e+03 -5.6327423882889752e+03 0.0000000000000000e+00 0.0000000000000000e+00 0.0000000000000000e+00 0.0000000000000000e+00  -7.1589113950033234e+03 -5.8008087116890802e+03 0.0000000000000000e+00 -5.8008087116890765e+03 -7.8884920188761071e+03 0.0000000000000000e+00 0.0000000000000000e+00 0.0000000000000000e+00 0.0000000000000000e+00  -1.5401735070470781e+03 -1.2728946744892919e+03 0.0000000000000000e+00 -1.2728946744892910e+03 -1.0291858743113380e+03 0.0000000000000000e+00 0.0000000000000000e+00 0.0000000000000000e+00 0.0000000000000000e+00  -4.4569678144823501e+03 -5.9977819801852656e+03 0.0000000000000000e+00 -5.9977819801852729e+03 -3.2592727469339202e+03 0.0000000000000000e+00 0.0000000000000000e+00 0.0000000000000000e+00 0.0000000000000000e+00  7.7647192335087243e+02 3.9153600465391395e+02 0.0000000000000000e+00 3.9153600465391344e+02 -1