<?xml version="1.0"?>
<VTKFile type="UnstructuredGrid"  version="0.1"  >
<UnstructuredGrid>
<Piece  NumberOfPoints="4855" NumberOfCells="8780">
<Points>
<DataArray  type="Float64"  NumberOfComponents="3"  format="ascii">0.9483880164242298 0.6836931311526558 0  0.9494264999197789 0.6847056440044139 0  0.9494005292759887 0.6847228078606633 0  0.9735520289385229 0.7444444444444445 0  0.9494005292759886 0.8041660810282256 0  0.94942649991978 0.8041832448844759 0  0.9483880175070514 0.8051957566534116 0  3.131175874138137e-16 0.09811450876034808 0  0.06838800723463068 0.1543033514199101 0  0.05161198249294494 0.1948042433465922 0  0.0505735000802211 0.1958167551155251 0  0.05059947072401128 0.1958339189717744 0  0.0505994707240113 0.3152771921393367 0  0.05057350008021998 0.315294355995587 0  0.05161198357913653 0.3163068688507105 0  0.06838800723463068 0.356807759691201 0  3.252606517456513e-16 0.4129966023507631 0  -1.795438797635995e-16 0.4839416311832997 0  0.07083274769489223 0.4605116403870998 0  0.07084991155114129 0.4605376110308903 0  0.07186242331670639 0.4594991286215342 0  0.1696402113702762 0.5 0  0.07186242332008326 0.5405008713818427 0  0.0708499115511413 0.5394623889691096 0  0.07083274769489219 0.5394883596129002 0  -1.925543058334256e-16 0.5160583688167003 0  1.484923295436147e-15 0.5870033976492365 0  0.06838800723463068 0.643192240308799 0  0.05161198249294541 0.6836931322354806 0  0.05057350008022109 0.6847056440044139 0  0.0505994707240113 0.6847228078606633 0  0.0505994707240113 0.8041660810282256 0  0.05057350008021999 0.804183244884476 0  0.05161198249294764 0.8051957566534106 0  0.06838800723463068 0.84569664858009 0  1.485790657174135e-15 0.9018854912396524 0  0 1 0  1 1 0  0.9999999999999987 0.9018854912396523 0  1.000000000000001 0.5870033976492375 0  1 0.5160583688167003 0  0.9291672523051078 0.5394883596129003 0  0.9291500884488585 0.5394623889691117 0  0.9281375755937461 0.5405008724680134 0  0.9281375755937372 0.4594991275319777 0  0.9291500884488586 0.4605376110308884 0  0.9291672523051077 0.4605116403870997 0  1 0.4839416311832997 0  0.9999999999999987 0.4129966023507635 0  0.948388017507054 0.31630686776452 0  0.94942649991978 0.3152943559955871 0  0.9494005292759886 0.3152771921393367 0  0.9735520289385229 0.2555555555555555 0  0.9494005292759888 0.1958339189717744 0  0.9494264999197789 0.1958167551155251 0  0.9483880164208631 0.1948042422604003 0  1.000000000000001 0.09811450876034861 0  1 0 0  0 0 0  0.1958339189717744 0.2950439151684559 0  0.1958167551155252 0.2950179445246672 0  0.3152771921393367 0.2950439151684557 0  0.1948042433481841 0.2960564269357975 0  0.3152943559955858 0.2950179445246651 0  0.1948042422604031 0.2150546830875326 0  0.3163068677645244 0.2960564269373949 0  0.1958167551155251 0.2160931665864439 0  0.4140846558147206 0.2555555555555555 0  0.1958339189717744 0.2160671959426553 0  0.3163068688489276 0.215054683089313 0  0.3152771921393367 0.2160671959426553 0  0.3152943559955858 0.2160931665864459 0  0.5405008724680257 0.3163068688507107 0  0.5572768961235196 0.356807759691201 0  0.5394623889691089 0.3152943559955871 0  0.459499128618165 0.3163068677645201 0  0.5394883596129003 0.3152771921393367 0  0.4605376110308911 0.3152943559955871 0  0.5394883596129001 0.1958339189717744 0  0.4605116403870998 0.3152771921393367 0  0.53946238896911 0.1958167551155251 0  0.4846631400496339 0.2555555555555555 0  0.5405008724680251 0.1948042422604009 0  0.4605116403870998 0.1958339189717744 0  0.5572768961235196 0.1543033514199101 0  0.46053761103089 0.1958167551155251 0  0.4594991286269881 0.1948042433554141 0  0.6847228078606633 0.2950439151684559 0  0.684705644004414 0.2950179445246672 0  0.8041660810282256 0.2950439151684557 0  0.683693131164073 0.2960564280087975 0  0.8041832448844747 0.2950179445246651 0  0.6836931322354718 0.2150546841737125 0  0.8051957566534156 0.2960564269373971 0  0.6847056440044141 0.2160931665864439 0  0.9029735447036096 0.2555555555555555 0  0.6847228078606632 0.2160671959426553 0  0.8051957577274008 0.2150546830997286 0  0.8041660810282256 0.2160671959426553 0  0.8041832448844747 0.2160931665864459 0  0.2960564280235811 0.560751313295155 0  0.3128324516790751 0.6012522041356455 0  0.2950179445246645 0.5597388004400315 0  0.2150546830875235 0.5607513132951615 0  0.2950439151684557 0.5597216365837812 0  0.2160931665864466 0.5597388004400314 0  0.2950439151684558 0.4402783634162188 0  0.2160671959426553 0.5597216365837812 0  0.2950179445246656 0.4402611995599696 0  0.2402186956051895 0.5 0  0.29605642693739 0.439248687791036 0  0.2160671959426553 0.4402783634162189 0  0.3128324516790751 0.3987477958643545 0  0.2160931665864455 0.4402611995599696 0  0.2150546830875296 0.4392486867048446 0  0.1958339189717743 0.7839328040573448 0  0.1958167551155252 0.7839068334135562 0  0.3152771921393367 0.7839328040573447 0  0.1948042422604028 0.7849453169124678 0  0.3152943559955858 0.783906833413554 0  0.1948042433465913 0.7039435730626098 0  0.3163068677645284 0.7849453158262878 0  0.1958167551155251 0.7049820554753328 0  0.4140846558147206 0.7444444444444445 0  0.1958339189717744 0.7049560848315441 0  0.3163068688486237 0.7039435719785058 0  0.3152771921393367 0.7049560848315441 0  0.3152943559955858 0.7049820554753349 0  0.4402783634162188 0.5394883596129003 0  0.4402611995599696 0.5394623889691117 0  0.5597216365837812 0.5394883596129002 0  0.4392486867048468 0.5405008724680237 0  0.5597388004400302 0.5394623889691096 0  0.4392486877998708 0.4594991286270004 0  0.5607513122089726 0.540500871381843 0  0.4402611995599696 0.4605376110308884 0  0.6585291002591651 0.5 0  0.4402783634162188 0.4605116403870998 0  0.5607513121946796 0.45949912863245 0  0.5597216365837812 0.4605116403870998 0  0.5597388004400302 0.4605376110308904 0  0.78494531690701 0.5607513132896949 0  0.8017213405679641 0.6012522041356455 0  0.7839068334135535 0.5597388004400315 0  0.7039435730626069 0.5607513122089671 0  0.7839328040573448 0.5597216365837812 0  0.7049820554753355 0.5597388004400314 0  0.7839328040573448 0.4402783634162188 0  0.7049560848315441 0.5597216365837812 0  0.7839068334135545 0.4402611995599696 0  0.7291075844940784 0.5 0  0.784945315826279 0.4392486877910359 0  0.7049560848315444 0.4402783634162188 0  0.8017213405679641 0.3987477958643545 0  0.7049820554753344 0.4402611995599696 0  0.7039435719764182 0.4392486867048443 0  0.5405008724625655 0.8051957577341393 0  0.5572768961235196 0.84569664858009 0  0.539462388969109 0.804183244884476 0  0.4594991286181648 0.8051957566534091 0  0.5394883596129003 0.8041660810282256 0  0.4605376110308911 0.804183244884476 0  0.5394883596129003 0.6847228078606633 0  0.4605116403870998 0.8041660810282256 0  0.53946238896911 0.6847056440044139 0  0.4846631400496339 0.7444444444444445 0  0.5405008713818347 0.6836931322354802 0  0.4605116403870998 0.6847228078606633 0  0.5572768961235196 0.643192240308799 0  0.46053761103089 0.6847056440044139 0  0.4594991275353449 0.6836931311526599 0  0.6847228078606633 0.7839328040573448 0  0.684705644004414 0.7839068334135562 0  0.8041660810282256 0.7839328040573447 0  0.6836931311493016 0.7849453169124578 0  0.8041832448844747 0.783906833413554 0  0.68369313223548 0.7039435730626096 0  0.805195756653417 0.7849453158262875 0  0.6847056440044141 0.7049820554753328 0  0.9029735447036096 0.7444444444444445 0  0.6847228078606633 0.7049560848315441 0  0.805195757738809 0.7039435719772094 0  0.8041660810282256 0.7049560848315441 0  0.8041832448844747 0.7049820554753349 0  0.9578164230213342 0.6948838683471341 0  0.9645772892192558 0.7062137009141434 0  0.9695236884064815 0.7184451175460498 0  0.972538971146615 0.7312896684428197 0  0.9725389711466151 0.7575992204460691 0  0.9695236884064815 0.7704437713428391 0  0.9645772892192558 0.7826751879747456 0  0.9578164230213342 0.7940050205417549 0  0.01437766570919127 0.09711967848259151 0  0.02854851642641832 0.09974531144948819 0  0.04161535472570586 0.1058251712658871 0  0.05275088139110013 0.1149743244732108 0  0.06125007411586489 0.1266135117968212 0  0.06657482449792251 0.1400058227212122 0  0.06643634307317195 0.1691277076584997 0  0.06071435336153361 0.1829418078690686 0  0.04134737123322858 0.3039103077764334 0  0.03416190609801732 0.2911362521989113 0  0.02925217947541549 0.2773267630846004 0  0.02676106927623143 0.2628837102534819 0  0.02676106927623143 0.2482274008576293 0  0.02925217947541547 0.2337843480265108 0  0.03416190609801727 0.2199748589121999 0  0.04134737123322851 0.2072008033346779 0  0.06071435387356935 0.328169304128914 0  0.06643634320569657 0.3419834039471998 0  0.06657482449792249 0.371105288389899 0  0.06125007411586481 0.3844975993142901 0  0.05275088139109994 0.3961367866379005 0  0.04161535472570563 0.4052859398452242 0  0.02854851642641818 0.411365799661623 0  0.01437766570919127 0.4139914326285196 0  0 0.4697526254167924 0  0 0.455563619650285 0  0 0.4413746138837777 0  0 0.4271856081172704 0  0.06095233986089402 0.4687284952262988 0  0.04995687430503332 0.4753797281664747 0  0.03809234373417287 0.4803165365228644 0  0.02562418374773841 0.4834284730529493 0  0.01283133446055119 0.4846459169037758 0  0.08372485599813187 0.4503967593658507 0  0.09753895276796982 0.4446747697099958 0  0.1123633055586467 0.4427231038764812 0  0.1271876590095525 0.4446747646950606 0  0.1410017577150834 0.45039674967774 0  0.1528641934757506 0.4594991149204779 0  0.161966560724962 0.471361549141524 0  0.1676885480442292 0.4851756468792086 0  0.1676885480443665 0.514824353120279 0  0.1619665607254926 0.528638450857557 0  0.1528641934768762 0.5405008850783964 0  0.1410017577169217 0.5496032503211987 0  0.1271876590121153 0.5553252353042526 0  0.1123633055618306 0.5572768961235188 0  0.09753895277155772 0.5553252302909656 0  0.08372485600180817 0.5496032406362719 0  0.0128313344605512 0.5153540830962242 0  0.0256241837477384 0.5165715269470507 0  0.03809234373417282 0.5196834634771356 0  0.04995687430503334 0.5246202718335253 0  0.06095233986089401
[...]
<PointData  Tensors="$\sigma$"> 
<DataArray  type="Float64"  Name="$\sigma$"  NumberOfComponents="9" format="ascii">-2.9896905530831606e+02 -3.0653078109939122e+02 0.0000000000000000e+00 -3.0653078109939122e+02 -2.2081553548097975e+02 0.0000000000000000e+00 0.0000000000000000e+00 0.0000000000000000e+00 0.0000000000000000e+00  -4.3063167904873296e+02 -3.7117363961926264e+02 0.0000000000000000e+00 -3.7117363961926264e+02 -4.1428459265028573e+02 0.0000000000000000e+00 0.0000000000000000e+00 0.0000000000000000e+00 0.0000000000000000e+00  -2.0511427240321970e+02 -3.3961362970103295e+02 0.0000000000000000e+00 -3.3961362970103295e+02 -3.6264432164733194e+02 0.0000000000000000e+00 0.0000000000000000e+00 0.0000000000000000e+00 0.0000000000000000e+00  4.3478378815760244e+01 9.9560083053734534e+00 0.0000000000000000e+00 9.9560083053734534e+00 -5.4214949642596230e+02 0.0000000000000000e+00 0.0000000000000000e+00 0.0000000000000000e+00 0.0000000000000000e+00  -1.9990250089350596e+02 2.6837050554586887e+02 0.0000000000000000e+00 2.6837050554586887e+02 -2.8596371501436369e+02 0.0000000000000000e+00 0.0000000000000000e+00 0.0000000000000000e+00 0.0000000000000000e+00  -3.0973894178155354e+02 2.9830531572566775e+02 0.0000000000000000e+00 2.9830531572566775e+02 -3.6785256892196702e+02 0.0000000000000000e+00 0.0000000000000000e+00 0.0000000000000000e+00 0.0000000000000000e+00  -2.3656485958473246e+02 2.0886423711438343e+02 0.0000000000000000e+00 2.0886423711438343e+02 -7.0380090075141169e+01 0.0000000000000000e+00 0.0000000000000000e+00 0.0000000000000000e+00 0.0000000000000000e+00  -2.6734520282024752e+00 -7.9051763892701787e-01 0.0000000000000000e+00 -7.9051763892701787e-01 -3.8288863047391954e+00 0.0000000000000000e+00 0.0000000000000000e+00 0.0000000000000000e+00 0.0000000000000000e+00  1.7254591427528073e+01 2.4429733622104138e+01 0.0000000000000000e+00 2.4429733622104138e+01 6.8820134539146886e+02 0.0000000000000000e+00 0.0000000000000000e+00 0.0000000000000000e+00 0.0000000000000000e+00  -2.3733555837551432e+02 2.1405491072023713e+02 0.0000000000000000e+00 2.1405491072023713e+02 -8.7744832375039763e+01 0.0000000000000000e+00 0.0000000000000000e+00 0.0000000000000000e+00 0.0000000000000000e+00  -3.1351267031364318e+02 2.8878942024169544e+02 0.0000000000000000e+00 2.8878942024169544e+02 -3.5835232164825976e+02 0.0000000000000000e+00 0.0000000000000000e+00 0.0000000000000000e+00 0.0000000000000000e+00  -1.7586446197967470e+02 2.6622526018105924e+02 0.0000000000000000e+00 2.6622526018105924e+02 -2.7134210751998029e+02 0.0000000000000000e+00 0.0000000000000000e+00 0.0000000000000000e+00 0.0000000000000000e+00  -1.9655458896018004e+02 -3.0069649851043602e+02 0.0000000000000000e+00 -3.0069649851043602e+02 -3.3616795925271504e+02 0.0000000000000000e+00 0.0000000000000000e+00 0.0000000000000000e+00 0.0000000000000000e+00  -4.1146425731530081e+02 -3.5339913623351549e+02 0.0000000000000000e+00 -3.5339913623351549e+02 -3.8958555582615543e+02 0.0000000000000000e+00 0.0000000000000000e+00 0.0000000000000000e+00 0.0000000000000000e+00  -2.7547600436432685e+02 -3.0941614910981446e+02 0.0000000000000000e+00 -3.0941614910981446e+02 -2.2389578276074906e+02 0.0000000000000000e+00 0.0000000000000000e+00 0.0000000000000000e+00 0.0000000000000000e+00  6.0997318814366670e+00 -3.5272651290754600e+00 0.0000000000000000e+00 -3.5272651290754600e+00 2.5224018495000468e+02 0.0000000000000000e+00 0.0000000000000000e+00 0.0000000000000000e+00 0.0000000000000000e+00  -2.4694624212698946e-01 1.0329992886075182e-01 0.0000000000000000e+00 1.0329992886075182e-01 -3.4977627193885119e-01 0.0000000000000000e+00 0.0000000000000000e+00 0.0000000000000000e+00 0.0000000000000000e+00  -5.9096418345345375e-02 -8.3398013711227757e-03 0.0000000000000000e+00 -8.3398013711227757e-03 -9.9081097326493249e-03 0.0000000000000000e+00 0.0000000000000000e+00 0.0000000000000000e+00 0.0000000000000000e+00  -7.1178313602327998e+00 3.1959459629472451e+00 0.0000000000000000e+00 3.1959459629472451e+00 -8.2986230490835178e-01 0.0000000000000000e+00 0.0000000000000000e+00 0.0000000000000000e+00 0.0000000000000000e+00  -9.3981518342732451e-01 4.3948010886853286e+00 0.0000000000000000e+00 4.3948010886853286e+00 -7.5173405635457105e+00 0.0000000000000000e+00 0.0000000000000000e+00 0.0000000000000000e+00 0.0000000000000000e+00  -1.3971656393411104e+01 1.0600693447702843e+01 0.0000000000000000e+00 1.0600693447702843e+01 -6.3452038538200881e+00 0.0000000000000000e+00 0.0000000000000000e+00 0.0000000000000000e+00 0.0000000000000000e+00  2.7969601952114419e+02 3.2812692680533942e+01 0.0000000000000000e+00 3.2812692680533942e+01 2.9924008237759108e+03 0.0000000000000000e+00 0.0000000000000000e+00 0.0000000000000000e+00 0.0000000000000000e+00  -1.2689128134307433e+01 -1.2424176410395168e+01 0.0000000000000000e+00 -1.2424176410395168e+01 -8.1174015983737053e+00 0.0000000000000000e+00 0.0000000000000000e+00 0.0000000000000000e+00 0.0000000000000000e+00  -2.0256522485224475e+00 -3.7438760216256823e+00 0.0000000000000000e+00 -3.7438760216256823e+00 -7.2108087901354070e+00 0.0000000000000000e+00 0.0000000000000000e+00 0.0000000000000000e+00 0.0000000000000000e+00  -6.8761352601365404e+00 -3.3109704720160824e+00 0.0000000000000000e+00 -3.3109704720160824e+00 -2.9677289781735650e-01 0.0000000000000000e+00 0.0000000000000000e+00 0.0000000000000000e+00 0.0000000000000000e+00  -5.0484287541056910e-02 -3.4641979852312586e-03 0.0000000000000000e+00 -3.4641979852312673e-03 -2.4139888459284273e-03 0.0000000000000000e+00 0.0000000000000000e+00 0.0000000000000000e+00 0.0000000000000000e+00  -6.3287236947947231e-02 -1.8706330565310125e-01 0.0000000000000000e+00 -1.8706330565310128e-01 -4.0584722156811687e-01 0.0000000000000000e+00 0.0000000000000000e+00 0.0000000000000000e+00 0.0000000000000000e+00  -2.4970509758137722e+00 -4.6054833005771617e-01 0.0000000000000000e+00 -4.6054833005771617e-01 2.4780943935018720e+02 0.0000000000000000e+00 0.0000000000000000e+00 0.0000000000000000e+00 0.0000000000000000e+00  -2.6382447452323396e+02 3.0766082748792485e+02 0.0000000000000000e+00 3.0766082748792485e+02 -2.3004682346798796e+02 0.0000000000000000e+00 0.0000000000000000e+00 0.0000000000000000e+00 0.0000000000000000e+00  -4.0437039020377222e+02 3.2764146900841462e+02 0.0000000000000000e+00 3.2764146900841462e+02 -3.3850032546781574e+02 0.0000000000000000e+00 0.0000000000000000e+00 0.0000000000000000e+00 0.0000000000000000e+00  -1.7372955351296321e+02 3.0447793311453802e+02 0.0000000000000000e+00 3.0447793311453802e+02 -3.8185925234159049e+02 0.0000000000000000e+00 0.0000000000000000e+00 0.0000000000000000e+00 0.0000000000000000e+00  -1.7533392154868343e+02 -2.6558048338649735e+02 0.0000000000000000e+00 -2.6558048338649741e+02 -2.7316237919480682e+02 0.0000000000000000e+00 0.0000000000000000e+00 0.0000000000000000e+00 0.0000000000000000e+00  -3.0559672514238144e+02 -2.7749713655630580e+02 0.0000000000000000e+00 -2.7749713655630575e+02 -3.4847930418257675e+02 0.0000000000000000e+00 0.0000000000000000e+00 0.0000000000000000e+00 0.0000000000000000e+00  -2.2784465040487214e+02 -2.1099265656733385e+02 0.0000000000000000e+00 -2.1099265656733382e+02 -7.8933308444283611e+01 0.0000000000000000e+00 0.0000000000000000e+00 0.0000000000000000e+00 0.0000000000000000e+00  4.5654595671846153e+01 -3.1633131461566968e+01 0.0000000000000000e+00 -3.1633131461566968e+01 6.2575712547252954e+02 0.0000000000000000e+00 0.0000000000000000e+00 0.0000000000000000e+00 0.0000000000000000e+00  -2.7798417197485619e+00 3.0425686916718733e+00 0.0000000000000000e+00 3.0425686916718733e+00 -8.1685563655892635e-01 0.0000000000000000e+00 0.0000000000000000e+00 0.0000000000000000e+00 0.0000000000000000e+00  -7.9266959779566515e-01 5.3249854506230287e-01 0.0000000000000000e+00 5.3249854506230287e-01 5.0236639958382817e+01 0.0000000000000000e+00 0.0000000000000000e+00 0.0000000000000000e+00 0.0000000000000000e+00  -1.0057940309739173e+00 -3.0419377256394015e-01 0.0000000000000000e+00 -3.0419377256393987e-01 5.1332574731961323e+01 0.0000000000000000e+00 0.0000000000000000e+00 0.0000000000000000e+00 0.0000000000000000e+00  -2.8980735535389193e+00 -8.6042293812540138e-01 0.0000000000000000e+00 -8.6042293812540138e-01 -3.7728614929381936e+00 0.0000000000000000e+00 0.0000000000000000e+00 0.0000000000000000e+00 0.0000000000000000e+00  -2.3862644147205758e-01 9.5454707776443062e-02 0.0000000000000000e+00 9.5454707776443062e-02 -3.5163014491994887e-01 0.0000000000000000e+00 0.0000000000000000e+00 0.0000000000000000e+00 0.0000000000000000e+00  -6.0081710241400049e-02 -9.3746685486677146e-03 0.0000000000000000e+00 -9.3746685486677146e-03 -1.2342265777210348e-02 0.0000000000000000e+00 0.0000000000000000e+00 0.0000000000000000e+00 0.0000000000000000e+00  -7.5808450082651051e+00 4.4349732550060175e+00 0.0000000000000000e+00 4.4349732550060175e+00 -1.7093854323997435e+00 0.0000000000000000e+00 0.0000000000000000e+00 0.0000000000000000e+00 0.0000000000000000e+00  -4.8731247873159020e+00 5.8400387248787835e+00 0.0000000000000000e+00 5.8400387248787835e+00 -7.1054019804611155e+00 0.0000000000000000e+00 0.0000000000000000e+00 0.0000000000000000e+00 0.0000000000000000e+00  -9.0254105091129375e+00 9.7981800009871485e+00 0.0000000000000000e+00 9.7981800009871485e+00 -9.5610892358158246e+00 0.0000000000000000e+00 0.0000000000000000e+00 0.0000000000000000e+00 0.0000000000000000e+00  -1.2374332708041409e+01 -1.1281653478434253e+01 0.0000000000000000e+00 -1.1281653478434253e+01 -7.3678648893197893e+00 0.0000000000000000e+00 0.0000000000000000e+00 0.0000000000000000e+00 0.0000000000000000e+00  -2.2163248833645781e+00 -5.0203757230123820e+00 0.0000000000000000e+00 -5.0203757230123820e+00 -8.2087141578353666e+00 0.0000000000000000e+00 0.0000000000000000e+00 0.0000000000000000e+00 0.0000000000000000e+00  -7.7755945437064717e+00 -2.8504009322873602e+00 0.0000000000000000e+00 -2.8504009322873607e+00 1.5427966865699336e-02 0.0000000000000000e+00 0.0000000000000000e+00 0.0000000000000000e+00 0.0000000000000000e+00  -5.2447497401884910e-02 4.6754677406351140e-03 0.0000000000000000e+00 4.6754677406351140e-03 -9.3645596881265555e-03 0.0000000000000000e+00 0.0000000000000000e+00 0.0000000000000000e+00 0.0000000000000000e+00  -3.5824946313608380e-01 -2.5343263583496528e-01 0.0000000000000000e+00 -2.5343263583496528e-01 -9.6447585820349846e-02 0.0000000000000000e+00 0.0000000000000000e+00 0.0000000000000000e+00 0.0000000000000000e+00  -3.1729040354305681e+02 3.0449873552536718e+02 0.0000000000000000e+00 3.0449873552536718e+02 -1.9294915299840110e+02 0.0000000000000000e+00 0.0000000000000000e+00 0.0000000000000000e+00 0.0000000000000000e+00  -4.0653541436451081e+02 3.6544070405830456e+02 0.0000000000000000e+00 3.6544070405830456e+02 -4.1030557664385145e+02 0.0000000000000000e+00 0.0000000000000000e+00 0.0000000000000000e+00 0.0000000000000000e+00  -2.1220057174157535e+02 3.2994044551707663e+02 0.0000000000000000e+00 3.2994044551707663e+02 -3.7490486947879441e+02 0.0000000000000000e+00 0.0000000000000000e+00 0.0000000000000000e+00 0.0000000000000000e+00  3.9679859414922873e+01 6.1934524399342088e+00 0.0000000000000000e+00 6.1934524399342088e+00 -5.4099917020013754e+02 0.0000000000000000e+00 0.0000000000000000e+00 0.0000000000000000e+00 0.0000000000000000e+00  -1.7502266400158123e+02 -2.8237039255188279e+02 0.0000000000000000e+00 -2.8237039255188279e+02 -2.8104268421518071e+02 0.0000000000000000e+00 0.0000000000000000e+00 0.0000000000000000e+00 0.0000000000000000e+00  -3.4059960093533260e+02 -3.0991029477323133e+02 0.0000000000000000e+00 -3.0991029477323133e+02 -3.7188039199252160e+02 0.0000000000000000e+00 0.0000000000000000e+00 0.0000000000000000e+00 0.0000000000000000e+00  -2.3094707893846751e+02 -2.0340736969975802e+02 0.0000000000000000e+00 -2.0340736969975802e+02 -9.9536701128372641e+01 0.0000000000000000e+00 0.0000000000000000e+00 0.0000000000000000e+00 0.0000000000000000e+00  -3.4503902404382454e+00 2.8348411471703172e+00 0.0000000000000000e+00 2.8348411471703172e+00 1.2706394067096947e+00 0.0000000000000000e+00 0.0000000000000000e+00 0.0000000000000000e+00 0.0000000000000000e+00  -1.1029250767326775e+00 2.8040821549168621e-01 0.0000000000000000e+00 2.8040821549168621e-01 5.1691331803792799e+01 0.0000000000000000e+00 0.0000000000000000e+00 0.0000000000000000e+00 0.0000000000000000e+00  1.6843389915182136e+01 1.2296377271315086e+01 0.0000000000000000e+00 1.2296377271315086e+01 6.0835950670838699e+01 0.0000000000000000e+00 0.0000000000000000e+00 0.0000000000000000e+00 0.0000000000000000e+00  -7.5739064374621034e+02 5.6014151596488455e+02 0.0000000000000000e+00 5.6014151596488455e+02 -3.5284359439248061e+02 0.0000000000000000e+00 0.0000000000000000e+00 0.0000000000000000e+00 0.0000000000000000e+00  -5.1980364455414576e+02 6.7834946744649710e+02 0.0000000000000000e+00 6.7834946744649710e+02 -8.6326300912615307e+02 0.0000000000000000e+00 0.0000000000000000e+00 0.0000000000000000e+00 0.0000000000000000e+00  -5.5963070761233530e+02 -4.3481389189704237e+02 0.0000000000000000e+00 -4.3481389189704237e+02 -2.6710414520461273e+02 0.0000000000000000e+00 0.0000000000000000e+00 0.0000000000000000e+00 0.0000000000000000e+00  -9.2566714270168018e+02 7.6044000948295661e+02 0.0000000000000000e+00 7.6044000948295661e+02 -5.5328275714002314e+02 0.0000000000000000e+00 0.0000000000000000e+00 0.0000000000000000e+00 0.0000000000000000e+00  -4.0795039337489743e+02 -4.7427101065966622e+02 0.0000000000000000e+00 -4.7427101065966622e+02 -6.0749023286281397e+02 0.0000000000000000e+00 0.0000000000000000e+00 0.0000000000000000e+00 0.0000000000000000e+00  -1.4312575505246858e+02 -1.0608454356195431e+02 0.0000000000000000e+00 -1.0608454356195431e+02 -8.1302089017897586e+01 0.0000000000000000e+00 0.0000000000000000e+00 0.0000000000000000e+00 0.0000000000000000e+00  -5.9100233470942374e+02 -5.5039739437271282e+02 0.0000000000000000e+00 -5.5039739437271282e+02 -4.1943459982608204e+02 0.0000000000000000e+00 0.0000000000000000e+00 0.0000000000000000e+00 0.0000000000000000e+00  -5.3729005502907050e+01 -7.3831293892607917e+01 0.0000000000000000e+00 -7.3831293892607917e+01 -9.5688980687103125e+01 0.0000000000000000e+00 0.0000000000000000e+00 0.0000000000000000e+00 0.0000000000000000e+00  2.5723698247513687e+02 -2.2859024866335233e+02 0.0000000000000000e+00 -2.2859024866335233e+02 2.3653023792405565e+03 0.0000000000000000e+00 0.0000000000000000e+00 0.0000000000000000e+00 0.0000000000000000e+00  -6.9785648621565883e+01 -6.1281991065037019e+01 0.0000000000000000e+00 -6.1281991065037019e+01 -3.7097797992590749e+01 0.0000000000000000e+00 0.0000000000000000e+00 0.0000000000000000e+00 0.0000000000000000e+00  -2.2490745595327348e+02 1.4812541390200550e+02 0.0000000000000000e+00 1.4812541390200550e+02 -7.9768604266583225e+01 0.0000000000000000e+00 0.0000000000000000e+00 0.0000000000000000e+00 0.0000000000000000e+00  -1.2803422910908321e+02 8.1508876463123883e+01 0.0000000000000000e+00 8.1508876463123883e+01 -4.7858129274696694e+01 0.0000000000000000e+00 0.0000000000000000e+00 0.0000000000000000e+00 0.0000000000000000e+00  -1.1592840658173026e+01 7.0111672476744261e+01 0.0000000000000000e+00 7.0111672476744261e+01 -1.1803284096567482e+02 0.0000000000000000e+00 0.0000000000000000e+00 0.0000000000000000e+00 0.0000000000000000e+00  -4.2300571634089022e+02 -4.7308503660336595e+02 0.0000000000000000e+00 -4.7308503660336595e+02 -3.7209825385530985e+02 0.0000000000000000e+00 0.0000000000000000e+00 0.0000000000000000e+00 0.0000000000000000e+00  2.3591622065339919e+01 -1.1185520762197569e+02 0.0000000000000000e+00 -1.1185520762197569e+02 3.9447836032202855e+02 0.0000000000000000e+00 0.0000000000000000e+00 0.0000000000000000e+00 0.0000000000000000e+00  -5.7419516345774593e+02 -4.7801354662822541e+02 0.0000000000000000e+00 -4.7801354662822541e+02 -5.0520164429550721e+02 0.0000000000000000e+00 0.0000000000000000e+00 0.0000000000000000e+00 0.0000000000000000e+00  -4.1188259087304630e+02 4.8465836998009502e+02 0.0000000000000000e+00 4.8465836998009502e+02 -3.9026041083929590e+02 0.0000000000000000e+00 0.0000000000000000e+00 0.0000000000000000e+00 0.0000000000000000e+00  -2.6576743121871766e+02 -4.3919446505084323e+02 0.0000000000000000e+00 -4.3919446505084323e+02 -5.1747610301752979e+02 0.0000000000000000e+00 0.0000000000000000e+00 0.0000000000000000e+00 0.0000000000000000e+00  -5.9080014920735459e+02 4.9626931537292648e+02 0.0000000000000000e+00 4.9626931537292648e+02 -5.0302200199585661e+02 0.0000000000000000e+00 0.0000000000000000e+00 0.0000000000000000e+00 0.0000000000000000e+00  -1.1436082738783638e+01 1.1302006485322886e+01 0.0000000000000000e+00 1.1302006485322886e+01 5.2510445699359245e+01 0.0000000000000000e+00 0.0000000000000000e+00 0.0000000000000000e+00 0.0000000000000000e+00  -2.9827078606994195e+02 4.4662522843870352e+02 0.0000000000000000e+00 4.4662522843870352e+02 -5.6012998656361140e+02 0.0000000000000000e+00 0.0000000000000000e+00 0.0000000000000000e+00 0.0000000000000000e+00  7.1212599088339957e+01 1.7966028921033150e+01 0.0000000000000000e+00 1.7966028921033150e+01 -1.9156765718646216e+02 0.0000000000000000e+00 0.0000000000000000e+00 0.0000000000000000e+00 0.0000000000000000e+00  5.0093863888109595e+01 -1.7998540210134262e+01 0.0000000000000000e+00 -1.7998540210134255e+01 -5.3906171308873934e+02 0.0000000000000000e+00 0.0000000000000000e+00 0.0000000000000000e+00 0.0000000000000000e+00  1.1627778434691957e+02 -2.9869256869715764e+02 0.0000000000000000e+00 -2.9869256869715764e+02 5.8634603261609107e+02 0.0000000000000000e+00 0.0000000000000000e+00 0.0000000000000000e+00 0.0000000000000000e+00  -4.4775894663704619e+01 -2.2945013912307216e-01 0.0000000000000000e+00 -2.2945013912307216e-01 1.4309409252726033e+02 0.0000000000000000e+00 0.0000000000000000e+00 0.0000000000000000e+00 0.0000000000000000e+00  8.6827946286502211e+01 -3.9878471471990892e+01 0.0000000000000000e+00 -3.9878471471990892e+01 2.0755250004631330e+03 0.0000000000000000e+00 0.0000000000000000e+00 0.0000000000000000e+00 0.0000000000000000e+00  9.1359583522513645e+01 -3.0856630289482066e+01 0.0000000000000000e+00 -3.0856630289482066e+01 -2.5845745728014424e+02 0.0000000000000000e+00 0.0000000000000000e+00 0.0000000000000000e+00 0.0000000000000000e+00  7.4412153816140119e+01 2.7789793511489171e+02 0.0000000000000000e+00 2.7789793511489171e+02 5.9343686754182716e+02 0.0000000000000000e+00 0.0000000000000000e+00 0.0000000000000000e+00 0.0000000000000000e+00  -5.4879177882283466e+02 4.1988236824082776e+02 0.0000000000000000e+00 4.1988236824082776e+02 -2.7233918347220060e+02 0.0000000000000000e+00 0.0000000000000000e+00 0.0000000000000000e+00 0.0000000000000000e+00  -4.1765218849873884e+02 5.0252146097180821e+02 0.0000000000000000e+00 5.0252146097180821e+02 -6.2454286318945310e+02 0.0000000000000000e+00 0.0000000000000000e+00 0.0000000000000000e+00 0.0000000000000000e+00  -7.5778813274955041e+02 -5.7168572892271493e+02 0.0000000000000000e+00 -5.7168572892271493e+02 -3.3266501121156148e+02 0.0000000000000000e+00 0.0000000000000000e+00 0.0000000000000000e+00 0.0000000000000000e+00  -6.0843834966800273e+02 5.3439531821410287e+02 0.0000000000000000e+00 5.3439531821410287e+02 -4.0523544959605715e+02 0.0000000000000000e+00 0.0000000000000000e+00 0.0000000000000000e+00 0.0000000000000000e+00  -5.2064678983964666e+02 -6.3874051187476925e+02 0.0000000000000000e+00 -6.3874051187476925e+02 -8.2983438139131169e+02 0.0000000000000000e+00 0.0000000000000000e+00 0.0000000000000000e+00 0.0000000000000000e+00  -2.3419342057963979e+02 -1.3770639147987350e+02 0.0000000000000000e+00 -1.3770639147987350e+02 -7.7353806651013585e+01 0.0000000000000000e+00 0.0000000000000000e+00 0.0000000000000000e+00 0.0000000000000000e+00  -8.7673695073861245e+02 -7.8204818698871929e+02 0.0000000000000000e+00 -7.8204818698871929e+02 -5.9502095000065913e+02 0.0000000000000000e+00 0.0000000000000000e+00 0.0000000000000000e+00 0.0000000000000000e+00  -1.7348470901268680e+01 -8.6289149992971389e+01 0.0000000000000000e+00 -8.62891