<?xml version="1.0"?>
<VTKFile type="UnstructuredGrid"  version="0.1"  >
<UnstructuredGrid>
<Piece  NumberOfPoints="4855" NumberOfCells="8780">
<Points>
<DataArray  type="Float64"  NumberOfComponents="3"  format="ascii">0.9483880164242298 0.6836931311526558 0  0.9494264999197789 0.6847056440044139 0  0.9494005292759887 0.6847228078606633 0  0.9735520289385229 0.7444444444444445 0  0.9494005292759886 0.8041660810282256 0  0.94942649991978 0.8041832448844759 0  0.9483880175070514 0.8051957566534116 0  3.131175874138137e-16 0.09811450876034808 0  0.06838800723463068 0.1543033514199101 0  0.05161198249294494 0.1948042433465922 0  0.0505735000802211 0.1958167551155251 0  0.05059947072401128 0.1958339189717744 0  0.0505994707240113 0.3152771921393367 0  0.05057350008021998 0.315294355995587 0  0.05161198357913653 0.3163068688507105 0  0.06838800723463068 0.356807759691201 0  3.252606517456513e-16 0.4129966023507631 0  -1.795438797635995e-16 0.4839416311832997 0  0.07083274769489223 0.4605116403870998 0  0.07084991155114129 0.4605376110308903 0  0.07186242331670639 0.4594991286215342 0  0.1696402113702762 0.5 0  0.07186242332008326 0.5405008713818427 0  0.0708499115511413 0.5394623889691096 0  0.07083274769489219 0.5394883596129002 0  -1.925543058334256e-16 0.5160583688167003 0  1.484923295436147e-15 0.5870033976492365 0  0.06838800723463068 0.643192240308799 0  0.05161198249294541 0.6836931322354806 0  0.05057350008022109 0.6847056440044139 0  0.0505994707240113 0.6847228078606633 0  0.0505994707240113 0.8041660810282256 0  0.05057350008021999 0.804183244884476 0  0.05161198249294764 0.8051957566534106 0  0.06838800723463068 0.84569664858009 0  1.485790657174135e-15 0.9018854912396524 0  0 1 0  1 1 0  0.9999999999999987 0.9018854912396523 0  1.000000000000001 0.5870033976492375 0  1 0.5160583688167003 0  0.9291672523051078 0.5394883596129003 0  0.9291500884488585 0.5394623889691117 0  0.9281375755937461 0.5405008724680134 0  0.9281375755937372 0.4594991275319777 0  0.9291500884488586 0.4605376110308884 0  0.9291672523051077 0.4605116403870997 0  1 0.4839416311832997 0  0.9999999999999987 0.4129966023507635 0  0.948388017507054 0.31630686776452 0  0.94942649991978 0.3152943559955871 0  0.9494005292759886 0.3152771921393367 0  0.9735520289385229 0.2555555555555555 0  0.9494005292759888 0.1958339189717744 0  0.9494264999197789 0.1958167551155251 0  0.9483880164208631 0.1948042422604003 0  1.000000000000001 0.09811450876034861 0  1 0 0  0 0 0  0.1958339189717744 0.2950439151684559 0  0.1958167551155252 0.2950179445246672 0  0.3152771921393367 0.2950439151684557 0  0.1948042433481841 0.2960564269357975 0  0.3152943559955858 0.2950179445246651 0  0.1948042422604031 0.2150546830875326 0  0.3163068677645244 0.2960564269373949 0  0.1958167551155251 0.2160931665864439 0  0.4140846558147206 0.2555555555555555 0  0.1958339189717744 0.2160671959426553 0  0.3163068688489276 0.215054683089313 0  0.3152771921393367 0.2160671959426553 0  0.3152943559955858 0.2160931665864459 0  0.5405008724680257 0.3163068688507107 0  0.5572768961235196 0.356807759691201 0  0.5394623889691089 0.3152943559955871 0  0.459499128618165 0.3163068677645201 0  0.5394883596129003 0.3152771921393367 0  0.4605376110308911 0.3152943559955871 0  0.5394883596129001 0.1958339189717744 0  0.4605116403870998 0.3152771921393367 0  0.53946238896911 0.1958167551155251 0  0.4846631400496339 0.2555555555555555 0  0.5405008724680251 0.1948042422604009 0  0.4605116403870998 0.1958339189717744 0  0.5572768961235196 0.1543033514199101 0  0.46053761103089 0.1958167551155251 0  0.4594991286269881 0.1948042433554141 0  0.6847228078606633 0.2950439151684559 0  0.684705644004414 0.2950179445246672 0  0.8041660810282256 0.2950439151684557 0  0.683693131164073 0.2960564280087975 0  0.8041832448844747 0.2950179445246651 0  0.6836931322354718 0.2150546841737125 0  0.8051957566534156 0.2960564269373971 0  0.6847056440044141 0.2160931665864439 0  0.9029735447036096 0.2555555555555555 0  0.6847228078606632 0.2160671959426553 0  0.8051957577274008 0.2150546830997286 0  0.8041660810282256 0.2160671959426553 0  0.8041832448844747 0.2160931665864459 0  0.2960564280235811 0.560751313295155 0  0.3128324516790751 0.6012522041356455 0  0.2950179445246645 0.5597388004400315 0  0.2150546830875235 0.5607513132951615 0  0.2950439151684557 0.5597216365837812 0  0.2160931665864466 0.5597388004400314 0  0.2950439151684558 0.4402783634162188 0  0.2160671959426553 0.5597216365837812 0  0.2950179445246656 0.4402611995599696 0  0.2402186956051895 0.5 0  0.29605642693739 0.439248687791036 0  0.2160671959426553 0.4402783634162189 0  0.3128324516790751 0.3987477958643545 0  0.2160931665864455 0.4402611995599696 0  0.2150546830875296 0.4392486867048446 0  0.1958339189717743 0.7839328040573448 0  0.1958167551155252 0.7839068334135562 0  0.3152771921393367 0.7839328040573447 0  0.1948042422604028 0.7849453169124678 0  0.3152943559955858 0.783906833413554 0  0.1948042433465913 0.7039435730626098 0  0.3163068677645284 0.7849453158262878 0  0.1958167551155251 0.7049820554753328 0  0.4140846558147206 0.7444444444444445 0  0.1958339189717744 0.7049560848315441 0  0.3163068688486237 0.7039435719785058 0  0.3152771921393367 0.7049560848315441 0  0.3152943559955858 0.7049820554753349 0  0.4402783634162188 0.5394883596129003 0  0.4402611995599696 0.5394623889691117 0  0.5597216365837812 0.5394883596129002 0  0.4392486867048468 0.5405008724680237 0  0.5597388004400302 0.5394623889691096 0  0.4392486877998708 0.4594991286270004 0  0.5607513122089726 0.540500871381843 0  0.4402611995599696 0.4605376110308884 0  0.6585291002591651 0.5 0  0.4402783634162188 0.4605116403870998 0  0.5607513121946796 0.45949912863245 0  0.5597216365837812 0.4605116403870998 0  0.5597388004400302 0.4605376110308904 0  0.78494531690701 0.5607513132896949 0  0.8017213405679641 0.6012522041356455 0  0.7839068334135535 0.5597388004400315 0  0.7039435730626069 0.5607513122089671 0  0.7839328040573448 0.5597216365837812 0  0.7049820554753355 0.5597388004400314 0  0.7839328040573448 0.4402783634162188 0  0.7049560848315441 0.5597216365837812 0  0.7839068334135545 0.4402611995599696 0  0.7291075844940784 0.5 0  0.784945315826279 0.4392486877910359 0  0.7049560848315444 0.4402783634162188 0  0.8017213405679641 0.3987477958643545 0  0.7049820554753344 0.4402611995599696 0  0.7039435719764182 0.4392486867048443 0  0.5405008724625655 0.8051957577341393 0  0.5572768961235196 0.84569664858009 0  0.539462388969109 0.804183244884476 0  0.4594991286181648 0.8051957566534091 0  0.5394883596129003 0.8041660810282256 0  0.4605376110308911 0.804183244884476 0  0.5394883596129003 0.6847228078606633 0  0.4605116403870998 0.8041660810282256 0  0.53946238896911 0.6847056440044139 0  0.4846631400496339 0.7444444444444445 0  0.5405008713818347 0.6836931322354802 0  0.4605116403870998 0.6847228078606633 0  0.5572768961235196 0.643192240308799 0  0.46053761103089 0.6847056440044139 0  0.4594991275353449 0.6836931311526599 0  0.6847228078606633 0.7839328040573448 0  0.684705644004414 0.7839068334135562 0  0.8041660810282256 0.7839328040573447 0  0.6836931311493016 0.7849453169124578 0  0.8041832448844747 0.783906833413554 0  0.68369313223548 0.7039435730626096 0  0.805195756653417 0.7849453158262875 0  0.6847056440044141 0.7049820554753328 0  0.9029735447036096 0.7444444444444445 0  0.6847228078606633 0.7049560848315441 0  0.805195757738809 0.7039435719772094 0  0.8041660810282256 0.7049560848315441 0  0.8041832448844747 0.7049820554753349 0  0.9578164230213342 0.6948838683471341 0  0.9645772892192558 0.7062137009141434 0  0.9695236884064815 0.7184451175460498 0  0.972538971146615 0.7312896684428197 0  0.9725389711466151 0.7575992204460691 0  0.9695236884064815 0.7704437713428391 0  0.9645772892192558 0.7826751879747456 0  0.9578164230213342 0.7940050205417549 0  0.01437766570919127 0.09711967848259151 0  0.02854851642641832 0.09974531144948819 0  0.04161535472570586 0.1058251712658871 0  0.05275088139110013 0.1149743244732108 0  0.06125007411586489 0.1266135117968212 0  0.06657482449792251 0.1400058227212122 0  0.06643634307317195 0.1691277076584997 0  0.06071435336153361 0.1829418078690686 0  0.04134737123322858 0.3039103077764334 0  0.03416190609801732 0.2911362521989113 0  0.02925217947541549 0.2773267630846004 0  0.02676106927623143 0.2628837102534819 0  0.02676106927623143 0.2482274008576293 0  0.02925217947541547 0.2337843480265108 0  0.03416190609801727 0.2199748589121999 0  0.04134737123322851 0.2072008033346779 0  0.06071435387356935 0.328169304128914 0  0.06643634320569657 0.3419834039471998 0  0.06657482449792249 0.371105288389899 0  0.06125007411586481 0.3844975993142901 0  0.05275088139109994 0.3961367866379005 0  0.04161535472570563 0.4052859398452242 0  0.02854851642641818 0.411365799661623 0  0.01437766570919127 0.4139914326285196 0  0 0.4697526254167924 0  0 0.455563619650285 0  0 0.4413746138837777 0  0 0.4271856081172704 0  0.06095233986089402 0.4687284952262988 0  0.04995687430503332 0.4753797281664747 0  0.03809234373417287 0.4803165365228644 0  0.02562418374773841 0.4834284730529493 0  0.01283133446055119 0.4846459169037758 0  0.08372485599813187 0.4503967593658507 0  0.09753895276796982 0.4446747697099958 0  0.1123633055586467 0.4427231038764812 0  0.1271876590095525 0.4446747646950606 0  0.1410017577150834 0.45039674967774 0  0.1528641934757506 0.4594991149204779 0  0.161966560724962 0.471361549141524 0  0.1676885480442292 0.4851756468792086 0  0.1676885480443665 0.514824353120279 0  0.1619665607254926 0.528638450857557 0  0.1528641934768762 0.5405008850783964 0  0.1410017577169217 0.5496032503211987 0  0.1271876590121153 0.5553252353042526 0  0.1123633055618306 0.5572768961235188 0  0.09753895277155772 0.5553252302909656 0  0.08372485600180817 0.5496032406362719 0  0.0128313344605512 0.5153540830962242 0  0.0256241837477384 0.5165715269470507 0  0.03809234373417282 0.5196834634771356 0  0.04995687430503334 0.5246202718335253 0  0.06095233986089401
[...]
<PointData  Tensors="$\sigma$"> 
<DataArray  type="Float64"  Name="$\sigma$"  NumberOfComponents="9" format="ascii">-2.0717305053068771e+03 -2.2644704931833112e+03 0.0000000000000000e+00 -2.2644704931833116e+03 -2.1550715958929331e+03 0.0000000000000000e+00 0.0000000000000000e+00 0.0000000000000000e+00 0.0000000000000000e+00  -4.3218675663938438e+03 -3.6531255100406393e+03 0.0000000000000000e+00 -3.6531255100406388e+03 -3.6189619100316650e+03 0.0000000000000000e+00 0.0000000000000000e+00 0.0000000000000000e+00 0.0000000000000000e+00  -1.6729223757183638e+03 -2.3683760353191237e+03 0.0000000000000000e+00 -2.3683760353191237e+03 -2.6981318970216930e+03 0.0000000000000000e+00 0.0000000000000000e+00 0.0000000000000000e+00 0.0000000000000000e+00  9.9552693587253231e+01 4.3464752433559546e+01 0.0000000000000000e+00 4.3464752433559546e+01 -3.8780203246124834e+03 0.0000000000000000e+00 0.0000000000000000e+00 0.0000000000000000e+00 0.0000000000000000e+00  -1.4818500089757658e+03 1.9335138615024819e+03 0.0000000000000000e+00 1.9335138615024825e+03 -2.2160168552048299e+03 0.0000000000000000e+00 0.0000000000000000e+00 0.0000000000000000e+00 0.0000000000000000e+00  -3.4593620090961826e+03 3.1352871568833230e+03 0.0000000000000000e+00 3.1352871568833225e+03 -3.3262146214699646e+03 0.0000000000000000e+00 0.0000000000000000e+00 0.0000000000000000e+00 0.0000000000000000e+00  -1.5738284839533530e+03 1.6184710585314356e+03 0.0000000000000000e+00 1.6184710585314363e+03 -1.2736399141918787e+03 0.0000000000000000e+00 0.0000000000000000e+00 0.0000000000000000e+00 0.0000000000000000e+00  -8.9469824799906199e+00 -3.5696078242783016e+00 0.0000000000000000e+00 -3.5696078242783074e+00 -7.5866730438244128e+00 0.0000000000000000e+00 0.0000000000000000e+00 0.0000000000000000e+00 0.0000000000000000e+00  9.2023040927791897e+01 3.4840601657529312e+01 0.0000000000000000e+00 3.4840601657529334e+01 4.6594019802024532e+03 0.0000000000000000e+00 0.0000000000000000e+00 0.0000000000000000e+00 0.0000000000000000e+00  -1.5215012827512571e+03 1.5762543375115886e+03 0.0000000000000000e+00 1.5762543375115886e+03 -1.3892863878975597e+03 0.0000000000000000e+00 0.0000000000000000e+00 0.0000000000000000e+00 0.0000000000000000e+00  -3.4446633459222421e+03 3.0502201056850877e+03 0.0000000000000000e+00 3.0502201056850877e+03 -3.1796006571404155e+03 0.0000000000000000e+00 0.0000000000000000e+00 0.0000000000000000e+00 0.0000000000000000e+00  -1.3933340867796464e+03 1.8967447350384073e+03 0.0000000000000000e+00 1.8967447350384073e+03 -2.0992559006794172e+03 0.0000000000000000e+00 0.0000000000000000e+00 0.0000000000000000e+00 0.0000000000000000e+00  -1.6354633371970488e+03 -2.2695153158067956e+03 0.0000000000000000e+00 -2.2695153158067960e+03 -2.5241284983815776e+03 0.0000000000000000e+00 0.0000000000000000e+00 0.0000000000000000e+00 0.0000000000000000e+00  -4.2391717523400466e+03 -3.5111601043628739e+03 0.0000000000000000e+00 -3.5111601043628739e+03 -3.5293849994999714e+03 0.0000000000000000e+00 0.0000000000000000e+00 0.0000000000000000e+00 0.0000000000000000e+00  -1.9547997122483953e+03 -2.2821996367463821e+03 0.0000000000000000e+00 -2.2821996367463817e+03 -2.1650369645595392e+03 0.0000000000000000e+00 0.0000000000000000e+00 0.0000000000000000e+00 0.0000000000000000e+00  7.3118678000287019e+01 -1.5832914672221976e+01 0.0000000000000000e+00 -1.5832914672221898e+01 1.7287777760457318e+03 0.0000000000000000e+00 0.0000000000000000e+00 0.0000000000000000e+00 0.0000000000000000e+00  5.2549023166717157e-01 -3.7941222267224761e-01 0.0000000000000000e+00 -3.7941222267224739e-01 -2.5990263078193578e+00 0.0000000000000000e+00 0.0000000000000000e+00 0.0000000000000000e+00 0.0000000000000000e+00  -6.4563827866033083e-02 1.5417017689235935e-01 0.0000000000000000e+00 1.5417017689235910e-01 2.9821336029342427e-01 0.0000000000000000e+00 0.0000000000000000e+00 0.0000000000000000e+00 0.0000000000000000e+00  -1.9855813244739853e+01 1.8876577544398728e+01 0.0000000000000000e+00 1.8876577544398742e+01 -1.0420402740920345e+01 0.0000000000000000e+00 0.0000000000000000e+00 0.0000000000000000e+00 0.0000000000000000e+00  -9.0811208153259102e+00 2.7829828386309838e+00 0.0000000000000000e+00 2.7829828386310052e+00 -1.6140275736414996e+01 0.0000000000000000e+00 0.0000000000000000e+00 0.0000000000000000e+00 0.0000000000000000e+00  -4.3438708202237386e+01 5.2729584438988084e+01 0.0000000000000000e+00 5.2729584438988056e+01 -4.6686511833127049e+01 0.0000000000000000e+00 0.0000000000000000e+00 0.0000000000000000e+00 0.0000000000000000e+00  3.3617020024428898e+03 2.9054369378976187e+01 0.0000000000000000e+00 2.9054369378976187e+01 1.5373374492080722e+04 0.0000000000000000e+00 0.0000000000000000e+00 0.0000000000000000e+00 0.0000000000000000e+00  -4.6555633190376284e+01 -7.2041190131199841e+01 0.0000000000000000e+00 -7.2041190131199841e+01 -3.8433091805537984e+01 0.0000000000000000e+00 0.0000000000000000e+00 0.0000000000000000e+00 0.0000000000000000e+00  1.6697315425236148e+01 3.5179404731061958e+01 0.0000000000000000e+00 3.5179404731061972e+01 -4.6318045683335765e+00 0.0000000000000000e+00 0.0000000000000000e+00 0.0000000000000000e+00 0.0000000000000000e+00  -2.0236391443339951e+01 -1.6225336155041809e+01 0.0000000000000000e+00 -1.6225336155041820e+01 -5.0397335640475349e+00 0.0000000000000000e+00 0.0000000000000000e+00 0.0000000000000000e+00 0.0000000000000000e+00  -1.2655794423338390e-01 -2.2414215029708726e-01 0.0000000000000000e+00 -2.2414215029708745e-01 1.5234671227918931e-01 0.0000000000000000e+00 0.0000000000000000e+00 0.0000000000000000e+00 0.0000000000000000e+00  1.3406796993455026e+00 -1.7580872461600212e+00 0.0000000000000000e+00 -1.7580872461600217e+00 -9.0551609053344362e-02 0.0000000000000000e+00 0.0000000000000000e+00 0.0000000000000000e+00 0.0000000000000000e+00  6.1954443110824549e+01 -3.6263982537316018e+01 0.0000000000000000e+00 -3.6263982537316060e+01 1.7784054095419749e+03 0.0000000000000000e+00 0.0000000000000000e+00 0.0000000000000000e+00 0.0000000000000000e+00  -1.9548879879121750e+03 2.2895816241722719e+03 0.0000000000000000e+00 2.2895816241722719e+03 -2.1511271402103307e+03 0.0000000000000000e+00 0.0000000000000000e+00 0.0000000000000000e+00 0.0000000000000000e+00  -4.0720911560772465e+03 3.3071573728184694e+03 0.0000000000000000e+00 3.3071573728184703e+03 -3.0211740152528519e+03 0.0000000000000000e+00 0.0000000000000000e+00 0.0000000000000000e+00 0.0000000000000000e+00  -1.5443012728946751e+03 2.1863066959362263e+03 0.0000000000000000e+00 2.1863066959362263e+03 -2.8026272139188318e+03 0.0000000000000000e+00 0.0000000000000000e+00 0.0000000000000000e+00 0.0000000000000000e+00  -1.3914754546375711e+03 -1.9074412392780062e+03 0.0000000000000000e+00 -1.9074412392780062e+03 -2.1441640579094819e+03 0.0000000000000000e+00 0.0000000000000000e+00 0.0000000000000000e+00 0.0000000000000000e+00  -3.4020302366678907e+03 -2.9977910654622083e+03 0.0000000000000000e+00 -2.9977910654622083e+03 -3.2167711299734133e+03 0.0000000000000000e+00 0.0000000000000000e+00 0.0000000000000000e+00 0.0000000000000000e+00  -1.5504795075993711e+03 -1.6023707747116616e+03 0.0000000000000000e+00 -1.6023707747116614e+03 -1.2729588529560692e+03 0.0000000000000000e+00 0.0000000000000000e+00 0.0000000000000000e+00 0.0000000000000000e+00  2.4748727227116791e+02 -1.5240852538663199e+02 0.0000000000000000e+00 -1.5240852538663191e+02 4.3554797022336534e+03 0.0000000000000000e+00 0.0000000000000000e+00 0.0000000000000000e+00 0.0000000000000000e+00  -3.6907441649726273e+01 2.2672127657421253e+01 0.0000000000000000e+00 2.2672127657421246e+01 -1.9465482111760366e+01 0.0000000000000000e+00 0.0000000000000000e+00 0.0000000000000000e+00 0.0000000000000000e+00  2.6111673153540577e-01 4.7548078153286291e+00 0.0000000000000000e+00 4.7548078153286255e+00 3.1593587363977031e+02 0.0000000000000000e+00 0.0000000000000000e+00 0.0000000000000000e+00 0.0000000000000000e+00  1.0233100009776483e+00 -4.7594658811036235e+00 0.0000000000000000e+00 -4.7594658811036146e+00 3.2079100167334508e+02 0.0000000000000000e+00 0.0000000000000000e+00 0.0000000000000000e+00 0.0000000000000000e+00  -5.8016389943188136e+00 -3.1821643094673520e+00 0.0000000000000000e+00 -3.1821643094673644e+00 -1.5976786046597359e+01 0.0000000000000000e+00 0.0000000000000000e+00 0.0000000000000000e+00 0.0000000000000000e+00  2.8093207273449033e-01 -2.8821126459135321e-01 0.0000000000000000e+00 -2.8821126459135255e-01 -2.5036675773338448e+00 0.0000000000000000e+00 0.0000000000000000e+00 0.0000000000000000e+00 0.0000000000000000e+00  -1.1038872693227635e-01 1.9221123641515575e-01 0.0000000000000000e+00 1.9221123641515561e-01 1.8651127961578126e-01 0.0000000000000000e+00 0.0000000000000000e+00 0.0000000000000000e+00 0.0000000000000000e+00  -2.8832707815203250e+01 2.6904573106991197e+01 0.0000000000000000e+00 2.6904573106991222e+01 -1.5191774816384074e+01 0.0000000000000000e+00 0.0000000000000000e+00 0.0000000000000000e+00 0.0000000000000000e+00  -3.0391919803631993e+01 2.8589677718195801e+00 0.0000000000000000e+00 2.8589677718195712e+00 -2.1916443921147472e+01 0.0000000000000000e+00 0.0000000000000000e+00 0.0000000000000000e+00 0.0000000000000000e+00  -1.9620530217687882e+01 5.3443995555124971e+01 0.0000000000000000e+00 5.3443995555124985e+01 -4.2562495936523227e+01 0.0000000000000000e+00 0.0000000000000000e+00 0.0000000000000000e+00 0.0000000000000000e+00  -3.8079997116837696e+01 -6.0570995951102091e+01 0.0000000000000000e+00 -6.0570995951102063e+01 -4.2480208710175930e+01 0.0000000000000000e+00 0.0000000000000000e+00 0.0000000000000000e+00 0.0000000000000000e+00  -2.0185613734746678e+01 -1.1313538384912592e+01 0.0000000000000000e+00 -1.1313538384912622e+01 -3.5303398371736307e+01 0.0000000000000000e+00 0.0000000000000000e+00 0.0000000000000000e+00 0.0000000000000000e+00  -2.4354603990007334e+01 -1.2251755818915804e+01 0.0000000000000000e+00 -1.2251755818915816e+01 -3.0716082888016474e+00 0.0000000000000000e+00 0.0000000000000000e+00 0.0000000000000000e+00 0.0000000000000000e+00  5.3122432595137457e-02 -1.4853242811765582e-01 0.0000000000000000e+00 -1.4853242811765602e-01 1.2368417868265055e-01 0.0000000000000000e+00 0.0000000000000000e+00 0.0000000000000000e+00 0.0000000000000000e+00  -1.8301615300461924e+00 -5.4328335263987571e-01 0.0000000000000000e+00 -5.4328335263987571e-01 -1.2409335111985047e+00 0.0000000000000000e+00 0.0000000000000000e+00 0.0000000000000000e+00 0.0000000000000000e+00  -1.9282454574453452e+03 2.1313688256398004e+03 0.0000000000000000e+00 2.1313688256398004e+03 -1.9593587229282218e+03 0.0000000000000000e+00 0.0000000000000000e+00 0.0000000000000000e+00 0.0000000000000000e+00  -4.1277381716788786e+03 3.4994398814751798e+03 0.0000000000000000e+00 3.4994398814751803e+03 -3.4443746796733071e+03 0.0000000000000000e+00 0.0000000000000000e+00 0.0000000000000000e+00 0.0000000000000000e+00  -1.6615344673227494e+03 2.3099297881834409e+03 0.0000000000000000e+00 2.3099297881834395e+03 -2.7258596663737731e+03 0.0000000000000000e+00 0.0000000000000000e+00 0.0000000000000000e+00 0.0000000000000000e+00  9.8730226169272996e+01 3.6050367994745869e+01 0.0000000000000000e+00 3.6050367994745855e+01 -3.8804985872085554e+03 0.0000000000000000e+00 0.0000000000000000e+00 0.0000000000000000e+00 0.0000000000000000e+00  -1.3711376505228959e+03 -1.9611478471559692e+03 0.0000000000000000e+00 -1.9611478471559692e+03 -2.1823528930127873e+03 0.0000000000000000e+00 0.0000000000000000e+00 0.0000000000000000e+00 0.0000000000000000e+00  -3.8728602710656337e+03 -3.4408744349652998e+03 0.0000000000000000e+00 -3.4408744349652998e+03 -3.4570968379015194e+03 0.0000000000000000e+00 0.0000000000000000e+00 0.0000000000000000e+00 0.0000000000000000e+00  -1.5501973650673485e+03 -1.5717430317083595e+03 0.0000000000000000e+00 -1.5717430317083595e+03 -1.5028251426575957e+03 0.0000000000000000e+00 0.0000000000000000e+00 0.0000000000000000e+00 0.0000000000000000e+00  -3.3705446786246384e+01 1.5486731799264154e+01 0.0000000000000000e+00 1.5486731799264160e+01 -4.1265295190683515e+00 0.0000000000000000e+00 0.0000000000000000e+00 0.0000000000000000e+00 0.0000000000000000e+00  -2.2479273461617610e-02 3.6921211935960638e+00 0.0000000000000000e+00 3.6921211935960723e+00 3.2036289933982891e+02 0.0000000000000000e+00 0.0000000000000000e+00 0.0000000000000000e+00 0.0000000000000000e+00  9.2464673645159337e+01 7.1871403249354202e+01 0.0000000000000000e+00 7.1871403249354202e+01 3.8717414235487831e+02 0.0000000000000000e+00 0.0000000000000000e+00 0.0000000000000000e+00 0.0000000000000000e+00  -4.9724857688221164e+03 4.1076895076735836e+03 0.0000000000000000e+00 4.1076895076735836e+03 -3.0230071975031569e+03 0.0000000000000000e+00 0.0000000000000000e+00 0.0000000000000000e+00 0.0000000000000000e+00  -3.6702309732175049e+03 4.8117212528697082e+03 0.0000000000000000e+00 4.8117212528697082e+03 -6.7316924232029505e+03 0.0000000000000000e+00 0.0000000000000000e+00 0.0000000000000000e+00 0.0000000000000000e+00  -3.6979176527545824e+03 -3.0793447414273614e+03 0.0000000000000000e+00 -3.0793447414273619e+03 -2.1987912800182999e+03 0.0000000000000000e+00 0.0000000000000000e+00 0.0000000000000000e+00 0.0000000000000000e+00  -5.9058594379742872e+03 5.2924162233752386e+03 0.0000000000000000e+00 5.2924162233752386e+03 -4.0073514134967672e+03 0.0000000000000000e+00 0.0000000000000000e+00 0.0000000000000000e+00 0.0000000000000000e+00  -2.7910536799984789e+03 -3.3641817525961465e+03 0.0000000000000000e+00 -3.3641817525961455e+03 -4.7725066570903800e+03 0.0000000000000000e+00 0.0000000000000000e+00 0.0000000000000000e+00 0.0000000000000000e+00  -7.6888423176446020e+02 -6.8473026972461332e+02 0.0000000000000000e+00 -6.8473026972461332e+02 -5.1099545746279728e+02 0.0000000000000000e+00 0.0000000000000000e+00 0.0000000000000000e+00 0.0000000000000000e+00  -4.0456647322015228e+03 -3.8515837180193575e+03 0.0000000000000000e+00 -3.8515837180193580e+03 -2.9954944801057745e+03 0.0000000000000000e+00 0.0000000000000000e+00 0.0000000000000000e+00 0.0000000000000000e+00  -3.0175855020983477e+02 -3.3751746130594552e+02 0.0000000000000000e+00 -3.3751746130594563e+02 -5.4335857080329231e+02 0.0000000000000000e+00 0.0000000000000000e+00 0.0000000000000000e+00 0.0000000000000000e+00  1.9065162373447258e+03 -4.9001995016500643e+02 0.0000000000000000e+00 -4.9001995016500672e+02 1.4958815329566749e+04 0.0000000000000000e+00 0.0000000000000000e+00 0.0000000000000000e+00 0.0000000000000000e+00  -3.4622328477950441e+02 -3.7132924813594116e+02 0.0000000000000000e+00 -3.7132924813594104e+02 -2.9381807965539093e+02 0.0000000000000000e+00 0.0000000000000000e+00 0.0000000000000000e+00 0.0000000000000000e+00  -9.7823891306829034e+02 8.4897449394872399e+02 0.0000000000000000e+00 8.4897449394872376e+02 -5.8006541481044451e+02 0.0000000000000000e+00 0.0000000000000000e+00 0.0000000000000000e+00 0.0000000000000000e+00  -6.8307854401028135e+02 5.1142503580664737e+02 0.0000000000000000e+00 5.1142503580664754e+02 -3.8800445295654220e+02 0.0000000000000000e+00 0.0000000000000000e+00 0.0000000000000000e+00 0.0000000000000000e+00  2.2762211163050878e+02 3.7571437328895271e+01 0.0000000000000000e+00 3.7571437328895215e+01 -3.8418762722320366e+02 0.0000000000000000e+00 0.0000000000000000e+00 0.0000000000000000e+00 0.0000000000000000e+00  -3.0539971655729196e+03 -3.5286426039207081e+03 0.0000000000000000e+00 -3.5286426039207081e+03 -3.1586584389387303e+03 0.0000000000000000e+00 0.0000000000000000e+00 0.0000000000000000e+00 0.0000000000000000e+00  2.7887357704367037e+02 -3.1632143128469107e+02 0.0000000000000000e+00 -3.1632143128469107e+02 2.7899047421334494e+03 0.0000000000000000e+00 0.0000000000000000e+00 0.0000000000000000e+00 0.0000000000000000e+00  -5.6711360397647568e+03 -4.5252051543136713e+03 0.0000000000000000e+00 -4.5252051543136704e+03 -4.5408683996809486e+03 0.0000000000000000e+00 0.0000000000000000e+00 0.0000000000000000e+00 0.0000000000000000e+00  -3.0278460727824577e+03 3.6447590036678280e+03 0.0000000000000000e+00 3.6447590036678266e+03 -3.3239573586650472e+03 0.0000000000000000e+00 0.0000000000000000e+00 0.0000000000000000e+00 0.0000000000000000e+00  -2.3779858216148855e+03 -3.3668137909761722e+03 0.0000000000000000e+00 -3.3668137909761731e+03 -3.9044767533618979e+03 0.0000000000000000e+00 0.0000000000000000e+00 0.0000000000000000e+00 0.0000000000000000e+00  -5.5835040020199040e+03 4.4747585738015923e+03 0.0000000000000000e+00 4.4747585738015941e+03 -4.2781395897058947e+03 0.0000000000000000e+00 0.0000000000000000e+00 0.0000000000000000e+00 0.0000000000000000e+00  6.6509307201436584e+01 -4.2654443077173546e+01 0.0000000000000000e+00 -4.2654443077173525e+01 2.0578213857749392e+02 0.0000000000000000e+00 0.0000000000000000e+00 0.0000000000000000e+00 0.0000000000000000e+00  -2.5778270901341384e+03 3.3997189588740648e+03 0.0000000000000000e+00 3.3997189588740634e+03 -4.1163782919421719e+03 0.0000000000000000e+00 0.0000000000000000e+00 0.0000000000000000e+00 0.0000000000000000e+00  -1.4172640680645161e+03 2.2944005594809823e+03 0.0000000000000000e+00 2.2944005594809819e+03 -3.0391793353815983e+03 0.0000000000000000e+00 0.0000000000000000e+00 0.0000000000000000e+00 0.0000000000000000e+00  1.5592471266865135e+02 -6.6141053582579644e+01 0.0000000000000000e+00 -6.6141053582579588e+01 -3.9816151999018402e+03 0.0000000000000000e+00 0.0000000000000000e+00 0.0000000000000000e+00 0.0000000000000000e+00  9.8369450378219892e+02 -1.9809789278434557e+03 0.0000000000000000e+00 -1.9809789278434550e+03 2.5777563095245268e+03 0.0000000000000000e+00 0.0000000000000000e+00 0.0000000000000000e+00 0.0000000000000000e+00  -3.4319059311950717e+01 2.4447181902761704e+02 0.0000000000000000e+00 2.4447181902761685e+02 7.4387551142514587e+02 0.0000000000000000e+00 0.0000000000000000e+00 0.0000000000000000e+00 0.0000000000000000e+00  5.8957751118738304e+02 -2.0202909127673999e+02 0.0000000000000000e+00 -2.0202909127674010e+02 1.3840659638860716e+04 0.0000000000000000e+00 0.0000000000000000e+00 0.0000000000000000e+00 0.0000000000000000e+00  -1.2346189453827185e+03 -2.3975740928341638e+03 0.0000000000000000e+00 -2.3975740928341634e+03 -3.5886810917538091e+03 0.0000000000000000e+00 0.0000000000000000e+00 0.0000000000000000e+00 0.0000000000000000e+00  8.2968681487451897e+02 1.8286442392506583e+03 0.0000000000000000e+00 1.8286442392506574e+03 2.5573196276035942e+03 0.0000000000000000e+00 0.0000000000000000e+00 0.0000000000000000e+00 0.0000000000000000e+00  -3.6922755643412074e+03 3.0924105214301640e+03 0.0000000000000000e+00 3.0924105214301640e+03 -2.2854342399069046e+03 0.0000000000000000e+00 0.0000000000000000e+00 0.0000000000000000e+00 0.0000000000000000e+00  -3.1610618121725533e+03 3.8247271133061308e+03 0.0000000000000000e+00 3.8247271133061308e+03 -5.1134696420008040e+03 0.0000000000000000e+00 0.0000000000000000e+00 0.0000000000000000e+00 0.0000000000000000e+00  -5.0961047149274073e+03 -4.0787721244949144e+03 0.0000000000000000e+00 -4.0787721244949144e+03 -2.8236490568823438e+03 0.0000000000000000e+00 0.0000000000000000e+00 0.0000000000000000e+00 0.0000000000000000e+00  -4.0589860716611406e+03 3.7551756489048162e+03 0.0000000000000000e+00 3.7551756489048162e+03 -2.9480357589387145e+03 0.0000000000000000e+00 0.0000000000000000e+00 0.0000000000000000e+00 0.0000000000000000e+00  -3.3053273148671083e+03 -4.2283144209303045e+03 0.0000000000000000e+00 -4.2283144209303045e+03 -6.2462486379129714e+03 0.0000000000000000e+00 0.0000000000000000e+00 0.0000000000000000e+00 0.0000000000000000e+00  -1.1260351917706998e+03 -8.3872320062386882e+02 0.0000000000000000e+00 -8.3872320062386893e+02 -6.0300317993766407e+02 0.0000000000000000e+00 0.0000000000000000e+00 0.0000000000000000e+00 0.0000000000000000e+00  -5.6131685135134503e+03 -5.3868503898689314e+03 0.0000000000000000e+00 -5.3868503898689314e+03 -4.1779641109235263e+03 0.0000000000000000e+00 0.0000000000000000e+00 0.0000000000000000e+00 0.0000000000000000e+00  1.9241135847109689e+02 -1.6118791563340804e+02 0.0000000000000000e+00 -1.6118791563340810