<?xml version="1.0"?>
<VTKFile type="UnstructuredGrid"  version="0.1"  >
<UnstructuredGrid>
<Piece  NumberOfPoints="4855" NumberOfCells="8780">
<Points>
<DataArray  type="Float64"  NumberOfComponents="3"  format="ascii">0.9483880164242298 0.6836931311526558 0  0.9494264999197789 0.6847056440044139 0  0.9494005292759887 0.6847228078606633 0  0.9735520289385229 0.7444444444444445 0  0.9494005292759886 0.8041660810282256 0  0.94942649991978 0.8041832448844759 0  0.9483880175070514 0.8051957566534116 0  3.131175874138137e-16 0.09811450876034808 0  0.06838800723463068 0.1543033514199101 0  0.05161198249294494 0.1948042433465922 0  0.0505735000802211 0.1958167551155251 0  0.05059947072401128 0.1958339189717744 0  0.0505994707240113 0.3152771921393367 0  0.05057350008021998 0.315294355995587 0  0.05161198357913653 0.3163068688507105 0  0.06838800723463068 0.356807759691201 0  3.252606517456513e-16 0.4129966023507631 0  -1.795438797635995e-16 0.4839416311832997 0  0.07083274769489223 0.4605116403870998 0  0.07084991155114129 0.4605376110308903 0  0.07186242331670639 0.4594991286215342 0  0.1696402113702762 0.5 0  0.07186242332008326 0.5405008713818427 0  0.0708499115511413 0.5394623889691096 0  0.07083274769489219 0.5394883596129002 0  -1.925543058334256e-16 0.5160583688167003 0  1.484923295436147e-15 0.5870033976492365 0  0.06838800723463068 0.643192240308799 0  0.05161198249294541 0.6836931322354806 0  0.05057350008022109 0.6847056440044139 0  0.0505994707240113 0.6847228078606633 0  0.0505994707240113 0.8041660810282256 0  0.05057350008021999 0.804183244884476 0  0.05161198249294764 0.8051957566534106 0  0.06838800723463068 0.84569664858009 0  1.485790657174135e-15 0.9018854912396524 0  0 1 0  1 1 0  0.9999999999999987 0.9018854912396523 0  1.000000000000001 0.5870033976492375 0  1 0.5160583688167003 0  0.9291672523051078 0.5394883596129003 0  0.9291500884488585 0.5394623889691117 0  0.9281375755937461 0.5405008724680134 0  0.9281375755937372 0.4594991275319777 0  0.9291500884488586 0.4605376110308884 0  0.9291672523051077 0.4605116403870997 0  1 0.4839416311832997 0  0.9999999999999987 0.4129966023507635 0  0.948388017507054 0.31630686776452 0  0.94942649991978 0.3152943559955871 0  0.9494005292759886 0.3152771921393367 0  0.9735520289385229 0.2555555555555555 0  0.9494005292759888 0.1958339189717744 0  0.9494264999197789 0.1958167551155251 0  0.9483880164208631 0.1948042422604003 0  1.000000000000001 0.09811450876034861 0  1 0 0  0 0 0  0.1958339189717744 0.2950439151684559 0  0.1958167551155252 0.2950179445246672 0  0.3152771921393367 0.2950439151684557 0  0.1948042433481841 0.2960564269357975 0  0.3152943559955858 0.2950179445246651 0  0.1948042422604031 0.2150546830875326 0  0.3163068677645244 0.2960564269373949 0  0.1958167551155251 0.2160931665864439 0  0.4140846558147206 0.2555555555555555 0  0.1958339189717744 0.2160671959426553 0  0.3163068688489276 0.215054683089313 0  0.3152771921393367 0.2160671959426553 0  0.3152943559955858 0.2160931665864459 0  0.5405008724680257 0.3163068688507107 0  0.5572768961235196 0.356807759691201 0  0.5394623889691089 0.3152943559955871 0  0.459499128618165 0.3163068677645201 0  0.5394883596129003 0.3152771921393367 0  0.4605376110308911 0.3152943559955871 0  0.5394883596129001 0.1958339189717744 0  0.4605116403870998 0.3152771921393367 0  0.53946238896911 0.1958167551155251 0  0.4846631400496339 0.2555555555555555 0  0.5405008724680251 0.1948042422604009 0  0.4605116403870998 0.1958339189717744 0  0.5572768961235196 0.1543033514199101 0  0.46053761103089 0.1958167551155251 0  0.4594991286269881 0.1948042433554141 0  0.6847228078606633 0.2950439151684559 0  0.684705644004414 0.2950179445246672 0  0.8041660810282256 0.2950439151684557 0  0.683693131164073 0.2960564280087975 0  0.8041832448844747 0.2950179445246651 0  0.6836931322354718 0.2150546841737125 0  0.8051957566534156 0.2960564269373971 0  0.6847056440044141 0.2160931665864439 0  0.9029735447036096 0.2555555555555555 0  0.6847228078606632 0.2160671959426553 0  0.8051957577274008 0.2150546830997286 0  0.8041660810282256 0.2160671959426553 0  0.8041832448844747 0.2160931665864459 0  0.2960564280235811 0.560751313295155 0  0.3128324516790751 0.6012522041356455 0  0.2950179445246645 0.5597388004400315 0  0.2150546830875235 0.5607513132951615 0  0.2950439151684557 0.5597216365837812 0  0.2160931665864466 0.5597388004400314 0  0.2950439151684558 0.4402783634162188 0  0.2160671959426553 0.5597216365837812 0  0.2950179445246656 0.4402611995599696 0  0.2402186956051895 0.5 0  0.29605642693739 0.439248687791036 0  0.2160671959426553 0.4402783634162189 0  0.3128324516790751 0.3987477958643545 0  0.2160931665864455 0.4402611995599696 0  0.2150546830875296 0.4392486867048446 0  0.1958339189717743 0.7839328040573448 0  0.1958167551155252 0.7839068334135562 0  0.3152771921393367 0.7839328040573447 0  0.1948042422604028 0.7849453169124678 0  0.3152943559955858 0.783906833413554 0  0.1948042433465913 0.7039435730626098 0  0.3163068677645284 0.7849453158262878 0  0.1958167551155251 0.7049820554753328 0  0.4140846558147206 0.7444444444444445 0  0.1958339189717744 0.7049560848315441 0  0.3163068688486237 0.7039435719785058 0  0.3152771921393367 0.7049560848315441 0  0.3152943559955858 0.7049820554753349 0  0.4402783634162188 0.5394883596129003 0  0.4402611995599696 0.5394623889691117 0  0.5597216365837812 0.5394883596129002 0  0.4392486867048468 0.5405008724680237 0  0.5597388004400302 0.5394623889691096 0  0.4392486877998708 0.4594991286270004 0  0.5607513122089726 0.540500871381843 0  0.4402611995599696 0.4605376110308884 0  0.6585291002591651 0.5 0  0.4402783634162188 0.4605116403870998 0  0.5607513121946796 0.45949912863245 0  0.5597216365837812 0.4605116403870998 0  0.5597388004400302 0.4605376110308904 0  0.78494531690701 0.5607513132896949 0  0.8017213405679641 0.6012522041356455 0  0.7839068334135535 0.5597388004400315 0  0.7039435730626069 0.5607513122089671 0  0.7839328040573448 0.5597216365837812 0  0.7049820554753355 0.5597388004400314 0  0.7839328040573448 0.4402783634162188 0  0.7049560848315441 0.5597216365837812 0  0.7839068334135545 0.4402611995599696 0  0.7291075844940784 0.5 0  0.784945315826279 0.4392486877910359 0  0.7049560848315444 0.4402783634162188 0  0.8017213405679641 0.3987477958643545 0  0.7049820554753344 0.4402611995599696 0  0.7039435719764182 0.4392486867048443 0  0.5405008724625655 0.8051957577341393 0  0.5572768961235196 0.84569664858009 0  0.539462388969109 0.804183244884476 0  0.4594991286181648 0.8051957566534091 0  0.5394883596129003 0.8041660810282256 0  0.4605376110308911 0.804183244884476 0  0.5394883596129003 0.6847228078606633 0  0.4605116403870998 0.8041660810282256 0  0.53946238896911 0.6847056440044139 0  0.4846631400496339 0.7444444444444445 0  0.5405008713818347 0.6836931322354802 0  0.4605116403870998 0.6847228078606633 0  0.5572768961235196 0.643192240308799 0  0.46053761103089 0.6847056440044139 0  0.4594991275353449 0.6836931311526599 0  0.6847228078606633 0.7839328040573448 0  0.684705644004414 0.7839068334135562 0  0.8041660810282256 0.7839328040573447 0  0.6836931311493016 0.7849453169124578 0  0.8041832448844747 0.783906833413554 0  0.68369313223548 0.7039435730626096 0  0.805195756653417 0.7849453158262875 0  0.6847056440044141 0.7049820554753328 0  0.9029735447036096 0.7444444444444445 0  0.6847228078606633 0.7049560848315441 0  0.805195757738809 0.7039435719772094 0  0.8041660810282256 0.7049560848315441 0  0.8041832448844747 0.7049820554753349 0  0.9578164230213342 0.6948838683471341 0  0.9645772892192558 0.7062137009141434 0  0.9695236884064815 0.7184451175460498 0  0.972538971146615 0.7312896684428197 0  0.9725389711466151 0.7575992204460691 0  0.9695236884064815 0.7704437713428391 0  0.9645772892192558 0.7826751879747456 0  0.9578164230213342 0.7940050205417549 0  0.01437766570919127 0.09711967848259151 0  0.02854851642641832 0.09974531144948819 0  0.04161535472570586 0.1058251712658871 0  0.05275088139110013 0.1149743244732108 0  0.06125007411586489 0.1266135117968212 0  0.06657482449792251 0.1400058227212122 0  0.06643634307317195 0.1691277076584997 0  0.06071435336153361 0.1829418078690686 0  0.04134737123322858 0.3039103077764334 0  0.03416190609801732 0.2911362521989113 0  0.02925217947541549 0.2773267630846004 0  0.02676106927623143 0.2628837102534819 0  0.02676106927623143 0.2482274008576293 0  0.02925217947541547 0.2337843480265108 0  0.03416190609801727 0.2199748589121999 0  0.04134737123322851 0.2072008033346779 0  0.06071435387356935 0.328169304128914 0  0.06643634320569657 0.3419834039471998 0  0.06657482449792249 0.371105288389899 0  0.06125007411586481 0.3844975993142901 0  0.05275088139109994 0.3961367866379005 0  0.04161535472570563 0.4052859398452242 0  0.02854851642641818 0.411365799661623 0  0.01437766570919127 0.4139914326285196 0  0 0.4697526254167924 0  0 0.455563619650285 0  0 0.4413746138837777 0  0 0.4271856081172704 0  0.06095233986089402 0.4687284952262988 0  0.04995687430503332 0.4753797281664747 0  0.03809234373417287 0.4803165365228644 0  0.02562418374773841 0.4834284730529493 0  0.01283133446055119 0.4846459169037758 0  0.08372485599813187 0.4503967593658507 0  0.09753895276796982 0.4446747697099958 0  0.1123633055586467 0.4427231038764812 0  0.1271876590095525 0.4446747646950606 0  0.1410017577150834 0.45039674967774 0  0.1528641934757506 0.4594991149204779 0  0.161966560724962 0.471361549141524 0  0.1676885480442292 0.4851756468792086 0  0.1676885480443665 0.514824353120279 0  0.1619665607254926 0.528638450857557 0  0.1528641934768762 0.5405008850783964 0  0.1410017577169217 0.5496032503211987 0  0.1271876590121153 0.5553252353042526 0  0.1123633055618306 0.5572768961235188 0  0.09753895277155772 0.5553252302909656 0  0.08372485600180817 0.5496032406362719 0  0.0128313344605512 0.5153540830962242 0  0.0256241837477384 0.5165715269470507 0  0.03809234373417282 0.5196834634771356 0  0.04995687430503334 0.5246202718335253 0  0.06095233986089401
[...]
<PointData  Tensors="$\sigma$"> 
<DataArray  type="Float64"  Name="$\sigma$"  NumberOfComponents="9" format="ascii">-4.5828192129841982e+03 -5.7766909782510165e+03 0.0000000000000000e+00 -5.7766909782510220e+03 -5.9696887990420410e+03 0.0000000000000000e+00 0.0000000000000000e+00 0.0000000000000000e+00 0.0000000000000000e+00  -7.5696228647944126e+03 -6.0988729218837798e+03 0.0000000000000000e+00 -6.0988729218837652e+03 -6.0953088346675559e+03 0.0000000000000000e+00 0.0000000000000000e+00 0.0000000000000000e+00 0.0000000000000000e+00  -5.1974217276140853e+03 -5.9280022900884705e+03 0.0000000000000000e+00 -5.9280022900884724e+03 -6.0808136269799834e+03 0.0000000000000000e+00 0.0000000000000000e+00 0.0000000000000000e+00 0.0000000000000000e+00  4.9620046780568572e+01 -2.8863759096577297e+02 0.0000000000000000e+00 -2.8863759096577286e+02 -1.1535838571636745e+04 0.0000000000000000e+00 0.0000000000000000e+00 0.0000000000000000e+00 0.0000000000000000e+00  -5.3626606005002832e+03 6.0822515043338217e+03 0.0000000000000000e+00 6.0822515043338317e+03 -6.8088602395624503e+03 0.0000000000000000e+00 0.0000000000000000e+00 0.0000000000000000e+00 0.0000000000000000e+00  -7.9689607523118266e+03 5.8914298457632322e+03 0.0000000000000000e+00 5.8914298457632322e+03 -5.7935634678141323e+03 0.0000000000000000e+00 0.0000000000000000e+00 0.0000000000000000e+00 0.0000000000000000e+00  -3.7873311064352060e+03 5.4459393735209533e+03 0.0000000000000000e+00 5.4459393735209524e+03 -5.1946305668006953e+03 0.0000000000000000e+00 0.0000000000000000e+00 0.0000000000000000e+00 0.0000000000000000e+00  8.2270717618448046e+01 4.5250473619836189e+00 0.0000000000000000e+00 4.5250473619835816e+00 3.3745387286031423e+01 0.0000000000000000e+00 0.0000000000000000e+00 0.0000000000000000e+00 0.0000000000000000e+00  -4.5219099426565897e+01 7.6210403319371167e+01 0.0000000000000000e+00 7.6210403319370556e+01 8.3250178823587612e+03 0.0000000000000000e+00 0.0000000000000000e+00 0.0000000000000000e+00 0.0000000000000000e+00  -4.4131288157483123e+03 4.8254005963587315e+03 0.0000000000000000e+00 4.8254005963587315e+03 -6.5001302431604854e+03 0.0000000000000000e+00 0.0000000000000000e+00 0.0000000000000000e+00 0.0000000000000000e+00  -7.0343018649620853e+03 6.1366790269489466e+03 0.0000000000000000e+00 6.1366790269489484e+03 -4.3072048804995584e+03 0.0000000000000000e+00 0.0000000000000000e+00 0.0000000000000000e+00 0.0000000000000000e+00  -5.3831077381669675e+03 5.9454184048729430e+03 0.0000000000000000e+00 5.9454184048729494e+03 -6.7029220405057540e+03 0.0000000000000000e+00 0.0000000000000000e+00 0.0000000000000000e+00 0.0000000000000000e+00  -4.5769148861793483e+03 -6.0196701337867162e+03 0.0000000000000000e+00 -6.0196701337867080e+03 -5.2591318895104660e+03 0.0000000000000000e+00 0.0000000000000000e+00 0.0000000000000000e+00 0.0000000000000000e+00  -9.0411154729371465e+03 -6.0687756470218710e+03 0.0000000000000000e+00 -6.0687756470218783e+03 -7.0542346760180471e+03 0.0000000000000000e+00 0.0000000000000000e+00 0.0000000000000000e+00 0.0000000000000000e+00  -3.6256197831018139e+03 -5.7518644931108947e+03 0.0000000000000000e+00 -5.7518644931108811e+03 -5.7859247285315796e+03 0.0000000000000000e+00 0.0000000000000000e+00 0.0000000000000000e+00 0.0000000000000000e+00  3.5185490917522179e+02 2.0060479607811622e+01 0.0000000000000000e+00 2.0060479607811999e+01 1.0341965220737507e+03 0.0000000000000000e+00 0.0000000000000000e+00 0.0000000000000000e+00 0.0000000000000000e+00  5.2806006824467495e+00 4.3260647094923810e+00 0.0000000000000000e+00 4.3260647094923810e+00 -7.9076275510578951e+00 0.0000000000000000e+00 0.0000000000000000e+00 0.0000000000000000e+00 0.0000000000000000e+00  -4.8738289286333858e+00 1.3619950224841360e+00 0.0000000000000000e+00 1.3619950224841382e+00 3.7665319959377581e+00 0.0000000000000000e+00 0.0000000000000000e+00 0.0000000000000000e+00 0.0000000000000000e+00  -5.0080289899867239e+01 3.6185756010968241e+01 0.0000000000000000e+00 3.6185756010968220e+01 -1.9408852139555627e+01 0.0000000000000000e+00 0.0000000000000000e+00 0.0000000000000000e+00 0.0000000000000000e+00  -4.2003701550031820e+02 3.0517558978590193e+02 0.0000000000000000e+00 3.0517558978590199e+02 -3.3439921339908733e+02 0.0000000000000000e+00 0.0000000000000000e+00 0.0000000000000000e+00 0.0000000000000000e+00  9.8564244205026370e+01 2.4936389816440983e+01 0.0000000000000000e+00 2.4936389816440958e+01 -5.8133657076304939e+00 0.0000000000000000e+00 0.0000000000000000e+00 0.0000000000000000e+00 0.0000000000000000e+00  7.0016109153133884e+03 -3.4547200746501858e+02 0.0000000000000000e+00 -3.4547200746501829e+02 1.9941733239194637e+04 0.0000000000000000e+00 0.0000000000000000e+00 0.0000000000000000e+00 0.0000000000000000e+00  2.6607989811324735e+01 -6.5755411475270606e+01 0.0000000000000000e+00 -6.5755411475270392e+01 -2.1731581163804357e+01 0.0000000000000000e+00 0.0000000000000000e+00 0.0000000000000000e+00 0.0000000000000000e+00  9.8671744822922065e+01 1.9262154487419502e+02 0.0000000000000000e+00 1.9262154487419491e+02 1.3413046501076553e+02 0.0000000000000000e+00 0.0000000000000000e+00 0.0000000000000000e+00 0.0000000000000000e+00  -2.9095990437760427e+01 -3.3151905919667250e+01 0.0000000000000000e+00 -3.3151905919667264e+01 -2.1298181272361067e+01 0.0000000000000000e+00 0.0000000000000000e+00 0.0000000000000000e+00 0.0000000000000000e+00  -1.3095735083924862e+00 2.9898629053390868e-01 0.0000000000000000e+00 2.9898629053390535e-01 2.2157134688956925e+00 0.0000000000000000e+00 0.0000000000000000e+00 0.0000000000000000e+00 0.0000000000000000e+00  -1.0015591207221311e+01 -8.6204955109483450e+00 0.0000000000000000e+00 -8.6204955109483468e+00 -8.9592009638175940e-01 0.0000000000000000e+00 0.0000000000000000e+00 0.0000000000000000e+00 0.0000000000000000e+00  -5.0120641155922719e+01 -1.1971052317851486e+02 0.0000000000000000e+00 -1.1971052317851476e+02 1.1228222243726682e+03 0.0000000000000000e+00 0.0000000000000000e+00 0.0000000000000000e+00 0.0000000000000000e+00  -4.7813654211809080e+03 5.7020738050573864e+03 0.0000000000000000e+00 5.7020738050573727e+03 -6.3360019868647460e+03 0.0000000000000000e+00 0.0000000000000000e+00 0.0000000000000000e+00 0.0000000000000000e+00  -7.3162722608160693e+03 6.1562424646022237e+03 0.0000000000000000e+00 6.1562424646022309e+03 -4.9797391505711421e+03 0.0000000000000000e+00 0.0000000000000000e+00 0.0000000000000000e+00 0.0000000000000000e+00  -5.1289786147655323e+03 5.8278998645888905e+03 0.0000000000000000e+00 5.8278998645888905e+03 -6.8845113230452098e+03 0.0000000000000000e+00 0.0000000000000000e+00 0.0000000000000000e+00 0.0000000000000000e+00  -5.6856106883706516e+03 -6.1429023983615371e+03 0.0000000000000000e+00 -6.1429023983615443e+03 -7.0653277478197970e+03 0.0000000000000000e+00 0.0000000000000000e+00 0.0000000000000000e+00 0.0000000000000000e+00  -7.3952833788719963e+03 -5.9558080716096010e+03 0.0000000000000000e+00 -5.9558080716095928e+03 -5.6742737664595343e+03 0.0000000000000000e+00 0.0000000000000000e+00 0.0000000000000000e+00 0.0000000000000000e+00  -3.8195011681223677e+03 -5.0483206228874496e+03 0.0000000000000000e+00 -5.0483206228874560e+03 -4.7948716478253955e+03 0.0000000000000000e+00 0.0000000000000000e+00 0.0000000000000000e+00 0.0000000000000000e+00  5.3768701569511457e+01 -3.5454170057915883e+02 0.0000000000000000e+00 -3.5454170057916150e+02 8.0133376610888108e+03 0.0000000000000000e+00 0.0000000000000000e+00 0.0000000000000000e+00 0.0000000000000000e+00  -1.1418412771514730e+02 4.8601237777725686e+01 0.0000000000000000e+00 4.8601237777725736e+01 -4.4767283437408970e+01 0.0000000000000000e+00 0.0000000000000000e+00 0.0000000000000000e+00 0.0000000000000000e+00  1.1008313151097111e+00 1.1915211675821260e+01 0.0000000000000000e+00 1.1915211675821254e+01 6.4985537004878324e+02 0.0000000000000000e+00 0.0000000000000000e+00 0.0000000000000000e+00 0.0000000000000000e+00  -8.4363781413119376e-01 -1.6411874729797798e+01 0.0000000000000000e+00 -1.6411874729797855e+01 6.6101626221038373e+02 0.0000000000000000e+00 0.0000000000000000e+00 0.0000000000000000e+00 0.0000000000000000e+00  7.3207023154435333e+01 -2.4385412099330344e+00 0.0000000000000000e+00 -2.4385412099328558e+00 -2.2171728315186947e+01 0.0000000000000000e+00 0.0000000000000000e+00 0.0000000000000000e+00 0.0000000000000000e+00  -1.6562638560683659e+01 -2.5354574511692225e+00 0.0000000000000000e+00 -2.5354574511692256e+00 -3.2953216857312428e-01 0.0000000000000000e+00 0.0000000000000000e+00 0.0000000000000000e+00 0.0000000000000000e+00  5.9072779141971665e-01 1.0642305096757647e+00 0.0000000000000000e+00 1.0642305096757654e+00 -6.0975532263361643e-01 0.0000000000000000e+00 0.0000000000000000e+00 0.0000000000000000e+00 0.0000000000000000e+00  -1.6465338864361062e+01 4.3287397369609009e+00 0.0000000000000000e+00 4.3287397369608511e+00 -4.9507589022281175e+00 0.0000000000000000e+00 0.0000000000000000e+00 0.0000000000000000e+00 0.0000000000000000e+00  -4.8690339187531059e+01 -6.7889705928405121e+01 0.0000000000000000e+00 -6.7889705928405121e+01 2.5231479115792364e+01 0.0000000000000000e+00 0.0000000000000000e+00 0.0000000000000000e+00 0.0000000000000000e+00  6.7776532516470326e+01 6.1327004942021460e+01 0.0000000000000000e+00 6.1327004942021482e+01 -1.8932693226017815e+01 0.0000000000000000e+00 0.0000000000000000e+00 0.0000000000000000e+00 0.0000000000000000e+00  -1.4840483122964875e+01 -6.8883732095328568e+01 0.0000000000000000e+00 -6.8883732095328455e+01 -6.1333401516050813e+01 0.0000000000000000e+00 0.0000000000000000e+00 0.0000000000000000e+00 0.0000000000000000e+00  -2.1154764905712139e+02 -1.6809887194092082e+02 0.0000000000000000e+00 -1.6809887194092082e+02 -1.8999038198289250e+02 0.0000000000000000e+00 0.0000000000000000e+00 0.0000000000000000e+00 0.0000000000000000e+00  -4.6780479486429044e+01 -3.1679239046521463e+01 0.0000000000000000e+00 -3.1679239046521474e+01 -1.2598645879282847e+01 0.0000000000000000e+00 0.0000000000000000e+00 0.0000000000000000e+00 0.0000000000000000e+00  2.6689444572161047e-01 1.4464454112043848e-01 0.0000000000000000e+00 1.4464454112044006e-01 4.5021697842350914e+00 0.0000000000000000e+00 0.0000000000000000e+00 0.0000000000000000e+00 0.0000000000000000e+00  -3.0725180331444109e+00 -1.0158269164474700e+00 0.0000000000000000e+00 -1.0158269164474709e+00 -3.6257439983223696e+00 0.0000000000000000e+00 0.0000000000000000e+00 0.0000000000000000e+00 0.0000000000000000e+00  -5.0495960774321184e+03 5.7586825396216582e+03 0.0000000000000000e+00 5.7586825396216427e+03 -6.1471187892917487e+03 0.0000000000000000e+00 0.0000000000000000e+00 0.0000000000000000e+00 0.0000000000000000e+00  -6.8871034510726531e+03 6.1323371851681877e+03 0.0000000000000000e+00 6.1323371851681914e+03 -5.3649341509463002e+03 0.0000000000000000e+00 0.0000000000000000e+00 0.0000000000000000e+00 0.0000000000000000e+00  -5.3649115687664244e+03 5.8794769165409070e+03 0.0000000000000000e+00 5.8794769165409134e+03 -6.6841599759203455e+03 0.0000000000000000e+00 0.0000000000000000e+00 0.0000000000000000e+00 0.0000000000000000e+00  -1.9500883985314820e+02 -1.8175496490215716e+02 0.0000000000000000e+00 -1.8175496490215599e+02 -1.1802826556400543e+04 0.0000000000000000e+00 0.0000000000000000e+00 0.0000000000000000e+00 0.0000000000000000e+00  -5.2052569321177725e+03 -6.0824927256482160e+03 0.0000000000000000e+00 -6.0824927256482151e+03 -6.1328308416810487e+03 0.0000000000000000e+00 0.0000000000000000e+00 0.0000000000000000e+00 0.0000000000000000e+00  -7.3798264738156022e+03 -6.0920066655496112e+03 0.0000000000000000e+00 -6.0920066655496157e+03 -5.0726798489502644e+03 0.0000000000000000e+00 0.0000000000000000e+00 0.0000000000000000e+00 0.0000000000000000e+00  -4.5825357261818135e+03 -5.1292528509614667e+03 0.0000000000000000e+00 -5.1292528509614622e+03 -6.6557292513482817e+03 0.0000000000000000e+00 0.0000000000000000e+00 0.0000000000000000e+00 0.0000000000000000e+00  -1.8613246363851200e+01 -2.4900599705867039e+00 0.0000000000000000e+00 -2.4900599705868869e+00 -2.3241489106154368e+01 0.0000000000000000e+00 0.0000000000000000e+00 0.0000000000000000e+00 0.0000000000000000e+00  8.0673849108434865e+00 3.6582108308370529e+00 0.0000000000000000e+00 3.6582108308370462e+00 6.5828512270106285e+02 0.0000000000000000e+00 0.0000000000000000e+00 0.0000000000000000e+00 0.0000000000000000e+00  1.5303903575531729e+02 1.2554565386435704e+02 0.0000000000000000e+00 1.2554565386435728e+02 7.8333443242227997e+02 0.0000000000000000e+00 0.0000000000000000e+00 0.0000000000000000e+00 0.0000000000000000e+00  -6.3012030888661257e+03 6.1255708057528009e+03 0.0000000000000000e+00 6.1255708057528000e+03 -5.6639336526487787e+03 0.0000000000000000e+00 0.0000000000000000e+00 0.0000000000000000e+00 0.0000000000000000e+00  -5.2891275548354424e+03 6.3221024747795827e+03 0.0000000000000000e+00 6.3221024747795873e+03 -8.0159582014027092e+03 0.0000000000000000e+00 0.0000000000000000e+00 0.0000000000000000e+00 0.0000000000000000e+00  -6.5464416346241478e+03 -5.8993853955127579e+03 0.0000000000000000e+00 -5.8993853955127679e+03 -5.6605102492030956e+03 0.0000000000000000e+00 0.0000000000000000e+00 0.0000000000000000e+00 0.0000000000000000e+00  -7.5051956307479240e+03 5.9631381396879251e+03 0.0000000000000000e+00 5.9631381396879278e+03 -4.0555652713504683e+03 0.0000000000000000e+00 0.0000000000000000e+00 0.0000000000000000e+00 0.0000000000000000e+00  -7.5500352695146630e+03 -5.8938730465485996e+03 0.0000000000000000e+00 -5.8938730465485960e+03 -8.4357070300037449e+03 0.0000000000000000e+00 0.0000000000000000e+00 0.0000000000000000e+00 0.0000000000000000e+00  -1.2744759895181530e+03 -1.2839911507865343e+03 0.0000000000000000e+00 -1.2839911507865368e+03 -9.9993163359734547e+02 0.0000000000000000e+00 0.0000000000000000e+00 0.0000000000000000e+00 0.0000000000000000e+00  -4.2743208024720689e+03 -6.1802448397949192e+03 0.0000000000000000e+00 -6.1802448397949229e+03 -3.4736000456047259e+03 0.0000000000000000e+00 0.0000000000000000e+00 0.0000000000000000e+00 0.0000000000000000e+00  -4.8893016932368630e+02 -5.5768404622995513e+02 0.0000000000000000e+00 -5.5768404622995479e+02 -1.0781003768994017e+03 0.0000000000000000e+00 0.0000000000000000e+00 0.0000000000000000e+00 0.0000000000000000e+00  3.9625730682373032e+03 3.4730997547721233e+02 0.0000000000000000e+00 3.4730997547721239e+02 1.6766374170199724e+04 0.0000000000000000e+00 0.0000000000000000e+00 0.0000000000000000e+00 0.0000000000000000e+00  -7.5209429199031274e+02 -6.3034664537347032e+02 0.0000000000000000e+00 -6.3034664537347044e+02 -3.4942142715197082e+02 0.0000000000000000e+00 0.0000000000000000e+00 0.0000000000000000e+00 0.0000000000000000e+00  -1.5335893478524640e+03 1.5644899454658619e+03 0.0000000000000000e+00 1.5644899454658612e+03 -1.2682392583951992e+03 0.0000000000000000e+00 0.0000000000000000e+00 0.0000000000000000e+00 0.0000000000000000e+00  -1.1921423712621825e+03 8.4496448091141383e+02 0.0000000000000000e+00 8.4496448091141349e+02 -6.3921629841704976e+02 0.0000000000000000e+00 0.0000000000000000e+00 0.0000000000000000e+00 0.0000000000000000e+00  6.8917628063631764e+02 -4.0964985269272569e+02 0.0000000000000000e+00 -4.0964985269272563e+02 -5.4638194518182885e+01 0.0000000000000000e+00 0.0000000000000000e+00 0.0000000000000000e+00 0.0000000000000000e+00  -3.9892650540631971e+03 -6.0546408360176001e+03 0.0000000000000000e+00 -6.0546408360176001e+03 -5.5474402664630352e+03 0.0000000000000000e+00 0.0000000000000000e+00 0.0000000000000000e+00 0.0000000000000000e+00  1.0147241040108046e+03 9.1010944173851968e+01 0.0000000000000000e+00 9.1010944173850618e+01 9.7908571937281613e+03 0.0000000000000000e+00 0.0000000000000000e+00 0.0000000000000000e+00 0.0000000000000000e+00  -8.0248849592983843e+03 -6.0302913355735500e+03 0.0000000000000000e+00 -6.0302913355735536e+03 -5.9331906332339249e+03 0.0000000000000000e+00 0.0000000000000000e+00 0.0000000000000000e+00 0.0000000000000000e+00  -4.0352641536805950e+03 5.8870929045608418e+03 0.0000000000000000e+00 5.8870929045608373e+03 -6.4635323445882950e+03 0.0000000000000000e+00 0.0000000000000000e+00 0.0000000000000000e+00 0.0000000000000000e+00  -5.3132144793333509e+03 -5.8867247970055705e+03 0.0000000000000000e+00 -5.8867247970055687e+03 -6.8128780455136775e+03 0.0000000000000000e+00 0.0000000000000000e+00 0.0000000000000000e+00 0.0000000000000000e+00  -7.1263442389247448e+03 6.1833113466890918e+03 0.0000000000000000e+00 6.1833113466890936e+03 -4.5238133815967640e+03 0.0000000000000000e+00 0.0000000000000000e+00 0.0000000000000000e+00 0.0000000000000000e+00  2.4801899321362525e+03 5.5624054696450885e+03 0.0000000000000000e+00 5.5624054696450903e+03 -6.7205890357925909e+03 0.0000000000000000e+00 0.0000000000000000e+00 0.0000000000000000e+00 0.0000000000000000e+00  -6.1292706020371143e+03 5.8394820192550442e+03 0.0000000000000000e+00 5.8394820192550524e+03 -7.4497495271154849e+03 0.0000000000000000e+00 0.0000000000000000e+00 0.0000000000000000e+00 0.0000000000000000e+00  -1.7558424359337907e+04 9.8333262959520125e+03 0.0000000000000000e+00 9.8333262959520143e+03 -1.9961765757960151e+04 0.0000000000000000e+00 0.0000000000000000e+00 0.0000000000000000e+00 0.0000000000000000e+00  -2.6721270289351440e+02 4.3470688472090825e+02 0.0000000000000000e+00 4.3470688472091075e+02 -1.2039304242072787e+04 0.0000000000000000e+00 0.0000000000000000e+00 0.0000000000000000e+00 0.0000000000000000e+00  -1.8931871993372354e+03 -1.1610315118094275e+03 0.0000000000000000e+00 -1.1610315118094270e+03 9.3152341878239495e+03 0.0000000000000000e+00 0.0000000000000000e+00 0.0000000000000000e+00 0.0000000000000000e+00  -5.5030666760130252e+03 -6.2663688787799483e+03 0.0000000000000000e+00 -6.2663688787799365e+03 -7.7835723978842398e+03 0.0000000000000000e+00 0.0000000000000000e+00 0.0000000000000000e+00 0.0000000000000000e+00  9.7978985968350173e+02 -1.0909660474183922e+03 0.0000000000000000e+00 -1.0909660474183906e+03 1.3498196072257906e+04 0.0000000000000000e+00 0.0000000000000000e+00 0.0000000000000000e+00 0.0000000000000000e+00  -1.0819055210019524e+04 -8.8391487300975205e+03 0.0000000000000000e+00 -8.8391487300975241e+03 -1.7386696483613669e+04 0.0000000000000000e+00 0.0000000000000000e+00 0.0000000000000000e+00 0.0000000000000000e+00  -1.5117732896649729e+03 1.4081448307935023e+02 0.0000000000000000e+00 1.4081448307933985e+02 8.2956491213743684e+03 0.0000000000000000e+00 0.0000000000000000e+00 0.0000000000000000e+00 0.0000000000000000e+00  -5.5301184388452775e+03 5.9147949277943690e+03 0.0000000000000000e+00 5.9147949277943781e+03 -4.4941412931590103e+03 0.0000000000000000e+00 0.0000000000000000e+00 0.0000000000000000e+00 0.0000000000000000e+00  -9.5986710454006643e+03 6.0190788251092326e+03 0.0000000000000000e+00 6.0190788251092235e+03 -1.1401975362549769e+04 0.0000000000000000e+00 0.0000000000000000e+00 0.0000000000000000e+00 0.0000000000000000e+00  -6.5471334188830297e+03 -6.0811103376399024e+03 0.0000000000000000e+00 -6.0811103376399014e+03 -5.4727832882487974e+03 0.0000000000000000e+00 0.0000000000000000e+00 0.0000000000000000e+00 0.0000000000000000e+00  -3.4060540213177796e+03 6.0732830772541765e+03 0.0000000000000000e+00 6.0732830772541811e+03 -1.6592926175392688e+03 0.0000000000000000e+00 0.0000000000000000e+00 0.0000000000000000e+00 0.0000000000000000e+00  -7.6472537790580382e+03 -6.2563486326135780e+03 0.0000000000000000e+00 -6.2563486326135753e+03 -9.7764665046939390e+03 0.0000000000000000e+00 0.0000000000000000e+00 0.0000000000000000e+00 0.0000000000000000e+00  -1.4890220153445387e+03 -1.3511365826837950e+03 0.0000000000000000e+00 -1.3511365826837914e+03 -1.1327440007668165e+03 0.0000000000000000e+00 0.0000000000000000e+00 0.0000000000000000e+00 0.0000000000000000e+00  -4.6880474312703645e+03 -6.1164856365422429e+03 0.0000000000000000e+00 -6.1164856365422474e+03 -2.3736429204483788e+03 0.0000000000000000e+00 0.0000000000000000e+00 0.0000000000000000e+00 0.0000000000000000e+00  1.3555863479186560e+03 1.0179035244726123e+03 0.0000000000000000e+00 1.0179035244726095e+03