<?xml version="1.0"?>
<VTKFile type="UnstructuredGrid"  version="0.1"  >
<UnstructuredGrid>
<Piece  NumberOfPoints="4855" NumberOfCells="8780">
<Points>
<DataArray  type="Float64"  NumberOfComponents="3"  format="ascii">0.9483880164242298 0.6836931311526558 0  0.9494264999197789 0.6847056440044139 0  0.9494005292759887 0.6847228078606633 0  0.9735520289385229 0.7444444444444445 0  0.9494005292759886 0.8041660810282256 0  0.94942649991978 0.8041832448844759 0  0.9483880175070514 0.8051957566534116 0  3.131175874138137e-16 0.09811450876034808 0  0.06838800723463068 0.1543033514199101 0  0.05161198249294494 0.1948042433465922 0  0.0505735000802211 0.1958167551155251 0  0.05059947072401128 0.1958339189717744 0  0.0505994707240113 0.3152771921393367 0  0.05057350008021998 0.315294355995587 0  0.05161198357913653 0.3163068688507105 0  0.06838800723463068 0.356807759691201 0  3.252606517456513e-16 0.4129966023507631 0  -1.795438797635995e-16 0.4839416311832997 0  0.07083274769489223 0.4605116403870998 0  0.07084991155114129 0.4605376110308903 0  0.07186242331670639 0.4594991286215342 0  0.1696402113702762 0.5 0  0.07186242332008326 0.5405008713818427 0  0.0708499115511413 0.5394623889691096 0  0.07083274769489219 0.5394883596129002 0  -1.925543058334256e-16 0.5160583688167003 0  1.484923295436147e-15 0.5870033976492365 0  0.06838800723463068 0.643192240308799 0  0.05161198249294541 0.6836931322354806 0  0.05057350008022109 0.6847056440044139 0  0.0505994707240113 0.6847228078606633 0  0.0505994707240113 0.8041660810282256 0  0.05057350008021999 0.804183244884476 0  0.05161198249294764 0.8051957566534106 0  0.06838800723463068 0.84569664858009 0  1.485790657174135e-15 0.9018854912396524 0  0 1 0  1 1 0  0.9999999999999987 0.9018854912396523 0  1.000000000000001 0.5870033976492375 0  1 0.5160583688167003 0  0.9291672523051078 0.5394883596129003 0  0.9291500884488585 0.5394623889691117 0  0.9281375755937461 0.5405008724680134 0  0.9281375755937372 0.4594991275319777 0  0.9291500884488586 0.4605376110308884 0  0.9291672523051077 0.4605116403870997 0  1 0.4839416311832997 0  0.9999999999999987 0.4129966023507635 0  0.948388017507054 0.31630686776452 0  0.94942649991978 0.3152943559955871 0  0.9494005292759886 0.3152771921393367 0  0.9735520289385229 0.2555555555555555 0  0.9494005292759888 0.1958339189717744 0  0.9494264999197789 0.1958167551155251 0  0.9483880164208631 0.1948042422604003 0  1.000000000000001 0.09811450876034861 0  1 0 0  0 0 0  0.1958339189717744 0.2950439151684559 0  0.1958167551155252 0.2950179445246672 0  0.3152771921393367 0.2950439151684557 0  0.1948042433481841 0.2960564269357975 0  0.3152943559955858 0.2950179445246651 0  0.1948042422604031 0.2150546830875326 0  0.3163068677645244 0.2960564269373949 0  0.1958167551155251 0.2160931665864439 0  0.4140846558147206 0.2555555555555555 0  0.1958339189717744 0.2160671959426553 0  0.3163068688489276 0.215054683089313 0  0.3152771921393367 0.2160671959426553 0  0.3152943559955858 0.2160931665864459 0  0.5405008724680257 0.3163068688507107 0  0.5572768961235196 0.356807759691201 0  0.5394623889691089 0.3152943559955871 0  0.459499128618165 0.3163068677645201 0  0.5394883596129003 0.3152771921393367 0  0.4605376110308911 0.3152943559955871 0  0.5394883596129001 0.1958339189717744 0  0.4605116403870998 0.3152771921393367 0  0.53946238896911 0.1958167551155251 0  0.4846631400496339 0.2555555555555555 0  0.5405008724680251 0.1948042422604009 0  0.4605116403870998 0.1958339189717744 0  0.5572768961235196 0.1543033514199101 0  0.46053761103089 0.1958167551155251 0  0.4594991286269881 0.1948042433554141 0  0.6847228078606633 0.2950439151684559 0  0.684705644004414 0.2950179445246672 0  0.8041660810282256 0.2950439151684557 0  0.683693131164073 0.2960564280087975 0  0.8041832448844747 0.2950179445246651 0  0.6836931322354718 0.2150546841737125 0  0.8051957566534156 0.2960564269373971 0  0.6847056440044141 0.2160931665864439 0  0.9029735447036096 0.2555555555555555 0  0.6847228078606632 0.2160671959426553 0  0.8051957577274008 0.2150546830997286 0  0.8041660810282256 0.2160671959426553 0  0.8041832448844747 0.2160931665864459 0  0.2960564280235811 0.560751313295155 0  0.3128324516790751 0.6012522041356455 0  0.2950179445246645 0.5597388004400315 0  0.2150546830875235 0.5607513132951615 0  0.2950439151684557 0.5597216365837812 0  0.2160931665864466 0.5597388004400314 0  0.2950439151684558 0.4402783634162188 0  0.2160671959426553 0.5597216365837812 0  0.2950179445246656 0.4402611995599696 0  0.2402186956051895 0.5 0  0.29605642693739 0.439248687791036 0  0.2160671959426553 0.4402783634162189 0  0.3128324516790751 0.3987477958643545 0  0.2160931665864455 0.4402611995599696 0  0.2150546830875296 0.4392486867048446 0  0.1958339189717743 0.7839328040573448 0  0.1958167551155252 0.7839068334135562 0  0.3152771921393367 0.7839328040573447 0  0.1948042422604028 0.7849453169124678 0  0.3152943559955858 0.783906833413554 0  0.1948042433465913 0.7039435730626098 0  0.3163068677645284 0.7849453158262878 0  0.1958167551155251 0.7049820554753328 0  0.4140846558147206 0.7444444444444445 0  0.1958339189717744 0.7049560848315441 0  0.3163068688486237 0.7039435719785058 0  0.3152771921393367 0.7049560848315441 0  0.3152943559955858 0.7049820554753349 0  0.4402783634162188 0.5394883596129003 0  0.4402611995599696 0.5394623889691117 0  0.5597216365837812 0.5394883596129002 0  0.4392486867048468 0.5405008724680237 0  0.5597388004400302 0.5394623889691096 0  0.4392486877998708 0.4594991286270004 0  0.5607513122089726 0.540500871381843 0  0.4402611995599696 0.4605376110308884 0  0.6585291002591651 0.5 0  0.4402783634162188 0.4605116403870998 0  0.5607513121946796 0.45949912863245 0  0.5597216365837812 0.4605116403870998 0  0.5597388004400302 0.4605376110308904 0  0.78494531690701 0.5607513132896949 0  0.8017213405679641 0.6012522041356455 0  0.7839068334135535 0.5597388004400315 0  0.7039435730626069 0.5607513122089671 0  0.7839328040573448 0.5597216365837812 0  0.7049820554753355 0.5597388004400314 0  0.7839328040573448 0.4402783634162188 0  0.7049560848315441 0.5597216365837812 0  0.7839068334135545 0.4402611995599696 0  0.7291075844940784 0.5 0  0.784945315826279 0.4392486877910359 0  0.7049560848315444 0.4402783634162188 0  0.8017213405679641 0.3987477958643545 0  0.7049820554753344 0.4402611995599696 0  0.7039435719764182 0.4392486867048443 0  0.5405008724625655 0.8051957577341393 0  0.5572768961235196 0.84569664858009 0  0.539462388969109 0.804183244884476 0  0.4594991286181648 0.8051957566534091 0  0.5394883596129003 0.8041660810282256 0  0.4605376110308911 0.804183244884476 0  0.5394883596129003 0.6847228078606633 0  0.4605116403870998 0.8041660810282256 0  0.53946238896911 0.6847056440044139 0  0.4846631400496339 0.7444444444444445 0  0.5405008713818347 0.6836931322354802 0  0.4605116403870998 0.6847228078606633 0  0.5572768961235196 0.643192240308799 0  0.46053761103089 0.6847056440044139 0  0.4594991275353449 0.6836931311526599 0  0.6847228078606633 0.7839328040573448 0  0.684705644004414 0.7839068334135562 0  0.8041660810282256 0.7839328040573447 0  0.6836931311493016 0.7849453169124578 0  0.8041832448844747 0.783906833413554 0  0.68369313223548 0.7039435730626096 0  0.805195756653417 0.7849453158262875 0  0.6847056440044141 0.7049820554753328 0  0.9029735447036096 0.7444444444444445 0  0.6847228078606633 0.7049560848315441 0  0.805195757738809 0.7039435719772094 0  0.8041660810282256 0.7049560848315441 0  0.8041832448844747 0.7049820554753349 0  0.9578164230213342 0.6948838683471341 0  0.9645772892192558 0.7062137009141434 0  0.9695236884064815 0.7184451175460498 0  0.972538971146615 0.7312896684428197 0  0.9725389711466151 0.7575992204460691 0  0.9695236884064815 0.7704437713428391 0  0.9645772892192558 0.7826751879747456 0  0.9578164230213342 0.7940050205417549 0  0.01437766570919127 0.09711967848259151 0  0.02854851642641832 0.09974531144948819 0  0.04161535472570586 0.1058251712658871 0  0.05275088139110013 0.1149743244732108 0  0.06125007411586489 0.1266135117968212 0  0.06657482449792251 0.1400058227212122 0  0.06643634307317195 0.1691277076584997 0  0.06071435336153361 0.1829418078690686 0  0.04134737123322858 0.3039103077764334 0  0.03416190609801732 0.2911362521989113 0  0.02925217947541549 0.2773267630846004 0  0.02676106927623143 0.2628837102534819 0  0.02676106927623143 0.2482274008576293 0  0.02925217947541547 0.2337843480265108 0  0.03416190609801727 0.2199748589121999 0  0.04134737123322851 0.2072008033346779 0  0.06071435387356935 0.328169304128914 0  0.06643634320569657 0.3419834039471998 0  0.06657482449792249 0.371105288389899 0  0.06125007411586481 0.3844975993142901 0  0.05275088139109994 0.3961367866379005 0  0.04161535472570563 0.4052859398452242 0  0.02854851642641818 0.411365799661623 0  0.01437766570919127 0.4139914326285196 0  0 0.4697526254167924 0  0 0.455563619650285 0  0 0.4413746138837777 0  0 0.4271856081172704 0  0.06095233986089402 0.4687284952262988 0  0.04995687430503332 0.4753797281664747 0  0.03809234373417287 0.4803165365228644 0  0.02562418374773841 0.4834284730529493 0  0.01283133446055119 0.4846459169037758 0  0.08372485599813187 0.4503967593658507 0  0.09753895276796982 0.4446747697099958 0  0.1123633055586467 0.4427231038764812 0  0.1271876590095525 0.4446747646950606 0  0.1410017577150834 0.45039674967774 0  0.1528641934757506 0.4594991149204779 0  0.161966560724962 0.471361549141524 0  0.1676885480442292 0.4851756468792086 0  0.1676885480443665 0.514824353120279 0  0.1619665607254926 0.528638450857557 0  0.1528641934768762 0.5405008850783964 0  0.1410017577169217 0.5496032503211987 0  0.1271876590121153 0.5553252353042526 0  0.1123633055618306 0.5572768961235188 0  0.09753895277155772 0.5553252302909656 0  0.08372485600180817 0.5496032406362719 0  0.0128313344605512 0.5153540830962242 0  0.0256241837477384 0.5165715269470507 0  0.03809234373417282 0.5196834634771356 0  0.04995687430503334 0.5246202718335253 0  0.06095233986089401
[...]
<PointData  Tensors="$\sigma$"> 
<DataArray  type="Float64"  Name="$\sigma$"  NumberOfComponents="9" format="ascii">-4.4932731169323270e+03 -5.8485525454500867e+03 0.0000000000000000e+00 -5.8485525454501012e+03 -5.5180265095609984e+03 0.0000000000000000e+00 0.0000000000000000e+00 0.0000000000000000e+00 0.0000000000000000e+00  -8.0435575140625206e+03 -6.1654922624591227e+03 0.0000000000000000e+00 -6.1654922624591072e+03 -6.7233231670291343e+03 0.0000000000000000e+00 0.0000000000000000e+00 0.0000000000000000e+00 0.0000000000000000e+00  -5.0053732125586912e+03 -5.9545227246439845e+03 0.0000000000000000e+00 -5.9545227246439854e+03 -6.1120119481011188e+03 0.0000000000000000e+00 0.0000000000000000e+00 0.0000000000000000e+00 0.0000000000000000e+00  1.3224421094568311e+02 -2.4019597021306853e+02 0.0000000000000000e+00 -2.4019597021306905e+02 -1.1627643471610174e+04 0.0000000000000000e+00 0.0000000000000000e+00 0.0000000000000000e+00 0.0000000000000000e+00  -5.5257580977978041e+03 6.0501902262552821e+03 0.0000000000000000e+00 6.0501902262552985e+03 -6.5782830386566002e+03 0.0000000000000000e+00 0.0000000000000000e+00 0.0000000000000000e+00 0.0000000000000000e+00  -7.9275500157891720e+03 5.8770382588399852e+03 0.0000000000000000e+00 5.8770382588399671e+03 -5.7401443304791192e+03 0.0000000000000000e+00 0.0000000000000000e+00 0.0000000000000000e+00 0.0000000000000000e+00  -3.6604642843681772e+03 5.5500667969671313e+03 0.0000000000000000e+00 5.5500667969671304e+03 -5.4452042128196908e+03 0.0000000000000000e+00 0.0000000000000000e+00 0.0000000000000000e+00 0.0000000000000000e+00  9.1100767508049330e+01 4.8366221376834666e+00 0.0000000000000000e+00 4.8366221376835350e+00 3.7948356542097592e+01 0.0000000000000000e+00 0.0000000000000000e+00 0.0000000000000000e+00 0.0000000000000000e+00  -6.4181111788668332e+01 6.9666087871476478e+01 0.0000000000000000e+00 6.9666087871475256e+01 8.3396114395057903e+03 0.0000000000000000e+00 0.0000000000000000e+00 0.0000000000000000e+00 0.0000000000000000e+00  -4.5528010821739690e+03 4.8555578576684238e+03 0.0000000000000000e+00 4.8555578576684175e+03 -6.8746918987243853e+03 0.0000000000000000e+00 0.0000000000000000e+00 0.0000000000000000e+00 0.0000000000000000e+00  -6.4798113273612998e+03 6.0103551278282084e+03 0.0000000000000000e+00 6.0103551278282193e+03 -3.5233855885969128e+03 0.0000000000000000e+00 0.0000000000000000e+00 0.0000000000000000e+00 0.0000000000000000e+00  -5.6217710367146165e+03 5.9764803359185189e+03 0.0000000000000000e+00 5.9764803359185325e+03 -6.8842583339200010e+03 0.0000000000000000e+00 0.0000000000000000e+00 0.0000000000000000e+00 0.0000000000000000e+00  -4.4410107923156183e+03 -6.1064056771657533e+03 0.0000000000000000e+00 -6.1064056771657570e+03 -5.0566793260677623e+03 0.0000000000000000e+00 0.0000000000000000e+00 0.0000000000000000e+00 0.0000000000000000e+00  -9.6506103812253896e+03 -6.1399688085090256e+03 0.0000000000000000e+00 -6.1399688085090274e+03 -8.6781995983039596e+03 0.0000000000000000e+00 0.0000000000000000e+00 0.0000000000000000e+00 0.0000000000000000e+00  -3.4639330739398665e+03 -5.8802208697961041e+03 0.0000000000000000e+00 -5.8802208697960968e+03 -4.6006378778041608e+03 0.0000000000000000e+00 0.0000000000000000e+00 0.0000000000000000e+00 0.0000000000000000e+00  3.5564182403974451e+02 7.2636594623042583e+01 0.0000000000000000e+00 7.2636594623043393e+01 9.8857883299995183e+02 0.0000000000000000e+00 0.0000000000000000e+00 0.0000000000000000e+00 0.0000000000000000e+00  9.9638759105225532e+00 6.6243311965289102e+00 0.0000000000000000e+00 6.6243311965288978e+00 -7.4090961258843162e+00 0.0000000000000000e+00 0.0000000000000000e+00 0.0000000000000000e+00 0.0000000000000000e+00  -7.7897229169685112e+00 1.7631945933644817e+00 0.0000000000000000e+00 1.7631945933644850e+00 4.0523652149547580e+00 0.0000000000000000e+00 0.0000000000000000e+00 0.0000000000000000e+00 0.0000000000000000e+00  -6.2260149465065780e+01 4.3655006415342321e+01 0.0000000000000000e+00 4.3655006415342307e+01 -2.6362526083391675e+01 0.0000000000000000e+00 0.0000000000000000e+00 0.0000000000000000e+00 0.0000000000000000e+00  -6.7001976227746070e+02 5.4606280238159059e+02 0.0000000000000000e+00 5.4606280238159059e+02 -5.7620064460456410e+02 0.0000000000000000e+00 0.0000000000000000e+00 0.0000000000000000e+00 0.0000000000000000e+00  1.2816944717117747e+02 4.7317244473572151e+00 0.0000000000000000e+00 4.7317244473572151e+00 1.8717117850980710e+01 0.0000000000000000e+00 0.0000000000000000e+00 0.0000000000000000e+00 0.0000000000000000e+00  7.4401123413687037e+03 -3.9892373867570780e+02 0.0000000000000000e+00 -3.9892373867570808e+02 2.0388447321965705e+04 0.0000000000000000e+00 0.0000000000000000e+00 0.0000000000000000e+00 0.0000000000000000e+00  3.7701785417993356e+01 -5.6125228181873112e+01 0.0000000000000000e+00 -5.6125228181872828e+01 -1.8321561473962870e+01 0.0000000000000000e+00 0.0000000000000000e+00 0.0000000000000000e+00 0.0000000000000000e+00  7.7903813204200006e+01 1.7756609237905172e+02 0.0000000000000000e+00 1.7756609237905155e+02 1.2912433203747935e+02 0.0000000000000000e+00 0.0000000000000000e+00 0.0000000000000000e+00 0.0000000000000000e+00  -3.1448720179461034e+01 -3.9212276695977657e+01 0.0000000000000000e+00 -3.9212276695977678e+01 -3.1307203395983500e+01 0.0000000000000000e+00 0.0000000000000000e+00 0.0000000000000000e+00 0.0000000000000000e+00  -4.7719188150343577e+00 -5.4041192933140347e-01 0.0000000000000000e+00 -5.4041192933140769e-01 1.7605461725916860e-01 0.0000000000000000e+00 0.0000000000000000e+00 0.0000000000000000e+00 0.0000000000000000e+00  -1.0481543675908467e+01 -8.3970714920088998e+00 0.0000000000000000e+00 -8.3970714920089105e+00 -2.1503831536491651e+00 0.0000000000000000e+00 0.0000000000000000e+00 0.0000000000000000e+00 0.0000000000000000e+00  -1.0833347839058840e+02 -1.9793824127691278e+02 0.0000000000000000e+00 -1.9793824127691252e+02 1.0326574681418851e+03 0.0000000000000000e+00 0.0000000000000000e+00 0.0000000000000000e+00 0.0000000000000000e+00  -4.9457371566815700e+03 5.7800035146199425e+03 0.0000000000000000e+00 5.7800035146199289e+03 -5.8790265693507081e+03 0.0000000000000000e+00 0.0000000000000000e+00 0.0000000000000000e+00 0.0000000000000000e+00  -7.4204978021664856e+03 6.2393308208224216e+03 0.0000000000000000e+00 6.2393308208224289e+03 -5.5416410950029149e+03 0.0000000000000000e+00 0.0000000000000000e+00 0.0000000000000000e+00 0.0000000000000000e+00  -5.1727145760204176e+03 5.8775840760921456e+03 0.0000000000000000e+00 5.8775840760921401e+03 -7.0172314551769769e+03 0.0000000000000000e+00 0.0000000000000000e+00 0.0000000000000000e+00 0.0000000000000000e+00  -5.9699393565955424e+03 -6.1228684200686184e+03 0.0000000000000000e+00 -6.1228684200686139e+03 -7.0407915513302705e+03 0.0000000000000000e+00 0.0000000000000000e+00 0.0000000000000000e+00 0.0000000000000000e+00  -7.2934237951101122e+03 -5.9074028421545372e+03 0.0000000000000000e+00 -5.9074028421545299e+03 -5.5785142622548128e+03 0.0000000000000000e+00 0.0000000000000000e+00 0.0000000000000000e+00 0.0000000000000000e+00  -3.6148099072512459e+03 -5.1557366127910918e+03 0.0000000000000000e+00 -5.1557366127911027e+03 -4.8437891714728976e+03 0.0000000000000000e+00 0.0000000000000000e+00 0.0000000000000000e+00 0.0000000000000000e+00  6.0015319911048451e+01 -3.5706850763968544e+02 0.0000000000000000e+00 -3.5706850763968663e+02 8.0882677934939156e+03 0.0000000000000000e+00 0.0000000000000000e+00 0.0000000000000000e+00 0.0000000000000000e+00  -1.2047123278373340e+02 5.1182522004930441e+01 0.0000000000000000e+00 5.1182522004930426e+01 -4.5558855138714520e+01 0.0000000000000000e+00 0.0000000000000000e+00 0.0000000000000000e+00 0.0000000000000000e+00  -1.2976265284054909e+00 1.3315893622979535e+01 0.0000000000000000e+00 1.3315893622979523e+01 6.5559353276066190e+02 0.0000000000000000e+00 0.0000000000000000e+00 0.0000000000000000e+00 0.0000000000000000e+00  -2.5239634478050732e+00 -1.7552636211844717e+01 0.0000000000000000e+00 -1.7552636211844778e+01 6.6733332596612081e+02 0.0000000000000000e+00 0.0000000000000000e+00 0.0000000000000000e+00 0.0000000000000000e+00  8.0894711977086061e+01 -2.1672558464311567e+00 0.0000000000000000e+00 -2.1672558464309555e+00 -2.4072147249893867e+01 0.0000000000000000e+00 0.0000000000000000e+00 0.0000000000000000e+00 0.0000000000000000e+00  -2.1735228763627926e+01 -2.0686495215447023e+00 0.0000000000000000e+00 -2.0686495215447143e+00 1.8043461781969525e+00 0.0000000000000000e+00 0.0000000000000000e+00 0.0000000000000000e+00 0.0000000000000000e+00  1.4917537089449406e-01 2.0417350221657093e+00 0.0000000000000000e+00 2.0417350221657125e+00 -2.0087166483666992e+00 0.0000000000000000e+00 0.0000000000000000e+00 0.0000000000000000e+00 0.0000000000000000e+00  -1.2410756483043629e+01 -4.2004004489200781e+00 0.0000000000000000e+00 -4.2004004489201430e+00 4.7017509940064794e+00 0.0000000000000000e+00 0.0000000000000000e+00 0.0000000000000000e+00 0.0000000000000000e+00  -3.8603387263538650e+01 -7.7759177390647849e+01 0.0000000000000000e+00 -7.7759177390647892e+01 4.5896089974352499e+01 0.0000000000000000e+00 0.0000000000000000e+00 0.0000000000000000e+00 0.0000000000000000e+00  7.6909574347807322e+01 5.6222430971671571e+01 0.0000000000000000e+00 5.6222430971671606e+01 -2.7090962764336787e+01 0.0000000000000000e+00 0.0000000000000000e+00 0.0000000000000000e+00 0.0000000000000000e+00  -1.6871847534291213e+01 -7.1615721032794951e+01 0.0000000000000000e+00 -7.1615721032794866e+01 -5.5867732203842479e+01 0.0000000000000000e+00 0.0000000000000000e+00 0.0000000000000000e+00 0.0000000000000000e+00  -2.2099100316921596e+02 -1.7742299885618110e+02 0.0000000000000000e+00 -1.7742299885618127e+02 -2.0236772968697679e+02 0.0000000000000000e+00 0.0000000000000000e+00 0.0000000000000000e+00 0.0000000000000000e+00  -4.6518952947977517e+01 -3.0566069466094067e+01 0.0000000000000000e+00 -3.0566069466094085e+01 -1.6208715689825791e+01 0.0000000000000000e+00 0.0000000000000000e+00 0.0000000000000000e+00 0.0000000000000000e+00  2.2123907779762635e+00 9.8866827881672215e-01 0.0000000000000000e+00 9.8866827881672270e-01 7.3056439302873653e+00 0.0000000000000000e+00 0.0000000000000000e+00 0.0000000000000000e+00 0.0000000000000000e+00  -1.3729819447301113e+00 3.2817918916992056e-01 0.0000000000000000e+00 3.2817918916991962e-01 -3.2573452754328991e+00 0.0000000000000000e+00 0.0000000000000000e+00 0.0000000000000000e+00 0.0000000000000000e+00  -5.2192247645662037e+03 5.8812124378523085e+03 0.0000000000000000e+00 5.8812124378522958e+03 -5.7712856763612499e+03 0.0000000000000000e+00 0.0000000000000000e+00 0.0000000000000000e+00 0.0000000000000000e+00  -7.1918384739921803e+03 6.2541147857738024e+03 0.0000000000000000e+00 6.2541147857738097e+03 -5.8297425817467920e+03 0.0000000000000000e+00 0.0000000000000000e+00 0.0000000000000000e+00 0.0000000000000000e+00  -5.1825189132272144e+03 5.8836818953606362e+03 0.0000000000000000e+00 5.8836818953606362e+03 -6.9497458288360176e+03 0.0000000000000000e+00 0.0000000000000000e+00 0.0000000000000000e+00 0.0000000000000000e+00  -2.0398841400339168e+02 -4.1368395558013958e+02 0.0000000000000000e+00 -4.1368395558013935e+02 -1.1915047014121043e+04 0.0000000000000000e+00 0.0000000000000000e+00 0.0000000000000000e+00 0.0000000000000000e+00  -5.3356907882424803e+03 -6.0690888231422978e+03 0.0000000000000000e+00 -6.0690888231422914e+03 -5.7291037837455578e+03 0.0000000000000000e+00 0.0000000000000000e+00 0.0000000000000000e+00 0.0000000000000000e+00  -7.0906710882609059e+03 -6.0767693503636074e+03 0.0000000000000000e+00 -6.0767693503636183e+03 -5.0188391946119855e+03 0.0000000000000000e+00 0.0000000000000000e+00 0.0000000000000000e+00 0.0000000000000000e+00  -4.7539739679634786e+03 -5.2669314150276250e+03 0.0000000000000000e+00 -5.2669314150276105e+03 -7.0903414913394809e+03 0.0000000000000000e+00 0.0000000000000000e+00 0.0000000000000000e+00 0.0000000000000000e+00  -1.1109111542789586e+01 -5.9863637255663846e+00 0.0000000000000000e+00 -5.9863637255666289e+00 -2.6658783810574523e+01 0.0000000000000000e+00 0.0000000000000000e+00 0.0000000000000000e+00 0.0000000000000000e+00  1.0178231151584461e+01 2.1312278668903608e+00 0.0000000000000000e+00 2.1312278668903653e+00 6.6613927615063722e+02 0.0000000000000000e+00 0.0000000000000000e+00 0.0000000000000000e+00 0.0000000000000000e+00  1.5364899694505752e+02 1.2623729746965739e+02 0.0000000000000000e+00 1.2623729746965779e+02 7.8915723602812648e+02 0.0000000000000000e+00 0.0000000000000000e+00 0.0000000000000000e+00 0.0000000000000000e+00  -5.9457697618044194e+03 6.1843791442449565e+03 0.0000000000000000e+00 6.1843791442449574e+03 -5.2422426537269357e+03 0.0000000000000000e+00 0.0000000000000000e+00 0.0000000000000000e+00 0.0000000000000000e+00  -6.2716406544568281e+03 6.3937056716379793e+03 0.0000000000000000e+00 6.3937056716379811e+03 -9.0633092143910508e+03 0.0000000000000000e+00 0.0000000000000000e+00 0.0000000000000000e+00 0.0000000000000000e+00  -6.9160610890987900e+03 -5.9251925647184835e+03 0.0000000000000000e+00 -5.9251925647184826e+03 -6.0016189317841308e+03 0.0000000000000000e+00 0.0000000000000000e+00 0.0000000000000000e+00 0.0000000000000000e+00  -7.0608417856519263e+03 5.9915715066868906e+03 0.0000000000000000e+00 5.9915715066868906e+03 -3.5203963471996926e+03 0.0000000000000000e+00 0.0000000000000000e+00 0.0000000000000000e+00 0.0000000000000000e+00  -6.4382128295143621e+03 -5.9942322554230159e+03 0.0000000000000000e+00 -5.9942322554230168e+03 -7.6039752928955131e+03 0.0000000000000000e+00 0.0000000000000000e+00 0.0000000000000000e+00 0.0000000000000000e+00  -1.2901383469540333e+03 -1.3111271120981191e+03 0.0000000000000000e+00 -1.3111271120981219e+03 -1.0232099931603553e+03 0.0000000000000000e+00 0.0000000000000000e+00 0.0000000000000000e+00 0.0000000000000000e+00  -5.1567290638278282e+03 -6.1661199451396415e+03 0.0000000000000000e+00 -6.1661199451396360e+03 -4.0868650126709886e+03 0.0000000000000000e+00 0.0000000000000000e+00 0.0000000000000000e+00 0.0000000000000000e+00  -5.7996959732268454e+02 -6.6151902102687620e+02 0.0000000000000000e+00 -6.6151902102687802e+02 -1.2032261918588590e+03 0.0000000000000000e+00 0.0000000000000000e+00 0.0000000000000000e+00 0.0000000000000000e+00  4.1970873540050525e+03 3.2473041464225457e+02 0.0000000000000000e+00 3.2473041464225389e+02 1.7064246176869074e+04 0.0000000000000000e+00 0.0000000000000000e+00 0.0000000000000000e+00 0.0000000000000000e+00  -7.8290637786724483e+02 -6.3415020989320215e+02 0.0000000000000000e+00 -6.3415020989320169e+02 -3.3439548767177268e+02 0.0000000000000000e+00 0.0000000000000000e+00 0.0000000000000000e+00 0.0000000000000000e+00  -1.6682078617640195e+03 1.6632432684551291e+03 0.0000000000000000e+00 1.6632432684551293e+03 -1.3122217241104768e+03 0.0000000000000000e+00 0.0000000000000000e+00 0.0000000000000000e+00 0.0000000000000000e+00  -1.1619934172053788e+03 8.3621932787906837e+02 0.0000000000000000e+00 8.3621932787906803e+02 -6.4638735273989232e+02 0.0000000000000000e+00 0.0000000000000000e+00 0.0000000000000000e+00 0.0000000000000000e+00  1.1696590921643731e+03 -8.6759232141151062e+02 0.0000000000000000e+00 -8.6759232141151142e+02 3.5872598787817958e+02 0.0000000000000000e+00 0.0000000000000000e+00 0.0000000000000000e+00 0.0000000000000000e+00  -3.6424336009631825e+03 -6.0137350068205051e+03 0.0000000000000000e+00 -6.0137350068205078e+03 -5.6439896489102957e+03 0.0000000000000000e+00 0.0000000000000000e+00 0.0000000000000000e+00 0.0000000000000000e+00  1.1911566836879606e+03 2.5090877244022300e+02 0.0000000000000000e+00 2.5090877244022334e+02 1.0400892790815769e+04 0.0000000000000000e+00 0.0000000000000000e+00 0.0000000000000000e+00 0.0000000000000000e+00  -8.6264876622173506e+03 -6.1172972592834631e+03 0.0000000000000000e+00 -6.1172972592834612e+03 -6.3050972575122205e+03 0.0000000000000000e+00 0.0000000000000000e+00 0.0000000000000000e+00 0.0000000000000000e+00  -3.5176685956266015e+03 5.8998434722950224e+03 0.0000000000000000e+00 5.8998434722950224e+03 -6.5143887976747064e+03 0.0000000000000000e+00 0.0000000000000000e+00 0.0000000000000000e+00 0.0000000000000000e+00  -5.2338164226166609e+03 -5.9615161432376999e+03 0.0000000000000000e+00 -5.9615161432377045e+03 -6.5549942876242121e+03 0.0000000000000000e+00 0.0000000000000000e+00 0.0000000000000000e+00 0.0000000000000000e+00  -7.7532503455919777e+03 6.2573907733882106e+03 0.0000000000000000e+00 6.2573907733882043e+03 -4.9099730137845572e+03 0.0000000000000000e+00 0.0000000000000000e+00 0.0000000000000000e+00 0.0000000000000000e+00  3.1519665053727140e+03 5.4717785462662077e+03 0.0000000000000000e+00 5.4717785462662077e+03 -6.4057067436458983e+03 0.0000000000000000e+00 0.0000000000000000e+00 0.0000000000000000e+00 0.0000000000000000e+00  -6.2123847399632496e+03 5.9578792090102361e+03 0.0000000000000000e+00 5.9578792090102461e+03 -7.3238334441177512e+03 0.0000000000000000e+00 0.0000000000000000e+00 0.0000000000000000e+00 0.0000000000000000e+00  -1.8275802614325672e+04 1.0004853208995355e+04 0.0000000000000000e+00 1.0004853208995355e+04 -2.0448782456267025e+04 0.0000000000000000e+00 0.0000000000000000e+00 0.0000000000000000e+00 0.0000000000000000e+00  -6.8774517616384472e+00 5.8234492445270064e+02 0.0000000000000000e+00 5.8234492445270212e+02 -1.1672242593782408e+04 0.0000000000000000e+00 0.0000000000000000e+00 0.0000000000000000e+00 0.0000000000000000e+00  -1.9966104320451295e+03 -1.1710064005648273e+03 0.0000000000000000e+00 -1.1710064005648273e+03 9.2721319310511699e+03 0.0000000000000000e+00 0.0000000000000000e+00 0.0000000000000000e+00 0.0000000000000000e+00  -6.5804461559134324e+03 -6.4564110350012797e+03 0.0000000000000000e+00 -6.4564110350012743e+03 -8.0103909087343827e+03 0.0000000000000000e+00 0.0000000000000000e+00 0.0000000000000000e+00 0.0000000000000000e+00  9.8043716256535379e+02 -1.1876840920818813e+03 0.0000000000000000e+00 -1.1876840920818806e+03 1.3583358240202755e+04 0.0000000000000000e+00 0.0000000000000000e+00 0.0000000000000000e+00 0.0000000000000000e+00  -1.0025034046618459e+04 -8.9326005100788534e+03 0.0000000000000000e+00 -8.9326005100788498e+03 -1.7502848945318401e+04 0.0000000000000000e+00 0.0000000000000000e+00 0.0000000000000000e+00 0.0000000000000000e+00  -1.5073369528919659e+03 3.0142384629407763e+02 0.0000000000000000e+00 3.0142384629406769e+02 8.6162863550093589e+03 0.0000000000000000e+00 0.0000000000000000e+00 0.0000000000000000e+00 0.0000000000000000e+00  -5.9294798237629120e+03 5.9594361715939704e+03 0.0000000000000000e+00 5.9594361715939767e+03 -5.0955259158054896e+03 0.0000000000000000e+00 0.0000000000000000e+00 0.0000000000000000e+00 0.0000000000000000e+00  -8.3303409345087439e+03 6.1066709179123591e+03 0.0000000000000000e+00 6.1066709179123363e+03 -1.0299319534455566e+04 0.0000000000000000e+00 0.0000000000000000e+00 0.0000000000000000e+00 0.0000000000000000e+00  -6.1443224975086569e+03 -6.1254974463860126e+03 0.0000000000000000e+00 -6.1254974463860144e+03 -4.9065390218453049e+03 0.0000000000000000e+00 0.0000000000000000e+00 0.0000000000000000e+00 0.0000000000000000e+00  -4.4323491671316860e+03 6.0570485986447820e+03 0.0000000000000000e+00 6.0570485986447802e+03 -2.3910178800471645e+03 0.0000000000000000e+00 0.0000000000000000e+00 0.0000000000000000e+00 0.0000000000000000e+00  -9.4678143582600442e+03 -6.3378789416681420e+03 0.0000000000000000e+00 -6.3378789416681448e+03 -1.1653365096041496e+04 0.0000000000000000e+00 0.0000000000000000e+00 0.0000000000000000e+00 0.0000000000000000e+00  -1.5106459342548321e+03 -1.3677331647530107e+03 0.0000000000000000e+00 -1.3677331647530048e+03 -1.1278536551196851e+03 0.0000000000000000e+00 0.0000000000000000e+00 0.0000000000000000e+00 0.0000000000000000e+00  -3.5471843276302134e+03 -6.1732031133993869e+03 0.0000000000000000e+00 -6.1732031133993860e+03 -1.2749607593465412e+03 0.0000000000000000e+00 0.0000000000000000e+00 0.0000000000000000e+00 0.0000000000000000e+00  1.3418771543144444e+03 9.8099525718650170e+02 0.0000000000000000e+00 9.8099525718649886e+02 