<?xml version="1.0"?>
<VTKFile type="UnstructuredGrid"  version="0.1"  >
<UnstructuredGrid>
<Piece  NumberOfPoints="4855" NumberOfCells="8780">
<Points>
<DataArray  type="Float64"  NumberOfComponents="3"  format="ascii">0.9483880164242298 0.6836931311526558 0  0.9494264999197789 0.6847056440044139 0  0.9494005292759887 0.6847228078606633 0  0.9735520289385229 0.7444444444444445 0  0.9494005292759886 0.8041660810282256 0  0.94942649991978 0.8041832448844759 0  0.9483880175070514 0.8051957566534116 0  3.131175874138137e-16 0.09811450876034808 0  0.06838800723463068 0.1543033514199101 0  0.05161198249294494 0.1948042433465922 0  0.0505735000802211 0.1958167551155251 0  0.05059947072401128 0.1958339189717744 0  0.0505994707240113 0.3152771921393367 0  0.05057350008021998 0.315294355995587 0  0.05161198357913653 0.3163068688507105 0  0.06838800723463068 0.356807759691201 0  3.252606517456513e-16 0.4129966023507631 0  -1.795438797635995e-16 0.4839416311832997 0  0.07083274769489223 0.4605116403870998 0  0.07084991155114129 0.4605376110308903 0  0.07186242331670639 0.4594991286215342 0  0.1696402113702762 0.5 0  0.07186242332008326 0.5405008713818427 0  0.0708499115511413 0.5394623889691096 0  0.07083274769489219 0.5394883596129002 0  -1.925543058334256e-16 0.5160583688167003 0  1.484923295436147e-15 0.5870033976492365 0  0.06838800723463068 0.643192240308799 0  0.05161198249294541 0.6836931322354806 0  0.05057350008022109 0.6847056440044139 0  0.0505994707240113 0.6847228078606633 0  0.0505994707240113 0.8041660810282256 0  0.05057350008021999 0.804183244884476 0  0.05161198249294764 0.8051957566534106 0  0.06838800723463068 0.84569664858009 0  1.485790657174135e-15 0.9018854912396524 0  0 1 0  1 1 0  0.9999999999999987 0.9018854912396523 0  1.000000000000001 0.5870033976492375 0  1 0.5160583688167003 0  0.9291672523051078 0.5394883596129003 0  0.9291500884488585 0.5394623889691117 0  0.9281375755937461 0.5405008724680134 0  0.9281375755937372 0.4594991275319777 0  0.9291500884488586 0.4605376110308884 0  0.9291672523051077 0.4605116403870997 0  1 0.4839416311832997 0  0.9999999999999987 0.4129966023507635 0  0.948388017507054 0.31630686776452 0  0.94942649991978 0.3152943559955871 0  0.9494005292759886 0.3152771921393367 0  0.9735520289385229 0.2555555555555555 0  0.9494005292759888 0.1958339189717744 0  0.9494264999197789 0.1958167551155251 0  0.9483880164208631 0.1948042422604003 0  1.000000000000001 0.09811450876034861 0  1 0 0  0 0 0  0.1958339189717744 0.2950439151684559 0  0.1958167551155252 0.2950179445246672 0  0.3152771921393367 0.2950439151684557 0  0.1948042433481841 0.2960564269357975 0  0.3152943559955858 0.2950179445246651 0  0.1948042422604031 0.2150546830875326 0  0.3163068677645244 0.2960564269373949 0  0.1958167551155251 0.2160931665864439 0  0.4140846558147206 0.2555555555555555 0  0.1958339189717744 0.2160671959426553 0  0.3163068688489276 0.215054683089313 0  0.3152771921393367 0.2160671959426553 0  0.3152943559955858 0.2160931665864459 0  0.5405008724680257 0.3163068688507107 0  0.5572768961235196 0.356807759691201 0  0.5394623889691089 0.3152943559955871 0  0.459499128618165 0.3163068677645201 0  0.5394883596129003 0.3152771921393367 0  0.4605376110308911 0.3152943559955871 0  0.5394883596129001 0.1958339189717744 0  0.4605116403870998 0.3152771921393367 0  0.53946238896911 0.1958167551155251 0  0.4846631400496339 0.2555555555555555 0  0.5405008724680251 0.1948042422604009 0  0.4605116403870998 0.1958339189717744 0  0.5572768961235196 0.1543033514199101 0  0.46053761103089 0.1958167551155251 0  0.4594991286269881 0.1948042433554141 0  0.6847228078606633 0.2950439151684559 0  0.684705644004414 0.2950179445246672 0  0.8041660810282256 0.2950439151684557 0  0.683693131164073 0.2960564280087975 0  0.8041832448844747 0.2950179445246651 0  0.6836931322354718 0.2150546841737125 0  0.8051957566534156 0.2960564269373971 0  0.6847056440044141 0.2160931665864439 0  0.9029735447036096 0.2555555555555555 0  0.6847228078606632 0.2160671959426553 0  0.8051957577274008 0.2150546830997286 0  0.8041660810282256 0.2160671959426553 0  0.8041832448844747 0.2160931665864459 0  0.2960564280235811 0.560751313295155 0  0.3128324516790751 0.6012522041356455 0  0.2950179445246645 0.5597388004400315 0  0.2150546830875235 0.5607513132951615 0  0.2950439151684557 0.5597216365837812 0  0.2160931665864466 0.5597388004400314 0  0.2950439151684558 0.4402783634162188 0  0.2160671959426553 0.5597216365837812 0  0.2950179445246656 0.4402611995599696 0  0.2402186956051895 0.5 0  0.29605642693739 0.439248687791036 0  0.2160671959426553 0.4402783634162189 0  0.3128324516790751 0.3987477958643545 0  0.2160931665864455 0.4402611995599696 0  0.2150546830875296 0.4392486867048446 0  0.1958339189717743 0.7839328040573448 0  0.1958167551155252 0.7839068334135562 0  0.3152771921393367 0.7839328040573447 0  0.1948042422604028 0.7849453169124678 0  0.3152943559955858 0.783906833413554 0  0.1948042433465913 0.7039435730626098 0  0.3163068677645284 0.7849453158262878 0  0.1958167551155251 0.7049820554753328 0  0.4140846558147206 0.7444444444444445 0  0.1958339189717744 0.7049560848315441 0  0.3163068688486237 0.7039435719785058 0  0.3152771921393367 0.7049560848315441 0  0.3152943559955858 0.7049820554753349 0  0.4402783634162188 0.5394883596129003 0  0.4402611995599696 0.5394623889691117 0  0.5597216365837812 0.5394883596129002 0  0.4392486867048468 0.5405008724680237 0  0.5597388004400302 0.5394623889691096 0  0.4392486877998708 0.4594991286270004 0  0.5607513122089726 0.540500871381843 0  0.4402611995599696 0.4605376110308884 0  0.6585291002591651 0.5 0  0.4402783634162188 0.4605116403870998 0  0.5607513121946796 0.45949912863245 0  0.5597216365837812 0.4605116403870998 0  0.5597388004400302 0.4605376110308904 0  0.78494531690701 0.5607513132896949 0  0.8017213405679641 0.6012522041356455 0  0.7839068334135535 0.5597388004400315 0  0.7039435730626069 0.5607513122089671 0  0.7839328040573448 0.5597216365837812 0  0.7049820554753355 0.5597388004400314 0  0.7839328040573448 0.4402783634162188 0  0.7049560848315441 0.5597216365837812 0  0.7839068334135545 0.4402611995599696 0  0.7291075844940784 0.5 0  0.784945315826279 0.4392486877910359 0  0.7049560848315444 0.4402783634162188 0  0.8017213405679641 0.3987477958643545 0  0.7049820554753344 0.4402611995599696 0  0.7039435719764182 0.4392486867048443 0  0.5405008724625655 0.8051957577341393 0  0.5572768961235196 0.84569664858009 0  0.539462388969109 0.804183244884476 0  0.4594991286181648 0.8051957566534091 0  0.5394883596129003 0.8041660810282256 0  0.4605376110308911 0.804183244884476 0  0.5394883596129003 0.6847228078606633 0  0.4605116403870998 0.8041660810282256 0  0.53946238896911 0.6847056440044139 0  0.4846631400496339 0.7444444444444445 0  0.5405008713818347 0.6836931322354802 0  0.4605116403870998 0.6847228078606633 0  0.5572768961235196 0.643192240308799 0  0.46053761103089 0.6847056440044139 0  0.4594991275353449 0.6836931311526599 0  0.6847228078606633 0.7839328040573448 0  0.684705644004414 0.7839068334135562 0  0.8041660810282256 0.7839328040573447 0  0.6836931311493016 0.7849453169124578 0  0.8041832448844747 0.783906833413554 0  0.68369313223548 0.7039435730626096 0  0.805195756653417 0.7849453158262875 0  0.6847056440044141 0.7049820554753328 0  0.9029735447036096 0.7444444444444445 0  0.6847228078606633 0.7049560848315441 0  0.805195757738809 0.7039435719772094 0  0.8041660810282256 0.7049560848315441 0  0.8041832448844747 0.7049820554753349 0  0.9578164230213342 0.6948838683471341 0  0.9645772892192558 0.7062137009141434 0  0.9695236884064815 0.7184451175460498 0  0.972538971146615 0.7312896684428197 0  0.9725389711466151 0.7575992204460691 0  0.9695236884064815 0.7704437713428391 0  0.9645772892192558 0.7826751879747456 0  0.9578164230213342 0.7940050205417549 0  0.01437766570919127 0.09711967848259151 0  0.02854851642641832 0.09974531144948819 0  0.04161535472570586 0.1058251712658871 0  0.05275088139110013 0.1149743244732108 0  0.06125007411586489 0.1266135117968212 0  0.06657482449792251 0.1400058227212122 0  0.06643634307317195 0.1691277076584997 0  0.06071435336153361 0.1829418078690686 0  0.04134737123322858 0.3039103077764334 0  0.03416190609801732 0.2911362521989113 0  0.02925217947541549 0.2773267630846004 0  0.02676106927623143 0.2628837102534819 0  0.02676106927623143 0.2482274008576293 0  0.02925217947541547 0.2337843480265108 0  0.03416190609801727 0.2199748589121999 0  0.04134737123322851 0.2072008033346779 0  0.06071435387356935 0.328169304128914 0  0.06643634320569657 0.3419834039471998 0  0.06657482449792249 0.371105288389899 0  0.06125007411586481 0.3844975993142901 0  0.05275088139109994 0.3961367866379005 0  0.04161535472570563 0.4052859398452242 0  0.02854851642641818 0.411365799661623 0  0.01437766570919127 0.4139914326285196 0  0 0.4697526254167924 0  0 0.455563619650285 0  0 0.4413746138837777 0  0 0.4271856081172704 0  0.06095233986089402 0.4687284952262988 0  0.04995687430503332 0.4753797281664747 0  0.03809234373417287 0.4803165365228644 0  0.02562418374773841 0.4834284730529493 0  0.01283133446055119 0.4846459169037758 0  0.08372485599813187 0.4503967593658507 0  0.09753895276796982 0.4446747697099958 0  0.1123633055586467 0.4427231038764812 0  0.1271876590095525 0.4446747646950606 0  0.1410017577150834 0.45039674967774 0  0.1528641934757506 0.4594991149204779 0  0.161966560724962 0.471361549141524 0  0.1676885480442292 0.4851756468792086 0  0.1676885480443665 0.514824353120279 0  0.1619665607254926 0.528638450857557 0  0.1528641934768762 0.5405008850783964 0  0.1410017577169217 0.5496032503211987 0  0.1271876590121153 0.5553252353042526 0  0.1123633055618306 0.5572768961235188 0  0.09753895277155772 0.5553252302909656 0  0.08372485600180817 0.5496032406362719 0  0.0128313344605512 0.5153540830962242 0  0.0256241837477384 0.5165715269470507 0  0.03809234373417282 0.5196834634771356 0  0.04995687430503334 0.5246202718335253 0  0.06095233986089401
[...]
<PointData  Tensors="$\sigma$"> 
<DataArray  type="Float64"  Name="$\sigma$"  NumberOfComponents="9" format="ascii">-4.8874366511523949e+03 -5.7196390897353922e+03 0.0000000000000000e+00 -5.7196390897353931e+03 -6.7161543616038025e+03 0.0000000000000000e+00 0.0000000000000000e+00 0.0000000000000000e+00 0.0000000000000000e+00  -7.0631105461602792e+03 -6.0640847119306545e+03 0.0000000000000000e+00 -6.0640847119306545e+03 -5.0935887551070791e+03 0.0000000000000000e+00 0.0000000000000000e+00 0.0000000000000000e+00 0.0000000000000000e+00  -5.1622134472118087e+03 -5.8446659478658557e+03 0.0000000000000000e+00 -5.8446659478658557e+03 -6.1113243307740513e+03 0.0000000000000000e+00 0.0000000000000000e+00 0.0000000000000000e+00 0.0000000000000000e+00  -1.0705309683302701e+02 -4.0062475260155713e+02 0.0000000000000000e+00 -4.0062475260155759e+02 -1.1567421763184577e+04 0.0000000000000000e+00 0.0000000000000000e+00 0.0000000000000000e+00 0.0000000000000000e+00  -4.9828208670160639e+03 5.9981824649512691e+03 0.0000000000000000e+00 5.9981824649512819e+03 -6.6459212705809423e+03 0.0000000000000000e+00 0.0000000000000000e+00 0.0000000000000000e+00 0.0000000000000000e+00  -8.3261699568114545e+03 6.0406962831551591e+03 0.0000000000000000e+00 6.0406962831551573e+03 -6.2938200446299334e+03 0.0000000000000000e+00 0.0000000000000000e+00 0.0000000000000000e+00 0.0000000000000000e+00  -3.7880748041146403e+03 5.1768594468248284e+03 0.0000000000000000e+00 5.1768594468248293e+03 -4.8786704251164520e+03 0.0000000000000000e+00 0.0000000000000000e+00 0.0000000000000000e+00 0.0000000000000000e+00  7.2266263094343373e+01 3.8236905991623495e+00 0.0000000000000000e+00 3.8236905991623433e+00 2.9470076981001970e+01 0.0000000000000000e+00 0.0000000000000000e+00 0.0000000000000000e+00 0.0000000000000000e+00  -2.6333034185287140e+01 7.8186896073759613e+01 0.0000000000000000e+00 7.8186896073759314e+01 8.2906972803448716e+03 0.0000000000000000e+00 0.0000000000000000e+00 0.0000000000000000e+00 0.0000000000000000e+00  -4.1812599511346289e+03 4.6622191084391861e+03 0.0000000000000000e+00 4.6622191084391879e+03 -6.0174538363567272e+03 0.0000000000000000e+00 0.0000000000000000e+00 0.0000000000000000e+00 0.0000000000000000e+00  -7.6869811459799466e+03 6.3306946625775063e+03 0.0000000000000000e+00 6.3306946625775026e+03 -5.2429987094534499e+03 0.0000000000000000e+00 0.0000000000000000e+00 0.0000000000000000e+00 0.0000000000000000e+00  -4.9776437632662537e+03 5.7516932495932188e+03 0.0000000000000000e+00 5.7516932495932233e+03 -6.3115594816229795e+03 0.0000000000000000e+00 0.0000000000000000e+00 0.0000000000000000e+00 0.0000000000000000e+00  -4.8204354937728804e+03 -5.8256458815193091e+03 0.0000000000000000e+00 -5.8256458815193128e+03 -6.0947462494424326e+03 0.0000000000000000e+00 0.0000000000000000e+00 0.0000000000000000e+00 0.0000000000000000e+00  -8.4609584402583496e+03 -6.0115019847286212e+03 0.0000000000000000e+00 -6.0115019847286349e+03 -5.1576687598326807e+03 0.0000000000000000e+00 0.0000000000000000e+00 0.0000000000000000e+00 0.0000000000000000e+00  -3.6694991479503506e+03 -5.7409821936919698e+03 0.0000000000000000e+00 -5.7409821936919534e+03 -6.6523642756768922e+03 0.0000000000000000e+00 0.0000000000000000e+00 0.0000000000000000e+00 0.0000000000000000e+00  3.3365159197055988e+02 -1.0918821103230897e+01 0.0000000000000000e+00 -1.0918821103230453e+01 1.1600443851802586e+03 0.0000000000000000e+00 0.0000000000000000e+00 0.0000000000000000e+00 0.0000000000000000e+00  2.8798797945411767e+00 2.6715194749150211e+00 0.0000000000000000e+00 2.6715194749150277e+00 -8.0571923354391597e+00 0.0000000000000000e+00 0.0000000000000000e+00 0.0000000000000000e+00 0.0000000000000000e+00  -2.8976999961527068e+00 9.4571042110842607e-01 0.0000000000000000e+00 9.4571042110842662e-01 3.5023892103167200e+00 0.0000000000000000e+00 0.0000000000000000e+00 0.0000000000000000e+00 0.0000000000000000e+00  -4.1429341753547369e+01 3.1927965519538368e+01 0.0000000000000000e+00 3.1927965519538350e+01 -1.6748291412444928e+01 0.0000000000000000e+00 0.0000000000000000e+00 0.0000000000000000e+00 0.0000000000000000e+00  -2.6311976017481095e+02 1.5927510731896064e+02 0.0000000000000000e+00 1.5927510731896066e+02 -1.8687914739121106e+02 0.0000000000000000e+00 0.0000000000000000e+00 0.0000000000000000e+00 0.0000000000000000e+00  7.0287241556175985e+01 4.0802416833516624e+01 0.0000000000000000e+00 4.0802416833516610e+01 -2.3793953510261296e+01 0.0000000000000000e+00 0.0000000000000000e+00 0.0000000000000000e+00 0.0000000000000000e+00  6.4908688068441779e+03 -2.8987944629045126e+02 0.0000000000000000e+00 -2.8987944629045012e+02 1.9409317848171268e+04 0.0000000000000000e+00 0.0000000000000000e+00 0.0000000000000000e+00 0.0000000000000000e+00  1.2874581884682547e+01 -7.5136924670320568e+01 0.0000000000000000e+00 -7.5136924670320496e+01 -2.6617979273785618e+01 0.0000000000000000e+00 0.0000000000000000e+00 0.0000000000000000e+00 0.0000000000000000e+00  1.1601766271009305e+02 2.0240187029698924e+02 0.0000000000000000e+00 2.0240187029698927e+02 1.3769929299880954e+02 0.0000000000000000e+00 0.0000000000000000e+00 0.0000000000000000e+00 0.0000000000000000e+00  -2.6919347889972755e+01 -2.8389311044081182e+01 0.0000000000000000e+00 -2.8389311044081158e+01 -1.4568507018774449e+01 0.0000000000000000e+00 0.0000000000000000e+00 0.0000000000000000e+00 0.0000000000000000e+00  5.2331868975210516e-01 5.9248908197778716e-01 0.0000000000000000e+00 5.9248908197778549e-01 3.0121197555299872e+00 0.0000000000000000e+00 0.0000000000000000e+00 0.0000000000000000e+00 0.0000000000000000e+00  -8.9783275909763880e+00 -8.6459133514719255e+00 0.0000000000000000e+00 -8.6459133514719237e+00 1.1264458637278867e-01 0.0000000000000000e+00 0.0000000000000000e+00 0.0000000000000000e+00 0.0000000000000000e+00  -2.7592724596536588e+01 -7.1641082947414034e+01 0.0000000000000000e+00 -7.1641082947414077e+01 1.2871199680584955e+03 0.0000000000000000e+00 0.0000000000000000e+00 0.0000000000000000e+00 0.0000000000000000e+00  -4.9605112571888294e+03 5.6678019687607548e+03 0.0000000000000000e+00 5.6678019687607430e+03 -7.2522930290066752e+03 0.0000000000000000e+00 0.0000000000000000e+00 0.0000000000000000e+00 0.0000000000000000e+00  -6.9468780041174614e+03 6.0525955940555586e+03 0.0000000000000000e+00 6.0525955940555605e+03 -3.9104862993839015e+03 0.0000000000000000e+00 0.0000000000000000e+00 0.0000000000000000e+00 0.0000000000000000e+00  -5.0830737643884058e+03 5.7744398238531903e+03 0.0000000000000000e+00 5.7744398238531967e+03 -6.7937066034652953e+03 0.0000000000000000e+00 0.0000000000000000e+00 0.0000000000000000e+00 0.0000000000000000e+00  -5.2182713024000141e+03 -6.0133473249949620e+03 0.0000000000000000e+00 -6.0133473249949639e+03 -6.6782170660008078e+03 0.0000000000000000e+00 0.0000000000000000e+00 0.0000000000000000e+00 0.0000000000000000e+00  -7.7407272739338196e+03 -6.1178171847442663e+03 0.0000000000000000e+00 -6.1178171847442673e+03 -6.2353568337956085e+03 0.0000000000000000e+00 0.0000000000000000e+00 0.0000000000000000e+00 0.0000000000000000e+00  -3.9398336821902853e+03 -4.8586464407712483e+03 0.0000000000000000e+00 -4.8586464407712465e+03 -4.6584382594758372e+03 0.0000000000000000e+00 0.0000000000000000e+00 0.0000000000000000e+00 0.0000000000000000e+00  5.9225440320845642e+01 -3.4845628122044366e+02 0.0000000000000000e+00 -3.4845628122044513e+02 7.9393185097595488e+03 0.0000000000000000e+00 0.0000000000000000e+00 0.0000000000000000e+00 0.0000000000000000e+00  -1.0765222440475335e+02 4.6142259767963189e+01 0.0000000000000000e+00 4.6142259767963189e+01 -4.3753462297862882e+01 0.0000000000000000e+00 0.0000000000000000e+00 0.0000000000000000e+00 0.0000000000000000e+00  2.8544738438470820e+00 1.0699904852332038e+01 0.0000000000000000e+00 1.0699904852332038e+01 6.4098769082916090e+02 0.0000000000000000e+00 0.0000000000000000e+00 0.0000000000000000e+00 0.0000000000000000e+00  8.1309403422898452e-01 -1.5172134919339014e+01 0.0000000000000000e+00 -1.5172134919339046e+01 6.5289782089141647e+02 0.0000000000000000e+00 0.0000000000000000e+00 0.0000000000000000e+00 0.0000000000000000e+00  6.5504333035751387e+01 -2.5470984075659810e+00 0.0000000000000000e+00 -2.5470984075657959e+00 -2.0755650975504103e+01 0.0000000000000000e+00 0.0000000000000000e+00 0.0000000000000000e+00 0.0000000000000000e+00  -1.3110229996169224e+01 -2.4780996397574073e+00 0.0000000000000000e+00 -2.4780996397574069e+00 -1.7165914168293623e+00 0.0000000000000000e+00 0.0000000000000000e+00 0.0000000000000000e+00 0.0000000000000000e+00  8.5930000561507058e-01 6.1140734838656974e-01 0.0000000000000000e+00 6.1140734838656963e-01 2.6905335989450152e-01 0.0000000000000000e+00 0.0000000000000000e+00 0.0000000000000000e+00 0.0000000000000000e+00  -1.8716017814863260e+01 1.1639710852325477e+01 0.0000000000000000e+00 1.1639710852325424e+01 -1.1463952606741403e+01 0.0000000000000000e+00 0.0000000000000000e+00 0.0000000000000000e+00 0.0000000000000000e+00  -4.5878831545637894e+01 -6.6300893751954632e+01 0.0000000000000000e+00 -6.6300893751954646e+01 2.0392293117256283e+01 0.0000000000000000e+00 0.0000000000000000e+00 0.0000000000000000e+00 0.0000000000000000e+00  5.5133720339965144e+01 6.4965919236693310e+01 0.0000000000000000e+00 6.4965919236693352e+01 -1.9146436341828480e+01 0.0000000000000000e+00 0.0000000000000000e+00 0.0000000000000000e+00 0.0000000000000000e+00  -1.3749354872490843e+01 -6.7403445063318742e+01 0.0000000000000000e+00 -6.7403445063318657e+01 -6.5473055770051289e+01 0.0000000000000000e+00 0.0000000000000000e+00 0.0000000000000000e+00 0.0000000000000000e+00  -1.9118409509488006e+02 -1.4871281927622945e+02 0.0000000000000000e+00 -1.4871281927622942e+02 -1.7005846698193173e+02 0.0000000000000000e+00 0.0000000000000000e+00 0.0000000000000000e+00 0.0000000000000000e+00  -4.6888688469177097e+01 -3.1615104541532702e+01 0.0000000000000000e+00 -3.1615104541532741e+01 -8.0994060359962550e+00 0.0000000000000000e+00 0.0000000000000000e+00 0.0000000000000000e+00 0.0000000000000000e+00  -9.1889916769747082e-01 -3.7696881994561526e-01 0.0000000000000000e+00 -3.7696881994561326e-01 2.3981597953127549e+00 0.0000000000000000e+00 0.0000000000000000e+00 0.0000000000000000e+00 0.0000000000000000e+00  -4.1834639668383149e+00 -1.6951514447443978e+00 0.0000000000000000e+00 -1.6951514447443963e+00 -3.8323890690597016e+00 0.0000000000000000e+00 0.0000000000000000e+00 0.0000000000000000e+00 0.0000000000000000e+00  -4.9166621091488450e+03 5.7038148577198126e+03 0.0000000000000000e+00 5.7038148577198026e+03 -6.6596832803129628e+03 0.0000000000000000e+00 0.0000000000000000e+00 0.0000000000000000e+00 0.0000000000000000e+00  -6.4930795364608011e+03 6.0622940771252997e+03 0.0000000000000000e+00 6.0622940771252979e+03 -4.3569021172170642e+03 0.0000000000000000e+00 0.0000000000000000e+00 0.0000000000000000e+00 0.0000000000000000e+00  -5.6743941261169448e+03 5.7917716566855233e+03 0.0000000000000000e+00 5.7917716566855279e+03 -6.9073099083023390e+03 0.0000000000000000e+00 0.0000000000000000e+00 0.0000000000000000e+00 0.0000000000000000e+00  -5.1480439834171295e+02 6.8517227583824692e+01 0.0000000000000000e+00 6.8517227583825004e+01 -1.1980712439804813e+04 0.0000000000000000e+00 0.0000000000000000e+00 0.0000000000000000e+00 0.0000000000000000e+00  -4.8666687081501150e+03 -5.9105885769683209e+03 0.0000000000000000e+00 -5.9105885769683164e+03 -6.0950620582592337e+03 0.0000000000000000e+00 0.0000000000000000e+00 0.0000000000000000e+00 0.0000000000000000e+00  -7.9246357208235204e+03 -6.2612597592546017e+03 0.0000000000000000e+00 -6.2612597592546026e+03 -5.6077017313614215e+03 0.0000000000000000e+00 0.0000000000000000e+00 0.0000000000000000e+00 0.0000000000000000e+00  -4.3061135803507614e+03 -4.8662682953136855e+03 0.0000000000000000e+00 -4.8662682953136837e+03 -6.1219575179203039e+03 0.0000000000000000e+00 0.0000000000000000e+00 0.0000000000000000e+00 0.0000000000000000e+00  -2.5538748670781320e+01 1.0746158490018196e+00 0.0000000000000000e+00 1.0746158490016702e+00 -2.0186475162507435e+01 0.0000000000000000e+00 0.0000000000000000e+00 0.0000000000000000e+00 0.0000000000000000e+00  6.4433233109214623e+00 4.7505676166732744e+00 0.0000000000000000e+00 4.7505676166732584e+00 6.4838713347447208e+02 0.0000000000000000e+00 0.0000000000000000e+00 0.0000000000000000e+00 0.0000000000000000e+00  1.5232648165561702e+02 1.2461606203572933e+02 0.0000000000000000e+00 1.2461606203572931e+02 7.7299351942785677e+02 0.0000000000000000e+00 0.0000000000000000e+00 0.0000000000000000e+00 0.0000000000000000e+00  -6.4681978208639066e+03 6.0638249963608514e+03 0.0000000000000000e+00 6.0638249963608469e+03 -5.7005010073353669e+03 0.0000000000000000e+00 0.0000000000000000e+00 0.0000000000000000e+00 0.0000000000000000e+00  -5.1213524787154911e+03 6.2340528605485288e+03 0.0000000000000000e+00 6.2340528605485288e+03 -7.8288337355062795e+03 0.0000000000000000e+00 0.0000000000000000e+00 0.0000000000000000e+00 0.0000000000000000e+00  -6.0632269934485967e+03 -5.8992649225568848e+03 0.0000000000000000e+00 -5.8992649225568939e+03 -5.6945536225736214e+03 0.0000000000000000e+00 0.0000000000000000e+00 0.0000000000000000e+00 0.0000000000000000e+00  -7.4685012036835878e+03 5.9661060485085436e+03 0.0000000000000000e+00 5.9661060485085472e+03 -4.2491992689626704e+03 0.0000000000000000e+00 0.0000000000000000e+00 0.0000000000000000e+00 0.0000000000000000e+00  -8.2258250733229179e+03 -5.8472696050893737e+03 0.0000000000000000e+00 -5.8472696050893692e+03 -8.5474144485571778e+03 0.0000000000000000e+00 0.0000000000000000e+00 0.0000000000000000e+00 0.0000000000000000e+00  -1.2596389705423460e+03 -1.2543006845060679e+03 0.0000000000000000e+00 -1.2543006845060711e+03 -9.7323453979861301e+02 0.0000000000000000e+00 0.0000000000000000e+00 0.0000000000000000e+00 0.0000000000000000e+00  -3.7897264416175567e+03 -6.0918244826075634e+03 0.0000000000000000e+00 -6.0918244826075661e+03 -3.0719916277152779e+03 0.0000000000000000e+00 0.0000000000000000e+00 0.0000000000000000e+00 0.0000000000000000e+00  -4.2526069952342618e+02 -4.8511516575674079e+02 0.0000000000000000e+00 -4.8511516575674068e+02 -9.8154068959027313e+02 0.0000000000000000e+00 0.0000000000000000e+00 0.0000000000000000e+00 0.0000000000000000e+00  3.7960731915084234e+03 3.2988108805940323e+02 0.0000000000000000e+00 3.2988108805940345e+02 1.6492771822138209e+04 0.0000000000000000e+00 0.0000000000000000e+00 0.0000000000000000e+00 0.0000000000000000e+00  -7.2062507222783199e+02 -6.2454981081175436e+02 0.0000000000000000e+00 -6.2454981081175322e+02 -3.6547291588011922e+02 0.0000000000000000e+00 0.0000000000000000e+00 0.0000000000000000e+00 0.0000000000000000e+00  -1.4245998272021109e+03 1.4869629594641281e+03 0.0000000000000000e+00 1.4869629594641269e+03 -1.2256203010169991e+03 0.0000000000000000e+00 0.0000000000000000e+00 0.0000000000000000e+00 0.0000000000000000e+00  -1.2003897653679762e+03 8.4490854625506404e+02 0.0000000000000000e+00 8.4490854625506336e+02 -6.3367844573516516e+02 0.0000000000000000e+00 0.0000000000000000e+00 0.0000000000000000e+00 0.0000000000000000e+00  4.7407422102914256e+02 -2.2063424203455759e+02 0.0000000000000000e+00 -2.2063424203455676e+02 -2.1305983619596125e+02 0.0000000000000000e+00 0.0000000000000000e+00 0.0000000000000000e+00 0.0000000000000000e+00  -4.3487205555838991e+03 -6.1069072845737292e+03 0.0000000000000000e+00 -6.1069072845737273e+03 -5.6909805847372627e+03 0.0000000000000000e+00 0.0000000000000000e+00 0.0000000000000000e+00 0.0000000000000000e+00  8.9874838331805120e+02 3.5284246417949397e+01 0.0000000000000000e+00 3.5284246417949809e+01 9.1060422328850691e+03 0.0000000000000000e+00 0.0000000000000000e+00 0.0000000000000000e+00 0.0000000000000000e+00  -7.1866073395917874e+03 -5.9405213562348845e+03 0.0000000000000000e+00 -5.9405213562348827e+03 -5.0461539858150882e+03 0.0000000000000000e+00 0.0000000000000000e+00 0.0000000000000000e+00 0.0000000000000000e+00  -4.4422838417958974e+03 5.9611992744810823e+03 0.0000000000000000e+00 5.9611992744810896e+03 -6.7129178256916312e+03 0.0000000000000000e+00 0.0000000000000000e+00 0.0000000000000000e+00 0.0000000000000000e+00  -5.5986558571744799e+03 -5.8042513666512268e+03 0.0000000000000000e+00 -5.8042513666512268e+03 -7.3084399992946592e+03 0.0000000000000000e+00 0.0000000000000000e+00 0.0000000000000000e+00 0.0000000000000000e+00  -6.4025834805020540e+03 6.0642367793592048e+03 0.0000000000000000e+00 6.0642367793592011e+03 -3.4824065705646885e+03 0.0000000000000000e+00 0.0000000000000000e+00 0.0000000000000000e+00 0.0000000000000000e+00  1.8836357819841469e+03 5.5944976243354340e+03 0.0000000000000000e+00 5.5944976243354349e+03 -6.9294191240859791e+03 0.0000000000000000e+00 0.0000000000000000e+00 0.0000000000000000e+00 0.0000000000000000e+00  -6.2600954704387213e+03 5.7236745177265984e+03 0.0000000000000000e+00 5.7236745177266021e+03 -7.9280501688247232e+03 0.0000000000000000e+00 0.0000000000000000e+00 0.0000000000000000e+00 0.0000000000000000e+00  -1.6867485150684788e+04 9.6844958935404484e+03 0.0000000000000000e+00 9.6844958935404502e+03 -1.9506341789891765e+04 0.0000000000000000e+00 0.0000000000000000e+00 0.0000000000000000e+00 0.0000000000000000e+00  -2.4680659299750417e+02 3.6958907143981338e+02 0.0000000000000000e+00 3.6958907143981594e+02 -1.2259492225456801e+04 0.0000000000000000e+00 0.0000000000000000e+00 0.0000000000000000e+00 0.0000000000000000e+00  -1.8670582687857161e+03 -1.2064580659319101e+03 0.0000000000000000e+00 -1.2064580659319099e+03 9.2720284248606622e+03 0.0000000000000000e+00 0.0000000000000000e+00 0.0000000000000000e+00 0.0000000000000000e+00  -4.4801990347552655e+03 -5.6741771025123880e+03 0.0000000000000000e+00 -5.6741771025123844e+03 -7.3767967939506934e+03 0.0000000000000000e+00 0.0000000000000000e+00 0.0000000000000000e+00 0.0000000000000000e+00  9.5362556943776860e+02 -9.9225575535111284e+02 0.0000000000000000e+00 -9.9225575535111193e+02 1.3394687940905416e+04 0.0000000000000000e+00 0.0000000000000000e+00 0.0000000000000000e+00 0.0000000000000000e+00  -1.1577460240093593e+04 -8.9776511863340511e+03 0.0000000000000000e+00 -8.9776511863340511e+03 -1.7204021772538697e+04 0.0000000000000000e+00 0.0000000000000000e+00 0.0000000000000000e+00 0.0000000000000000e+00  -1.4708375956817499e+03 9.8573753749629503e+01 0.0000000000000000e+00 9.8573753749621588e+01 7.8043838490877142e+03 0.0000000000000000e+00 0.0000000000000000e+00 0.0000000000000000e+00 0.0000000000000000e+00  -5.2510473217663675e+03 5.9093163947597741e+03 0.0000000000000000e+00 5.9093163947597786e+03 -4.5767471462204467e+03 0.0000000000000000e+00 0.0000000000000000e+00 0.0000000000000000e+00 0.0000000000000000e+00  -9.9034572047271231e+03 5.9462439324070810e+03 0.0000000000000000e+00 5.9462439324070774e+03 -1.1052293608550046e+04 0.0000000000000000e+00 0.0000000000000000e+00 0.0000000000000000e+00 0.0000000000000000e+00  -6.9319280092908111e+03 -6.0483790758407458e+03 0.0000000000000000e+00 -6.0483790758407449e+03 -6.0556715222618132e+03 0.0000000000000000e+00 0.0000000000000000e+00 0.0000000000000000e+00 0.0000000000000000e+00  -2.9252413210467207e+03 6.0114401520225047e+03 0.0000000000000000e+00 6.0114401520225065e+03 -1.4906365198127075e+03 0.0000000000000000e+00 0.0000000000000000e+00 0.0000000000000000e+00 0.0000000000000000e+00  -6.0988267789469273e+03 -6.1498625584659967e+03 0.0000000000000000e+00 -6.1498625584659967e+03 -8.0216110051954474e+03 0.0000000000000000e+00 0.0000000000000000e+00 0.0000000000000000e+00 0.0000000000000000e+00  -1.4833406839783913e+03 -1.3431450765463787e+03 0.0000000000000000e+00 -1.3431450765463762e+03 -1.1322081382402225e+03 0.0000000000000000e+00 0.0000000000000000e+00 0.0000000000000000e+00 0.0000000000000000e+00  -5.6622753382464898e+03 -6.0935564613116167e+03 0.0000000000000000e+00 -6.0935564613116176e+03 -3.4582428566947710e+03 0.0000000000000000e+00 0.0000000000000000e+00 0.0000000000000000e+00 0.0000000000000000e+00  1.3281344574785646e+03 1.0066341191870179e+03 0.0000000000000000e+00 1.0066341191870157e+03 6