<?xml version="1.0"?>
<VTKFile type="UnstructuredGrid"  version="0.1"  >
<UnstructuredGrid>
<Piece  NumberOfPoints="4855" NumberOfCells="8780">
<Points>
<DataArray  type="Float64"  NumberOfComponents="3"  format="ascii">0.9483880164242298 0.6836931311526558 0  0.9494264999197789 0.6847056440044139 0  0.9494005292759887 0.6847228078606633 0  0.9735520289385229 0.7444444444444445 0  0.9494005292759886 0.8041660810282256 0  0.94942649991978 0.8041832448844759 0  0.9483880175070514 0.8051957566534116 0  3.131175874138137e-16 0.09811450876034808 0  0.06838800723463068 0.1543033514199101 0  0.05161198249294494 0.1948042433465922 0  0.0505735000802211 0.1958167551155251 0  0.05059947072401128 0.1958339189717744 0  0.0505994707240113 0.3152771921393367 0  0.05057350008021998 0.315294355995587 0  0.05161198357913653 0.3163068688507105 0  0.06838800723463068 0.356807759691201 0  3.252606517456513e-16 0.4129966023507631 0  -1.795438797635995e-16 0.4839416311832997 0  0.07083274769489223 0.4605116403870998 0  0.07084991155114129 0.4605376110308903 0  0.07186242331670639 0.4594991286215342 0  0.1696402113702762 0.5 0  0.07186242332008326 0.5405008713818427 0  0.0708499115511413 0.5394623889691096 0  0.07083274769489219 0.5394883596129002 0  -1.925543058334256e-16 0.5160583688167003 0  1.484923295436147e-15 0.5870033976492365 0  0.06838800723463068 0.643192240308799 0  0.05161198249294541 0.6836931322354806 0  0.05057350008022109 0.6847056440044139 0  0.0505994707240113 0.6847228078606633 0  0.0505994707240113 0.8041660810282256 0  0.05057350008021999 0.804183244884476 0  0.05161198249294764 0.8051957566534106 0  0.06838800723463068 0.84569664858009 0  1.485790657174135e-15 0.9018854912396524 0  0 1 0  1 1 0  0.9999999999999987 0.9018854912396523 0  1.000000000000001 0.5870033976492375 0  1 0.5160583688167003 0  0.9291672523051078 0.5394883596129003 0  0.9291500884488585 0.5394623889691117 0  0.9281375755937461 0.5405008724680134 0  0.9281375755937372 0.4594991275319777 0  0.9291500884488586 0.4605376110308884 0  0.9291672523051077 0.4605116403870997 0  1 0.4839416311832997 0  0.9999999999999987 0.4129966023507635 0  0.948388017507054 0.31630686776452 0  0.94942649991978 0.3152943559955871 0  0.9494005292759886 0.3152771921393367 0  0.9735520289385229 0.2555555555555555 0  0.9494005292759888 0.1958339189717744 0  0.9494264999197789 0.1958167551155251 0  0.9483880164208631 0.1948042422604003 0  1.000000000000001 0.09811450876034861 0  1 0 0  0 0 0  0.1958339189717744 0.2950439151684559 0  0.1958167551155252 0.2950179445246672 0  0.3152771921393367 0.2950439151684557 0  0.1948042433481841 0.2960564269357975 0  0.3152943559955858 0.2950179445246651 0  0.1948042422604031 0.2150546830875326 0  0.3163068677645244 0.2960564269373949 0  0.1958167551155251 0.2160931665864439 0  0.4140846558147206 0.2555555555555555 0  0.1958339189717744 0.2160671959426553 0  0.3163068688489276 0.215054683089313 0  0.3152771921393367 0.2160671959426553 0  0.3152943559955858 0.2160931665864459 0  0.5405008724680257 0.3163068688507107 0  0.5572768961235196 0.356807759691201 0  0.5394623889691089 0.3152943559955871 0  0.459499128618165 0.3163068677645201 0  0.5394883596129003 0.3152771921393367 0  0.4605376110308911 0.3152943559955871 0  0.5394883596129001 0.1958339189717744 0  0.4605116403870998 0.3152771921393367 0  0.53946238896911 0.1958167551155251 0  0.4846631400496339 0.2555555555555555 0  0.5405008724680251 0.1948042422604009 0  0.4605116403870998 0.1958339189717744 0  0.5572768961235196 0.1543033514199101 0  0.46053761103089 0.1958167551155251 0  0.4594991286269881 0.1948042433554141 0  0.6847228078606633 0.2950439151684559 0  0.684705644004414 0.2950179445246672 0  0.8041660810282256 0.2950439151684557 0  0.683693131164073 0.2960564280087975 0  0.8041832448844747 0.2950179445246651 0  0.6836931322354718 0.2150546841737125 0  0.8051957566534156 0.2960564269373971 0  0.6847056440044141 0.2160931665864439 0  0.9029735447036096 0.2555555555555555 0  0.6847228078606632 0.2160671959426553 0  0.8051957577274008 0.2150546830997286 0  0.8041660810282256 0.2160671959426553 0  0.8041832448844747 0.2160931665864459 0  0.2960564280235811 0.560751313295155 0  0.3128324516790751 0.6012522041356455 0  0.2950179445246645 0.5597388004400315 0  0.2150546830875235 0.5607513132951615 0  0.2950439151684557 0.5597216365837812 0  0.2160931665864466 0.5597388004400314 0  0.2950439151684558 0.4402783634162188 0  0.2160671959426553 0.5597216365837812 0  0.2950179445246656 0.4402611995599696 0  0.2402186956051895 0.5 0  0.29605642693739 0.439248687791036 0  0.2160671959426553 0.4402783634162189 0  0.3128324516790751 0.3987477958643545 0  0.2160931665864455 0.4402611995599696 0  0.2150546830875296 0.4392486867048446 0  0.1958339189717743 0.7839328040573448 0  0.1958167551155252 0.7839068334135562 0  0.3152771921393367 0.7839328040573447 0  0.1948042422604028 0.7849453169124678 0  0.3152943559955858 0.783906833413554 0  0.1948042433465913 0.7039435730626098 0  0.3163068677645284 0.7849453158262878 0  0.1958167551155251 0.7049820554753328 0  0.4140846558147206 0.7444444444444445 0  0.1958339189717744 0.7049560848315441 0  0.3163068688486237 0.7039435719785058 0  0.3152771921393367 0.7049560848315441 0  0.3152943559955858 0.7049820554753349 0  0.4402783634162188 0.5394883596129003 0  0.4402611995599696 0.5394623889691117 0  0.5597216365837812 0.5394883596129002 0  0.4392486867048468 0.5405008724680237 0  0.5597388004400302 0.5394623889691096 0  0.4392486877998708 0.4594991286270004 0  0.5607513122089726 0.540500871381843 0  0.4402611995599696 0.4605376110308884 0  0.6585291002591651 0.5 0  0.4402783634162188 0.4605116403870998 0  0.5607513121946796 0.45949912863245 0  0.5597216365837812 0.4605116403870998 0  0.5597388004400302 0.4605376110308904 0  0.78494531690701 0.5607513132896949 0  0.8017213405679641 0.6012522041356455 0  0.7839068334135535 0.5597388004400315 0  0.7039435730626069 0.5607513122089671 0  0.7839328040573448 0.5597216365837812 0  0.7049820554753355 0.5597388004400314 0  0.7839328040573448 0.4402783634162188 0  0.7049560848315441 0.5597216365837812 0  0.7839068334135545 0.4402611995599696 0  0.7291075844940784 0.5 0  0.784945315826279 0.4392486877910359 0  0.7049560848315444 0.4402783634162188 0  0.8017213405679641 0.3987477958643545 0  0.7049820554753344 0.4402611995599696 0  0.7039435719764182 0.4392486867048443 0  0.5405008724625655 0.8051957577341393 0  0.5572768961235196 0.84569664858009 0  0.539462388969109 0.804183244884476 0  0.4594991286181648 0.8051957566534091 0  0.5394883596129003 0.8041660810282256 0  0.4605376110308911 0.804183244884476 0  0.5394883596129003 0.6847228078606633 0  0.4605116403870998 0.8041660810282256 0  0.53946238896911 0.6847056440044139 0  0.4846631400496339 0.7444444444444445 0  0.5405008713818347 0.6836931322354802 0  0.4605116403870998 0.6847228078606633 0  0.5572768961235196 0.643192240308799 0  0.46053761103089 0.6847056440044139 0  0.4594991275353449 0.6836931311526599 0  0.6847228078606633 0.7839328040573448 0  0.684705644004414 0.7839068334135562 0  0.8041660810282256 0.7839328040573447 0  0.6836931311493016 0.7849453169124578 0  0.8041832448844747 0.783906833413554 0  0.68369313223548 0.7039435730626096 0  0.805195756653417 0.7849453158262875 0  0.6847056440044141 0.7049820554753328 0  0.9029735447036096 0.7444444444444445 0  0.6847228078606633 0.7049560848315441 0  0.805195757738809 0.7039435719772094 0  0.8041660810282256 0.7049560848315441 0  0.8041832448844747 0.7049820554753349 0  0.9578164230213342 0.6948838683471341 0  0.9645772892192558 0.7062137009141434 0  0.9695236884064815 0.7184451175460498 0  0.972538971146615 0.7312896684428197 0  0.9725389711466151 0.7575992204460691 0  0.9695236884064815 0.7704437713428391 0  0.9645772892192558 0.7826751879747456 0  0.9578164230213342 0.7940050205417549 0  0.01437766570919127 0.09711967848259151 0  0.02854851642641832 0.09974531144948819 0  0.04161535472570586 0.1058251712658871 0  0.05275088139110013 0.1149743244732108 0  0.06125007411586489 0.1266135117968212 0  0.06657482449792251 0.1400058227212122 0  0.06643634307317195 0.1691277076584997 0  0.06071435336153361 0.1829418078690686 0  0.04134737123322858 0.3039103077764334 0  0.03416190609801732 0.2911362521989113 0  0.02925217947541549 0.2773267630846004 0  0.02676106927623143 0.2628837102534819 0  0.02676106927623143 0.2482274008576293 0  0.02925217947541547 0.2337843480265108 0  0.03416190609801727 0.2199748589121999 0  0.04134737123322851 0.2072008033346779 0  0.06071435387356935 0.328169304128914 0  0.06643634320569657 0.3419834039471998 0  0.06657482449792249 0.371105288389899 0  0.06125007411586481 0.3844975993142901 0  0.05275088139109994 0.3961367866379005 0  0.04161535472570563 0.4052859398452242 0  0.02854851642641818 0.411365799661623 0  0.01437766570919127 0.4139914326285196 0  0 0.4697526254167924 0  0 0.455563619650285 0  0 0.4413746138837777 0  0 0.4271856081172704 0  0.06095233986089402 0.4687284952262988 0  0.04995687430503332 0.4753797281664747 0  0.03809234373417287 0.4803165365228644 0  0.02562418374773841 0.4834284730529493 0  0.01283133446055119 0.4846459169037758 0  0.08372485599813187 0.4503967593658507 0  0.09753895276796982 0.4446747697099958 0  0.1123633055586467 0.4427231038764812 0  0.1271876590095525 0.4446747646950606 0  0.1410017577150834 0.45039674967774 0  0.1528641934757506 0.4594991149204779 0  0.161966560724962 0.471361549141524 0  0.1676885480442292 0.4851756468792086 0  0.1676885480443665 0.514824353120279 0  0.1619665607254926 0.528638450857557 0  0.1528641934768762 0.5405008850783964 0  0.1410017577169217 0.5496032503211987 0  0.1271876590121153 0.5553252353042526 0  0.1123633055618306 0.5572768961235188 0  0.09753895277155772 0.5553252302909656 0  0.08372485600180817 0.5496032406362719 0  0.0128313344605512 0.5153540830962242 0  0.0256241837477384 0.5165715269470507 0  0.03809234373417282 0.5196834634771356 0  0.04995687430503334 0.5246202718335253 0  0.06095233986089401
[...]
<PointData  Tensors="$\sigma$"> 
<DataArray  type="Float64"  Name="$\sigma$"  NumberOfComponents="9" format="ascii">-4.6268683506662846e+03 -5.7628819866475933e+03 0.0000000000000000e+00 -5.7628819866475978e+03 -6.1165204008673509e+03 0.0000000000000000e+00 0.0000000000000000e+00 0.0000000000000000e+00 0.0000000000000000e+00  -7.4822974340959236e+03 -6.0865801761160319e+03 0.0000000000000000e+00 -6.0865801761160228e+03 -5.9402150033735224e+03 0.0000000000000000e+00 0.0000000000000000e+00 0.0000000000000000e+00 0.0000000000000000e+00  -5.2113879399844791e+03 -5.9238621012361264e+03 0.0000000000000000e+00 -5.9238621012361264e+03 -6.0470698047985625e+03 0.0000000000000000e+00 0.0000000000000000e+00 0.0000000000000000e+00 0.0000000000000000e+00  2.9844812773459644e+01 -3.1140576961489711e+02 0.0000000000000000e+00 -3.1140576961489688e+02 -1.1524369181122118e+04 0.0000000000000000e+00 0.0000000000000000e+00 0.0000000000000000e+00 0.0000000000000000e+00  -5.3092215813303783e+03 6.0889130732785270e+03 0.0000000000000000e+00 6.0889130732785379e+03 -6.8145646548571031e+03 0.0000000000000000e+00 0.0000000000000000e+00 0.0000000000000000e+00 0.0000000000000000e+00  -8.0141302860068945e+03 5.9011215599403986e+03 0.0000000000000000e+00 5.9011215599404022e+03 -5.8519906434639597e+03 0.0000000000000000e+00 0.0000000000000000e+00 0.0000000000000000e+00 0.0000000000000000e+00  -3.8001561542986046e+03 5.4114071204469246e+03 0.0000000000000000e+00 5.4114071204469201e+03 -5.1429076996979502e+03 0.0000000000000000e+00 0.0000000000000000e+00 0.0000000000000000e+00 0.0000000000000000e+00  8.0495673045448711e+01 4.4206149203464946e+00 0.0000000000000000e+00 4.4206149203464431e+00 3.2953449527096218e+01 0.0000000000000000e+00 0.0000000000000000e+00 0.0000000000000000e+00 0.0000000000000000e+00  -4.1636059114469212e+01 7.6924082862009371e+01 0.0000000000000000e+00 7.6924082862009030e+01 8.3206318937938995e+03 0.0000000000000000e+00 0.0000000000000000e+00 0.0000000000000000e+00 0.0000000000000000e+00  -4.3782584595145136e+03 4.8050183764724534e+03 0.0000000000000000e+00 4.8050183764724561e+03 -6.4196929853364500e+03 0.0000000000000000e+00 0.0000000000000000e+00 0.0000000000000000e+00 0.0000000000000000e+00  -7.1502943652733338e+03 6.1620355145087915e+03 0.0000000000000000e+00 6.1620355145087888e+03 -4.4710852945499910e+03 0.0000000000000000e+00 0.0000000000000000e+00 0.0000000000000000e+00 0.0000000000000000e+00  -5.3193249962934115e+03 5.9302256487403456e+03 0.0000000000000000e+00 5.9302256487403538e+03 -6.6450937722741055e+03 0.0000000000000000e+00 0.0000000000000000e+00 0.0000000000000000e+00 0.0000000000000000e+00  -4.6149163951803812e+03 -5.9897983305422913e+03 0.0000000000000000e+00 -5.9897983305422858e+03 -5.3439072107332731e+03 0.0000000000000000e+00 0.0000000000000000e+00 0.0000000000000000e+00 0.0000000000000000e+00  -8.9452191135790345e+03 -6.0597248917942879e+03 0.0000000000000000e+00 -6.0597248917943016e+03 -6.7041608519081747e+03 0.0000000000000000e+00 0.0000000000000000e+00 0.0000000000000000e+00 0.0000000000000000e+00  -3.6249730350075215e+03 -5.7320985076929783e+03 0.0000000000000000e+00 -5.7320985076929637e+03 -5.9982125236012726e+03 0.0000000000000000e+00 0.0000000000000000e+00 0.0000000000000000e+00 0.0000000000000000e+00  3.4936458260302635e+02 1.2436109513667652e+01 0.0000000000000000e+00 1.2436109513668141e+01 1.0493853042869371e+03 0.0000000000000000e+00 0.0000000000000000e+00 0.0000000000000000e+00 0.0000000000000000e+00  4.6932631666668350e+00 3.9741598841479679e+00 0.0000000000000000e+00 3.9741598841479688e+00 -7.9643319476795789e+00 0.0000000000000000e+00 0.0000000000000000e+00 0.0000000000000000e+00 0.0000000000000000e+00  -4.4388284677971361e+00 1.2809223872396454e+00 0.0000000000000000e+00 1.2809223872396469e+00 3.7198746635243380e+00 0.0000000000000000e+00 0.0000000000000000e+00 0.0000000000000000e+00 0.0000000000000000e+00  -4.8212436339644896e+01 3.5182691615973226e+01 0.0000000000000000e+00 3.5182691615973205e+01 -1.8659752368781263e+01 0.0000000000000000e+00 0.0000000000000000e+00 0.0000000000000000e+00 0.0000000000000000e+00  -3.8482714950957427e+02 2.7184775077361974e+02 0.0000000000000000e+00 2.7184775077361974e+02 -3.0086411099189826e+02 0.0000000000000000e+00 0.0000000000000000e+00 0.0000000000000000e+00 0.0000000000000000e+00  9.3219762228904202e+01 2.8195695736051629e+01 0.0000000000000000e+00 2.8195695736051615e+01 -9.5371490455786923e+00 0.0000000000000000e+00 0.0000000000000000e+00 0.0000000000000000e+00 0.0000000000000000e+00  6.9131073474376544e+03 -3.3482241785913226e+02 0.0000000000000000e+00 -3.3482241785913175e+02 1.9850673452280684e+04 0.0000000000000000e+00 0.0000000000000000e+00 0.0000000000000000e+00 0.0000000000000000e+00  2.4288965608669212e+01 -6.7521151286547592e+01 0.0000000000000000e+00 -6.7521151286547408e+01 -2.2524881056362002e+01 0.0000000000000000e+00 0.0000000000000000e+00 0.0000000000000000e+00 0.0000000000000000e+00  1.0253435324673015e+02 1.9523400936355000e+02 0.0000000000000000e+00 1.9523400936354992e+02 1.3531673364373742e+02 0.0000000000000000e+00 0.0000000000000000e+00 0.0000000000000000e+00 0.0000000000000000e+00  -2.8654107924132266e+01 -3.2138683910653548e+01 0.0000000000000000e+00 -3.2138683910653540e+01 -1.9804613150469280e+01 0.0000000000000000e+00 0.0000000000000000e+00 0.0000000000000000e+00 0.0000000000000000e+00  -8.6268324783786443e-01 3.8687093630721842e-01 0.0000000000000000e+00 3.8687093630721581e-01 2.4413753967828908e+00 0.0000000000000000e+00 0.0000000000000000e+00 0.0000000000000000e+00 0.0000000000000000e+00  -9.8592231055914699e+00 -8.6436240958076827e+00 0.0000000000000000e+00 -8.6436240958076844e+00 -6.8647942558241648e-01 0.0000000000000000e+00 0.0000000000000000e+00 0.0000000000000000e+00 0.0000000000000000e+00  -4.4360901152022770e+01 -1.0832867054943992e+02 0.0000000000000000e+00 -1.0832867054944022e+02 1.1448012375426970e+03 0.0000000000000000e+00 0.0000000000000000e+00 0.0000000000000000e+00 0.0000000000000000e+00  -4.8001194542579578e+03 5.6902094489787369e+03 0.0000000000000000e+00 5.6902094489787232e+03 -6.4793022026012932e+03 0.0000000000000000e+00 0.0000000000000000e+00 0.0000000000000000e+00 0.0000000000000000e+00  -7.2428780887518151e+03 6.1386010543273214e+03 0.0000000000000000e+00 6.1386010543273260e+03 -4.8130724552982729e+03 0.0000000000000000e+00 0.0000000000000000e+00 0.0000000000000000e+00 0.0000000000000000e+00  -5.1359043127537443e+03 5.8200778297430388e+03 0.0000000000000000e+00 5.8200778297430397e+03 -6.8597686575963153e+03 0.0000000000000000e+00 0.0000000000000000e+00 0.0000000000000000e+00 0.0000000000000000e+00  -5.6094316336102493e+03 -6.1391095668305143e+03 0.0000000000000000e+00 -6.1391095668305225e+03 -7.0199653668581004e+03 0.0000000000000000e+00 0.0000000000000000e+00 0.0000000000000000e+00 0.0000000000000000e+00  -7.4461452680373586e+03 -5.9745103912063987e+03 0.0000000000000000e+00 -5.9745103912063896e+03 -5.7525923945763752e+03 0.0000000000000000e+00 0.0000000000000000e+00 0.0000000000000000e+00 0.0000000000000000e+00  -3.8521818107946274e+03 -5.0198118692252010e+03 0.0000000000000000e+00 -5.0198118692252092e+03 -4.7787996357196134e+03 0.0000000000000000e+00 0.0000000000000000e+00 0.0000000000000000e+00 0.0000000000000000e+00  5.3777211730003074e+01 -3.5380898954882377e+02 0.0000000000000000e+00 -3.5380898954882599e+02 8.0003693142915199e+03 0.0000000000000000e+00 0.0000000000000000e+00 0.0000000000000000e+00 0.0000000000000000e+00  -1.1299434121156941e+02 4.8138725681029101e+01 0.0000000000000000e+00 4.8138725681029108e+01 -4.4597896634774436e+01 0.0000000000000000e+00 0.0000000000000000e+00 0.0000000000000000e+00 0.0000000000000000e+00  1.4792994860542199e+00 1.1672553011254182e+01 0.0000000000000000e+00 1.1672553011254184e+01 6.4858550279681583e+02 0.0000000000000000e+00 0.0000000000000000e+00 0.0000000000000000e+00 0.0000000000000000e+00  -5.2588670797109538e-01 -1.6185423798085086e+01 0.0000000000000000e+00 -1.6185423798085139e+01 6.5973740666841900e+02 0.0000000000000000e+00 0.0000000000000000e+00 0.0000000000000000e+00 0.0000000000000000e+00  7.1798277477277836e+01 -2.4692875721392897e+00 0.0000000000000000e+00 -2.4692875721390983e+00 -2.1873621121873644e+01 0.0000000000000000e+00 0.0000000000000000e+00 0.0000000000000000e+00 0.0000000000000000e+00  -1.5838299045836203e+01 -2.5573705390656909e+00 0.0000000000000000e+00 -2.5573705390656936e+00 -6.3831456497736250e-01 0.0000000000000000e+00 0.0000000000000000e+00 0.0000000000000000e+00 0.0000000000000000e+00  6.5509162518924668e-01 9.5004154562055909e-01 0.0000000000000000e+00 9.5004154562055976e-01 -4.1346370196597204e-01 0.0000000000000000e+00 0.0000000000000000e+00 0.0000000000000000e+00 0.0000000000000000e+00  -1.6951216878932836e+01 5.7703384558795872e+00 0.0000000000000000e+00 5.7703384558795392e+00 -6.3459911490452887e+00 0.0000000000000000e+00 0.0000000000000000e+00 0.0000000000000000e+00 0.0000000000000000e+00  -4.8728744786232149e+01 -6.7348612544166826e+01 0.0000000000000000e+00 -6.7348612544166855e+01 2.3622108256542386e+01 0.0000000000000000e+00 0.0000000000000000e+00 0.0000000000000000e+00 0.0000000000000000e+00  6.5662690827733201e+01 6.2075624577700871e+01 0.0000000000000000e+00 6.2075624577700914e+01 -1.8450980085580493e+01 0.0000000000000000e+00 0.0000000000000000e+00 0.0000000000000000e+00 0.0000000000000000e+00  -1.4558108215433204e+01 -6.8518273992295477e+01 0.0000000000000000e+00 -6.8518273992295363e+01 -6.2231312932718708e+01 0.0000000000000000e+00 0.0000000000000000e+00 0.0000000000000000e+00 0.0000000000000000e+00  -2.0848009559035239e+02 -1.6515487410931442e+02 0.0000000000000000e+00 -1.6515487410931442e+02 -1.8676623267553398e+02 0.0000000000000000e+00 0.0000000000000000e+00 0.0000000000000000e+00 0.0000000000000000e+00  -4.6810395511341078e+01 -3.1754389143073208e+01 0.0000000000000000e+00 -3.1754389143073247e+01 -1.1800989483251302e+01 0.0000000000000000e+00 0.0000000000000000e+00 0.0000000000000000e+00 0.0000000000000000e+00  -1.0507416195098823e-02 2.4483753358905690e-02 0.0000000000000000e+00 2.4483753358907370e-02 4.0581713487851143e+00 0.0000000000000000e+00 0.0000000000000000e+00 0.0000000000000000e+00 0.0000000000000000e+00  -3.3152051207108930e+00 -1.1854720555857119e+00 0.0000000000000000e+00 -1.1854720555857117e+00 -3.6772773816784929e+00 0.0000000000000000e+00 0.0000000000000000e+00 0.0000000000000000e+00 0.0000000000000000e+00  -5.0390106803379649e+03 5.7385706182704598e+03 0.0000000000000000e+00 5.7385706182704507e+03 -6.2822155270279609e+03 0.0000000000000000e+00 0.0000000000000000e+00 0.0000000000000000e+00 0.0000000000000000e+00  -6.8063966552275124e+03 6.1136841253611619e+03 0.0000000000000000e+00 6.1136841253611619e+03 -5.2046108560812354e+03 0.0000000000000000e+00 0.0000000000000000e+00 0.0000000000000000e+00 0.0000000000000000e+00  -5.4269879324364692e+03 5.8748129016570610e+03 0.0000000000000000e+00 5.8748129016570647e+03 -6.6509010421032599e+03 0.0000000000000000e+00 0.0000000000000000e+00 0.0000000000000000e+00 0.0000000000000000e+00  -2.4251475723604088e+02 -1.2643707370185821e+02 0.0000000000000000e+00 -1.2643707370185767e+02 -1.1821032943531472e+04 0.0000000000000000e+00 0.0000000000000000e+00 0.0000000000000000e+00 0.0000000000000000e+00  -5.1544276766497960e+03 -6.0751456152075116e+03 0.0000000000000000e+00 -6.0751456152075116e+03 -6.1582117736441205e+03 0.0000000000000000e+00 0.0000000000000000e+00 0.0000000000000000e+00 0.0000000000000000e+00  -7.4697940357811740e+03 -6.1067480286492691e+03 0.0000000000000000e+00 -6.1067480286492719e+03 -5.1436784719832949e+03 0.0000000000000000e+00 0.0000000000000000e+00 0.0000000000000000e+00 0.0000000000000000e+00  -4.5395523495221760e+03 -5.0904351375409396e+03 0.0000000000000000e+00 -5.0904351375409360e+03 -6.5638369313642288e+03 0.0000000000000000e+00 0.0000000000000000e+00 0.0000000000000000e+00 0.0000000000000000e+00  -1.9945388703068762e+01 -1.8340069915298198e+00 0.0000000000000000e+00 -1.8340069915299981e+00 -2.2641681974221800e+01 0.0000000000000000e+00 0.0000000000000000e+00 0.0000000000000000e+00 0.0000000000000000e+00  7.7286776607634273e+00 3.8925829520363164e+00 0.0000000000000000e+00 3.8925829520363129e+00 6.5668437321849058e+02 0.0000000000000000e+00 0.0000000000000000e+00 0.0000000000000000e+00 0.0000000000000000e+00  1.5293586360780512e+02 1.2540601352356524e+02 0.0000000000000000e+00 1.2540601352356548e+02 7.8184899358273503e+02 0.0000000000000000e+00 0.0000000000000000e+00 0.0000000000000000e+00 0.0000000000000000e+00  -6.3469027749375182e+03 6.1154541044547723e+03 0.0000000000000000e+00 6.1154541044547714e+03 -5.7144228155550891e+03 0.0000000000000000e+00 0.0000000000000000e+00 0.0000000000000000e+00 0.0000000000000000e+00  -5.1777914014622065e+03 6.3062718436115420e+03 0.0000000000000000e+00 6.3062718436115465e+03 -7.8880414817063556e+03 0.0000000000000000e+00 0.0000000000000000e+00 0.0000000000000000e+00 0.0000000000000000e+00  -6.4602169577218674e+03 -5.8984842460776017e+03 0.0000000000000000e+00 -5.8984842460776144e+03 -5.6295877351930740e+03 0.0000000000000000e+00 0.0000000000000000e+00 0.0000000000000000e+00 0.0000000000000000e+00  -7.5511046071548835e+03 5.9609679037261103e+03 0.0000000000000000e+00 5.9609679037261149e+03 -4.1342357478675049e+03 0.0000000000000000e+00 0.0000000000000000e+00 0.0000000000000000e+00 0.0000000000000000e+00  -7.7363804802072400e+03 -5.8790406886318087e+03 0.0000000000000000e+00 -5.8790406886318015e+03 -8.5441515514979637e+03 0.0000000000000000e+00 0.0000000000000000e+00 0.0000000000000000e+00 0.0000000000000000e+00  -1.2718155031541501e+03 -1.2787062878921213e+03 0.0000000000000000e+00 -1.2787062878921245e+03 -9.9526638537207316e+02 0.0000000000000000e+00 0.0000000000000000e+00 0.0000000000000000e+00 0.0000000000000000e+00  -4.1359129668122387e+03 -6.1746828813232614e+03 0.0000000000000000e+00 -6.1746828813232696e+03 -3.3605056569854205e+03 0.0000000000000000e+00 0.0000000000000000e+00 0.0000000000000000e+00 0.0000000000000000e+00  -4.7505932162539773e+02 -5.4199554473962212e+02 0.0000000000000000e+00 -5.4199554473962144e+02 -1.0581299702743311e+03 0.0000000000000000e+00 0.0000000000000000e+00 0.0000000000000000e+00 0.0000000000000000e+00  3.9254927470678062e+03 3.4659780885175309e+02 0.0000000000000000e+00 3.4659780885175343e+02 1.6711793916731949e+04 0.0000000000000000e+00 0.0000000000000000e+00 0.0000000000000000e+00 0.0000000000000000e+00  -7.4633726116174591e+02 -6.2944577965436997e+02 0.0000000000000000e+00 -6.2944577965437020e+02 -3.5236462750670455e+02 0.0000000000000000e+00 0.0000000000000000e+00 0.0000000000000000e+00 0.0000000000000000e+00  -1.5112689155086898e+03 1.5485435354775018e+03 0.0000000000000000e+00 1.5485435354775011e+03 -1.2603237118513598e+03 0.0000000000000000e+00 0.0000000000000000e+00 0.0000000000000000e+00 0.0000000000000000e+00  -1.1952630217968533e+03 8.4557280998031979e+02 0.0000000000000000e+00 8.4557280998031933e+02 -6.3794556574733383e+02 0.0000000000000000e+00 0.0000000000000000e+00 0.0000000000000000e+00 0.0000000000000000e+00  6.3310643748142047e+02 -3.5835017049110115e+02 0.0000000000000000e+00 -3.5835017049110081e+02 -9.9279338514829917e+01 0.0000000000000000e+00 0.0000000000000000e+00 0.0000000000000000e+00 0.0000000000000000e+00  -4.0621287547713478e+03 -6.0643485631747435e+03 0.0000000000000000e+00 -6.0643485631747453e+03 -5.5447938962350527e+03 0.0000000000000000e+00 0.0000000000000000e+00 0.0000000000000000e+00 0.0000000000000000e+00  9.8672340749319687e+02 7.4067539545693222e+01 0.0000000000000000e+00 7.4067539545692426e+01 9.6685891834735958e+03 0.0000000000000000e+00 0.0000000000000000e+00 0.0000000000000000e+00 0.0000000000000000e+00  -7.8802716761030661e+03 -6.0134236146529020e+03 0.0000000000000000e+00 -6.0134236146529038e+03 -5.8183732974935501e+03 0.0000000000000000e+00 0.0000000000000000e+00 0.0000000000000000e+00 0.0000000000000000e+00  -4.1263736473370664e+03 5.8911926319474733e+03 0.0000000000000000e+00 5.8911926319474742e+03 -6.4782040748952377e+03 0.0000000000000000e+00 0.0000000000000000e+00 0.0000000000000000e+00 0.0000000000000000e+00  -5.3521090022559647e+03 -5.8725251478427454e+03 0.0000000000000000e+00 -5.8725251478427426e+03 -6.8838727634002826e+03 0.0000000000000000e+00 0.0000000000000000e+00 0.0000000000000000e+00 0.0000000000000000e+00  -6.9866607799253534e+03 6.1666913720446128e+03 0.0000000000000000e+00 6.1666913720446100e+03 -4.3841049901867227e+03 0.0000000000000000e+00 0.0000000000000000e+00 0.0000000000000000e+00 0.0000000000000000e+00  2.3595554388796677e+03 5.5769982612462827e+03 0.0000000000000000e+00 5.5769982612462836e+03 -6.7755617509221647e+03 0.0000000000000000e+00 0.0000000000000000e+00 0.0000000000000000e+00 0.0000000000000000e+00  -6.1411358616683674e+03 5.8164348019081262e+03 0.0000000000000000e+00 5.8164348019081326e+03 -7.5113584473517167e+03 0.0000000000000000e+00 0.0000000000000000e+00 0.0000000000000000e+00 0.0000000000000000e+00  -1.7417152724627234e+04 9.7989458139296657e+03 0.0000000000000000e+00 9.7989458139296657e+03 -1.9863477871310581e+04 0.0000000000000000e+00 0.0000000000000000e+00 0.0000000000000000e+00 0.0000000000000000e+00  -2.8276257032489667e+02 4.1747662169890151e+02 0.0000000000000000e+00 4.1747662169890384e+02 -1.2093910979794173e+04 0.0000000000000000e+00 0.0000000000000000e+00 0.0000000000000000e+00 0.0000000000000000e+00  -1.8860871637880032e+03 -1.1597261282710917e+03 0.0000000000000000e+00 -1.1597261282710917e+03 9.3129602285900073e+03 0.0000000000000000e+00 0.0000000000000000e+00 0.0000000000000000e+00 0.0000000000000000e+00  -5.3007246326441327e+03 -6.2022475655702256e+03 0.0000000000000000e+00 -6.2022475655702165e+03 -7.7350910917498531e+03 0.0000000000000000e+00 0.0000000000000000e+00 0.0000000000000000e+00 0.0000000000000000e+00  9.7715112372539352e+02 -1.0726193316101803e+03 0.0000000000000000e+00 -1.0726193316101794e+03 1.3480286668034696e+04 0.0000000000000000e+00 0.0000000000000000e+00 0.0000000000000000e+00 0.0000000000000000e+00  -1.0962345118040301e+04 -8.8371688654361496e+03 0.0000000000000000e+00 -8.8371688654361569e+03 -1.7353272560112880e+04 0.0000000000000000e+00 0.0000000000000000e+00 0.0000000000000000e+00 0.0000000000000000e+00  -1.5167466862999586e+03 1.1960601069761181e+02 0.0000000000000000e+00 1.1960601069760129e+02 8.2231794027745236e+03 0.0000000000000000e+00 0.0000000000000000e+00 0.0000000000000000e+00 0.0000000000000000e+00  -5.4658289033555375e+03 5.9126506456470097e+03 0.0000000000000000e+00 5.9126506456470142e+03 -4.4567438122134017e+03 0.0000000000000000e+00 0.0000000000000000e+00 0.0000000000000000e+00 0.0000000000000000e+00  -9.7701604398039599e+03 6.0013960529855440e+03 0.0000000000000000e+00 6.0013960529855367e+03 -1.1483142222586932e+04 0.0000000000000000e+00 0.0000000000000000e+00 0.0000000000000000e+00 0.0000000000000000e+00  -6.6211867841491221e+03 -6.0745621266027165e+03 0.0000000000000000e+00 -6.0745621266027192e+03 -5.5866006652911528e+03 0.0000000000000000e+00 0.0000000000000000e+00 0.0000000000000000e+00 0.0000000000000000e+00  -3.2482487245411462e+03 6.0721953137397904e+03 0.0000000000000000e+00 6.0721953137397968e+03 -1.5605638286663925e+03 0.0000000000000000e+00 0.0000000000000000e+00 0.0000000000000000e+00 0.0000000000000000e+00  -7.3169486941682235e+03 -6.2380935050372600e+03 0.0000000000000000e+00 -6.2380935050372527e+03 -9.4168686855836040e+03 0.0000000000000000e+00 0.0000000000000000e+00 0.0000000000000000e+00 0.0000000000000000e+00  -1.4867495229881749e+03 -1.3491050205160946e+03 0.0000000000000000e+00 -1.3491050205160930e+03 -1.1330267539725166e+03 0.0000000000000000e+00 0.0000000000000000e+00 0.0000000000000000e+00 0.0000000000000000e+00  -4.8969232944987752e+03 -6.1083503851299847e+03 0.0000000000000000e+00 -6.1083503851299847e+03 -2.5890425895128360e+03 0.0000000000000000e+00 0.0000000000000000e+00 0.0000000000000000e+00 0.0000000000000000e+00  1.3539210600274507e+03 1.0199698347871132e+03 0.0000000000000000e+00 1.0199698347871112e+0