<?xml version="1.0"?>
<VTKFile type="UnstructuredGrid"  version="0.1"  >
<UnstructuredGrid>
<Piece  NumberOfPoints="4855" NumberOfCells="8780">
<Points>
<DataArray  type="Float64"  NumberOfComponents="3"  format="ascii">0.9483880164242298 0.6836931311526558 0  0.9494264999197789 0.6847056440044139 0  0.9494005292759887 0.6847228078606633 0  0.9735520289385229 0.7444444444444445 0  0.9494005292759886 0.8041660810282256 0  0.94942649991978 0.8041832448844759 0  0.9483880175070514 0.8051957566534116 0  3.131175874138137e-16 0.09811450876034808 0  0.06838800723463068 0.1543033514199101 0  0.05161198249294494 0.1948042433465922 0  0.0505735000802211 0.1958167551155251 0  0.05059947072401128 0.1958339189717744 0  0.0505994707240113 0.3152771921393367 0  0.05057350008021998 0.315294355995587 0  0.05161198357913653 0.3163068688507105 0  0.06838800723463068 0.356807759691201 0  3.252606517456513e-16 0.4129966023507631 0  -1.795438797635995e-16 0.4839416311832997 0  0.07083274769489223 0.4605116403870998 0  0.07084991155114129 0.4605376110308903 0  0.07186242331670639 0.4594991286215342 0  0.1696402113702762 0.5 0  0.07186242332008326 0.5405008713818427 0  0.0708499115511413 0.5394623889691096 0  0.07083274769489219 0.5394883596129002 0  -1.925543058334256e-16 0.5160583688167003 0  1.484923295436147e-15 0.5870033976492365 0  0.06838800723463068 0.643192240308799 0  0.05161198249294541 0.6836931322354806 0  0.05057350008022109 0.6847056440044139 0  0.0505994707240113 0.6847228078606633 0  0.0505994707240113 0.8041660810282256 0  0.05057350008021999 0.804183244884476 0  0.05161198249294764 0.8051957566534106 0  0.06838800723463068 0.84569664858009 0  1.485790657174135e-15 0.9018854912396524 0  0 1 0  1 1 0  0.9999999999999987 0.9018854912396523 0  1.000000000000001 0.5870033976492375 0  1 0.5160583688167003 0  0.9291672523051078 0.5394883596129003 0  0.9291500884488585 0.5394623889691117 0  0.9281375755937461 0.5405008724680134 0  0.9281375755937372 0.4594991275319777 0  0.9291500884488586 0.4605376110308884 0  0.9291672523051077 0.4605116403870997 0  1 0.4839416311832997 0  0.9999999999999987 0.4129966023507635 0  0.948388017507054 0.31630686776452 0  0.94942649991978 0.3152943559955871 0  0.9494005292759886 0.3152771921393367 0  0.9735520289385229 0.2555555555555555 0  0.9494005292759888 0.1958339189717744 0  0.9494264999197789 0.1958167551155251 0  0.9483880164208631 0.1948042422604003 0  1.000000000000001 0.09811450876034861 0  1 0 0  0 0 0  0.1958339189717744 0.2950439151684559 0  0.1958167551155252 0.2950179445246672 0  0.3152771921393367 0.2950439151684557 0  0.1948042433481841 0.2960564269357975 0  0.3152943559955858 0.2950179445246651 0  0.1948042422604031 0.2150546830875326 0  0.3163068677645244 0.2960564269373949 0  0.1958167551155251 0.2160931665864439 0  0.4140846558147206 0.2555555555555555 0  0.1958339189717744 0.2160671959426553 0  0.3163068688489276 0.215054683089313 0  0.3152771921393367 0.2160671959426553 0  0.3152943559955858 0.2160931665864459 0  0.5405008724680257 0.3163068688507107 0  0.5572768961235196 0.356807759691201 0  0.5394623889691089 0.3152943559955871 0  0.459499128618165 0.3163068677645201 0  0.5394883596129003 0.3152771921393367 0  0.4605376110308911 0.3152943559955871 0  0.5394883596129001 0.1958339189717744 0  0.4605116403870998 0.3152771921393367 0  0.53946238896911 0.1958167551155251 0  0.4846631400496339 0.2555555555555555 0  0.5405008724680251 0.1948042422604009 0  0.4605116403870998 0.1958339189717744 0  0.5572768961235196 0.1543033514199101 0  0.46053761103089 0.1958167551155251 0  0.4594991286269881 0.1948042433554141 0  0.6847228078606633 0.2950439151684559 0  0.684705644004414 0.2950179445246672 0  0.8041660810282256 0.2950439151684557 0  0.683693131164073 0.2960564280087975 0  0.8041832448844747 0.2950179445246651 0  0.6836931322354718 0.2150546841737125 0  0.8051957566534156 0.2960564269373971 0  0.6847056440044141 0.2160931665864439 0  0.9029735447036096 0.2555555555555555 0  0.6847228078606632 0.2160671959426553 0  0.8051957577274008 0.2150546830997286 0  0.8041660810282256 0.2160671959426553 0  0.8041832448844747 0.2160931665864459 0  0.2960564280235811 0.560751313295155 0  0.3128324516790751 0.6012522041356455 0  0.2950179445246645 0.5597388004400315 0  0.2150546830875235 0.5607513132951615 0  0.2950439151684557 0.5597216365837812 0  0.2160931665864466 0.5597388004400314 0  0.2950439151684558 0.4402783634162188 0  0.2160671959426553 0.5597216365837812 0  0.2950179445246656 0.4402611995599696 0  0.2402186956051895 0.5 0  0.29605642693739 0.439248687791036 0  0.2160671959426553 0.4402783634162189 0  0.3128324516790751 0.3987477958643545 0  0.2160931665864455 0.4402611995599696 0  0.2150546830875296 0.4392486867048446 0  0.1958339189717743 0.7839328040573448 0  0.1958167551155252 0.7839068334135562 0  0.3152771921393367 0.7839328040573447 0  0.1948042422604028 0.7849453169124678 0  0.3152943559955858 0.783906833413554 0  0.1948042433465913 0.7039435730626098 0  0.3163068677645284 0.7849453158262878 0  0.1958167551155251 0.7049820554753328 0  0.4140846558147206 0.7444444444444445 0  0.1958339189717744 0.7049560848315441 0  0.3163068688486237 0.7039435719785058 0  0.3152771921393367 0.7049560848315441 0  0.3152943559955858 0.7049820554753349 0  0.4402783634162188 0.5394883596129003 0  0.4402611995599696 0.5394623889691117 0  0.5597216365837812 0.5394883596129002 0  0.4392486867048468 0.5405008724680237 0  0.5597388004400302 0.5394623889691096 0  0.4392486877998708 0.4594991286270004 0  0.5607513122089726 0.540500871381843 0  0.4402611995599696 0.4605376110308884 0  0.6585291002591651 0.5 0  0.4402783634162188 0.4605116403870998 0  0.5607513121946796 0.45949912863245 0  0.5597216365837812 0.4605116403870998 0  0.5597388004400302 0.4605376110308904 0  0.78494531690701 0.5607513132896949 0  0.8017213405679641 0.6012522041356455 0  0.7839068334135535 0.5597388004400315 0  0.7039435730626069 0.5607513122089671 0  0.7839328040573448 0.5597216365837812 0  0.7049820554753355 0.5597388004400314 0  0.7839328040573448 0.4402783634162188 0  0.7049560848315441 0.5597216365837812 0  0.7839068334135545 0.4402611995599696 0  0.7291075844940784 0.5 0  0.784945315826279 0.4392486877910359 0  0.7049560848315444 0.4402783634162188 0  0.8017213405679641 0.3987477958643545 0  0.7049820554753344 0.4402611995599696 0  0.7039435719764182 0.4392486867048443 0  0.5405008724625655 0.8051957577341393 0  0.5572768961235196 0.84569664858009 0  0.539462388969109 0.804183244884476 0  0.4594991286181648 0.8051957566534091 0  0.5394883596129003 0.8041660810282256 0  0.4605376110308911 0.804183244884476 0  0.5394883596129003 0.6847228078606633 0  0.4605116403870998 0.8041660810282256 0  0.53946238896911 0.6847056440044139 0  0.4846631400496339 0.7444444444444445 0  0.5405008713818347 0.6836931322354802 0  0.4605116403870998 0.6847228078606633 0  0.5572768961235196 0.643192240308799 0  0.46053761103089 0.6847056440044139 0  0.4594991275353449 0.6836931311526599 0  0.6847228078606633 0.7839328040573448 0  0.684705644004414 0.7839068334135562 0  0.8041660810282256 0.7839328040573447 0  0.6836931311493016 0.7849453169124578 0  0.8041832448844747 0.783906833413554 0  0.68369313223548 0.7039435730626096 0  0.805195756653417 0.7849453158262875 0  0.6847056440044141 0.7049820554753328 0  0.9029735447036096 0.7444444444444445 0  0.6847228078606633 0.7049560848315441 0  0.805195757738809 0.7039435719772094 0  0.8041660810282256 0.7049560848315441 0  0.8041832448844747 0.7049820554753349 0  0.9578164230213342 0.6948838683471341 0  0.9645772892192558 0.7062137009141434 0  0.9695236884064815 0.7184451175460498 0  0.972538971146615 0.7312896684428197 0  0.9725389711466151 0.7575992204460691 0  0.9695236884064815 0.7704437713428391 0  0.9645772892192558 0.7826751879747456 0  0.9578164230213342 0.7940050205417549 0  0.01437766570919127 0.09711967848259151 0  0.02854851642641832 0.09974531144948819 0  0.04161535472570586 0.1058251712658871 0  0.05275088139110013 0.1149743244732108 0  0.06125007411586489 0.1266135117968212 0  0.06657482449792251 0.1400058227212122 0  0.06643634307317195 0.1691277076584997 0  0.06071435336153361 0.1829418078690686 0  0.04134737123322858 0.3039103077764334 0  0.03416190609801732 0.2911362521989113 0  0.02925217947541549 0.2773267630846004 0  0.02676106927623143 0.2628837102534819 0  0.02676106927623143 0.2482274008576293 0  0.02925217947541547 0.2337843480265108 0  0.03416190609801727 0.2199748589121999 0  0.04134737123322851 0.2072008033346779 0  0.06071435387356935 0.328169304128914 0  0.06643634320569657 0.3419834039471998 0  0.06657482449792249 0.371105288389899 0  0.06125007411586481 0.3844975993142901 0  0.05275088139109994 0.3961367866379005 0  0.04161535472570563 0.4052859398452242 0  0.02854851642641818 0.411365799661623 0  0.01437766570919127 0.4139914326285196 0  0 0.4697526254167924 0  0 0.455563619650285 0  0 0.4413746138837777 0  0 0.4271856081172704 0  0.06095233986089402 0.4687284952262988 0  0.04995687430503332 0.4753797281664747 0  0.03809234373417287 0.4803165365228644 0  0.02562418374773841 0.4834284730529493 0  0.01283133446055119 0.4846459169037758 0  0.08372485599813187 0.4503967593658507 0  0.09753895276796982 0.4446747697099958 0  0.1123633055586467 0.4427231038764812 0  0.1271876590095525 0.4446747646950606 0  0.1410017577150834 0.45039674967774 0  0.1528641934757506 0.4594991149204779 0  0.161966560724962 0.471361549141524 0  0.1676885480442292 0.4851756468792086 0  0.1676885480443665 0.514824353120279 0  0.1619665607254926 0.528638450857557 0  0.1528641934768762 0.5405008850783964 0  0.1410017577169217 0.5496032503211987 0  0.1271876590121153 0.5553252353042526 0  0.1123633055618306 0.5572768961235188 0  0.09753895277155772 0.5553252302909656 0  0.08372485600180817 0.5496032406362719 0  0.0128313344605512 0.5153540830962242 0  0.0256241837477384 0.5165715269470507 0  0.03809234373417282 0.5196834634771356 0  0.04995687430503334 0.5246202718335253 0  0.06095233986089401
[...]
<PointData  Tensors="$\sigma$"> 
<DataArray  type="Float64"  Name="$\sigma$"  NumberOfComponents="9" format="ascii">-5.4659104864013225e+03 -5.8556624007964601e+03 0.0000000000000000e+00 -5.8556624007964547e+03 -7.3745776475131652e+03 0.0000000000000000e+00 0.0000000000000000e+00 0.0000000000000000e+00 0.0000000000000000e+00  -5.7587437761500405e+03 -5.9466097699965831e+03 0.0000000000000000e+00 -5.9466097699965867e+03 -3.4120093067627445e+03 0.0000000000000000e+00 0.0000000000000000e+00 0.0000000000000000e+00 0.0000000000000000e+00  -5.6247228014944676e+03 -5.7240778537459555e+03 0.0000000000000000e+00 -5.7240778537459601e+03 -7.0560285482103327e+03 0.0000000000000000e+00 0.0000000000000000e+00 0.0000000000000000e+00 0.0000000000000000e+00  -3.2777461895975483e+02 -3.2458512876648035e+02 0.0000000000000000e+00 -3.2458512876648069e+02 -1.2058739757766198e+04 0.0000000000000000e+00 0.0000000000000000e+00 0.0000000000000000e+00 0.0000000000000000e+00  -4.4696143446948126e+03 5.4798183197303488e+03 0.0000000000000000e+00 5.4798183197303642e+03 -6.0617510060424956e+03 0.0000000000000000e+00 0.0000000000000000e+00 0.0000000000000000e+00 0.0000000000000000e+00  -8.7277804182181280e+03 6.4711513871353018e+03 0.0000000000000000e+00 6.4711513871352972e+03 -7.1247362721817690e+03 0.0000000000000000e+00 0.0000000000000000e+00 0.0000000000000000e+00 0.0000000000000000e+00  -3.6723741360049157e+03 4.7064647251171809e+03 0.0000000000000000e+00 4.7064647251171809e+03 -4.4267756462178986e+03 0.0000000000000000e+00 0.0000000000000000e+00 0.0000000000000000e+00 0.0000000000000000e+00  5.8647228994725751e+01 2.5604038385109913e+00 0.0000000000000000e+00 2.5604038385110237e+00 2.3802595945351452e+01 0.0000000000000000e+00 0.0000000000000000e+00 0.0000000000000000e+00 0.0000000000000000e+00  -9.0844162339913059e-01 7.2984820087074695e+01 0.0000000000000000e+00 7.2984820087074013e+01 8.2255011041181078e+03 0.0000000000000000e+00 0.0000000000000000e+00 0.0000000000000000e+00 0.0000000000000000e+00  -3.7951028411534221e+03 4.2828037322437813e+03 0.0000000000000000e+00 4.2828037322437858e+03 -5.2609370382797415e+03 0.0000000000000000e+00 0.0000000000000000e+00 0.0000000000000000e+00 0.0000000000000000e+00  -8.3509357693367201e+03 6.6955540227369902e+03 0.0000000000000000e+00 6.6955540227369829e+03 -6.3599099477537757e+03 0.0000000000000000e+00 0.0000000000000000e+00 0.0000000000000000e+00 0.0000000000000000e+00  -4.4189247600861245e+03 5.2656214307254440e+03 0.0000000000000000e+00 5.2656214307254486e+03 -5.6988243159830154e+03 0.0000000000000000e+00 0.0000000000000000e+00 0.0000000000000000e+00 0.0000000000000000e+00  -5.0530537469648616e+03 -5.8538270356367857e+03 0.0000000000000000e+00 -5.8538270356367848e+03 -6.9432792010925350e+03 0.0000000000000000e+00 0.0000000000000000e+00 0.0000000000000000e+00 0.0000000000000000e+00  -7.5904269978436223e+03 -5.6987938749242649e+03 0.0000000000000000e+00 -5.6987938749242694e+03 -4.1012609502634605e+03 0.0000000000000000e+00 0.0000000000000000e+00 0.0000000000000000e+00 0.0000000000000000e+00  -4.1866573051574469e+03 -6.1504819447006375e+03 0.0000000000000000e+00 -6.1504819447006303e+03 -7.0430690507325453e+03 0.0000000000000000e+00 0.0000000000000000e+00 0.0000000000000000e+00 0.0000000000000000e+00  2.9045448451122223e+02 -3.2512734619814722e+01 0.0000000000000000e+00 -3.2512734619814488e+01 1.4193980911392587e+03 0.0000000000000000e+00 0.0000000000000000e+00 0.0000000000000000e+00 0.0000000000000000e+00  1.7192020016896206e+00 1.3243203836722302e+00 0.0000000000000000e+00 1.3243203836722246e+00 -7.7297158236623096e+00 0.0000000000000000e+00 0.0000000000000000e+00 0.0000000000000000e+00 0.0000000000000000e+00  -1.4743025058849364e+00 5.7301535978663376e-01 0.0000000000000000e+00 5.7301535978663432e-01 3.0643554098037002e+00 0.0000000000000000e+00 0.0000000000000000e+00 0.0000000000000000e+00 0.0000000000000000e+00  -3.4231817441719656e+01 2.9518323921457736e+01 0.0000000000000000e+00 2.9518323921457775e+01 -1.6512353172354803e+01 0.0000000000000000e+00 0.0000000000000000e+00 0.0000000000000000e+00 0.0000000000000000e+00  -1.5326805412058181e+02 6.5513643274768981e+01 0.0000000000000000e+00 6.5513643274768924e+01 -8.8956142619175893e+01 0.0000000000000000e+00 0.0000000000000000e+00 0.0000000000000000e+00 0.0000000000000000e+00  3.8436041198620096e+01 5.4451707960289127e+01 0.0000000000000000e+00 5.4451707960289127e+01 -4.0539483375138850e+01 0.0000000000000000e+00 0.0000000000000000e+00 0.0000000000000000e+00 0.0000000000000000e+00  5.6959163810618265e+03 -2.4736764794734063e+02 0.0000000000000000e+00 -2.4736764794734054e+02 1.8555220918911149e+04 0.0000000000000000e+00 0.0000000000000000e+00 0.0000000000000000e+00 0.0000000000000000e+00  -5.6236616708886658e+00 -8.4286811723718714e+01 0.0000000000000000e+00 -8.4286811723718557e+01 -3.2614695778355646e+01 0.0000000000000000e+00 0.0000000000000000e+00 0.0000000000000000e+00 0.0000000000000000e+00  1.2167874408208039e+02 1.9715820951532700e+02 0.0000000000000000e+00 1.9715820951532686e+02 1.2881648588427987e+02 0.0000000000000000e+00 0.0000000000000000e+00 0.0000000000000000e+00 0.0000000000000000e+00  -2.4522330969375439e+01 -2.4733667135551357e+01 0.0000000000000000e+00 -2.4733667135551347e+01 -9.9147283759206140e+00 0.0000000000000000e+00 0.0000000000000000e+00 0.0000000000000000e+00 0.0000000000000000e+00  1.3029028872797312e+00 5.3382742747958989e-01 0.0000000000000000e+00 5.3382742747958845e-01 2.9734568495039366e+00 0.0000000000000000e+00 0.0000000000000000e+00 0.0000000000000000e+00 0.0000000000000000e+00  -7.1847572312568175e+00 -8.3399233360929728e+00 0.0000000000000000e+00 -8.3399233360929674e+00 9.7500571645755640e-01 0.0000000000000000e+00 0.0000000000000000e+00 0.0000000000000000e+00 0.0000000000000000e+00  -1.5890473427796717e+01 -3.2249520842894029e+01 0.0000000000000000e+00 -3.2249520842894150e+01 1.5418693411689735e+03 0.0000000000000000e+00 0.0000000000000000e+00 0.0000000000000000e+00 0.0000000000000000e+00  -5.2576573054021328e+03 6.0160284441456497e+03 0.0000000000000000e+00 6.0160284441456452e+03 -7.8854183064786084e+03 0.0000000000000000e+00 0.0000000000000000e+00 0.0000000000000000e+00 0.0000000000000000e+00  -6.4872031727753365e+03 5.7798122600969346e+03 0.0000000000000000e+00 5.7798122600969264e+03 -2.7518396613639184e+03 0.0000000000000000e+00 0.0000000000000000e+00 0.0000000000000000e+00 0.0000000000000000e+00  -5.0889882045940149e+03 5.7141102352665494e+03 0.0000000000000000e+00 5.7141102352665503e+03 -7.2790344644276811e+03 0.0000000000000000e+00 0.0000000000000000e+00 0.0000000000000000e+00 0.0000000000000000e+00  -4.6204938449685187e+03 -5.4873362795338071e+03 0.0000000000000000e+00 -5.4873362795338026e+03 -5.9939534646429292e+03 0.0000000000000000e+00 0.0000000000000000e+00 0.0000000000000000e+00 0.0000000000000000e+00  -8.2182780418584061e+03 -6.5077061307104432e+03 0.0000000000000000e+00 -6.5077061307104459e+03 -7.0912545162742472e+03 0.0000000000000000e+00 0.0000000000000000e+00 0.0000000000000000e+00 0.0000000000000000e+00  -3.8727352847403772e+03 -4.5042606871575435e+03 0.0000000000000000e+00 -4.5042606871575399e+03 -4.3100379547953316e+03 0.0000000000000000e+00 0.0000000000000000e+00 0.0000000000000000e+00 0.0000000000000000e+00  8.2809814805272268e+01 -3.3651662264894145e+02 0.0000000000000000e+00 -3.3651662264894230e+02 7.8286253578719179e+03 0.0000000000000000e+00 0.0000000000000000e+00 0.0000000000000000e+00 0.0000000000000000e+00  -9.9136294579991812e+01 4.3327507891045343e+01 0.0000000000000000e+00 4.3327507891045343e+01 -4.2148794550024185e+01 0.0000000000000000e+00 0.0000000000000000e+00 0.0000000000000000e+00 0.0000000000000000e+00  4.0490019624289664e+00 9.5225063907588208e+00 0.0000000000000000e+00 9.5225063907588012e+00 6.2352171740843744e+02 0.0000000000000000e+00 0.0000000000000000e+00 0.0000000000000000e+00 0.0000000000000000e+00  2.3878026860749837e+00 -1.3595009133438978e+01 0.0000000000000000e+00 -1.3595009133439017e+01 6.3896547114669977e+02 0.0000000000000000e+00 0.0000000000000000e+00 0.0000000000000000e+00 0.0000000000000000e+00  5.4919943836662959e+01 -2.6526955327823298e+00 0.0000000000000000e+00 -2.6526955327822153e+00 -1.9887747001679589e+01 0.0000000000000000e+00 0.0000000000000000e+00 0.0000000000000000e+00 0.0000000000000000e+00  -9.6125403126891413e+00 -1.9939257062074311e+00 0.0000000000000000e+00 -1.9939257062074294e+00 -2.6293415595130161e+00 0.0000000000000000e+00 0.0000000000000000e+00 0.0000000000000000e+00 0.0000000000000000e+00  9.1974429000930735e-01 4.0665573915044606e-01 0.0000000000000000e+00 4.0665573915044534e-01 8.5548303467383513e-01 0.0000000000000000e+00 0.0000000000000000e+00 0.0000000000000000e+00 0.0000000000000000e+00  -2.0055456205343319e+01 1.8642436763859681e+01 0.0000000000000000e+00 1.8642436763859642e+01 -1.6617074696716848e+01 0.0000000000000000e+00 0.0000000000000000e+00 0.0000000000000000e+00 0.0000000000000000e+00  -3.9874970801204618e+01 -6.4279830606640800e+01 0.0000000000000000e+00 -6.4279830606640814e+01 1.9427470757401313e+01 0.0000000000000000e+00 0.0000000000000000e+00 0.0000000000000000e+00 0.0000000000000000e+00  3.9173082349988100e+01 6.7546302437715326e+01 0.0000000000000000e+00 6.7546302437715411e+01 -2.3936465493558952e+01 0.0000000000000000e+00 0.0000000000000000e+00 0.0000000000000000e+00 0.0000000000000000e+00  -1.3362496795848473e+01 -6.6425379447722321e+01 0.0000000000000000e+00 -6.6425379447722165e+01 -6.6905184985550491e+01 0.0000000000000000e+00 0.0000000000000000e+00 0.0000000000000000e+00 0.0000000000000000e+00  -1.5763901898395082e+02 -1.1662655743657979e+02 0.0000000000000000e+00 -1.1662655743657974e+02 -1.3965617528649770e+02 0.0000000000000000e+00 0.0000000000000000e+00 0.0000000000000000e+00 0.0000000000000000e+00  -4.5151796259711567e+01 -2.9793615603884756e+01 0.0000000000000000e+00 -2.9793615603884795e+01 -3.0970369439601719e+00 0.0000000000000000e+00 0.0000000000000000e+00 0.0000000000000000e+00 0.0000000000000000e+00  -1.4522712082930027e+00 -6.5968513306620835e-01 0.0000000000000000e+00 -6.5968513306620669e-01 7.6334548587794215e-01 0.0000000000000000e+00 0.0000000000000000e+00 0.0000000000000000e+00 0.0000000000000000e+00  -4.9662638703101303e+00 -1.9149784443231741e+00 0.0000000000000000e+00 -1.9149784443231728e+00 -3.8871744620365511e+00 0.0000000000000000e+00 0.0000000000000000e+00 0.0000000000000000e+00 0.0000000000000000e+00  -4.9613029494269031e+03 5.7458184004210898e+03 0.0000000000000000e+00 5.7458184004210789e+03 -7.2248131170630595e+03 0.0000000000000000e+00 0.0000000000000000e+00 0.0000000000000000e+00 0.0000000000000000e+00  -5.5612881030187382e+03 5.9618725667781309e+03 0.0000000000000000e+00 5.9618725667781337e+03 -2.8595298470636367e+03 0.0000000000000000e+00 0.0000000000000000e+00 0.0000000000000000e+00 0.0000000000000000e+00  -6.3879245404797066e+03 5.7104562195060162e+03 0.0000000000000000e+00 5.7104562195060134e+03 -7.7748358142363613e+03 0.0000000000000000e+00 0.0000000000000000e+00 0.0000000000000000e+00 0.0000000000000000e+00  -4.0451845665809032e+02 7.7710209493589247e+01 0.0000000000000000e+00 7.7710209493590199e+01 -1.2211071697967263e+04 0.0000000000000000e+00 0.0000000000000000e+00 0.0000000000000000e+00 0.0000000000000000e+00  -4.3802094464158436e+03 -5.4456741561807212e+03 0.0000000000000000e+00 -5.4456741561807239e+03 -5.7426375022601978e+03 0.0000000000000000e+00 0.0000000000000000e+00 0.0000000000000000e+00 0.0000000000000000e+00  -8.5957417832996580e+03 -6.6138500252859503e+03 0.0000000000000000e+00 -6.6138500252859531e+03 -6.5009911670548599e+03 0.0000000000000000e+00 0.0000000000000000e+00 0.0000000000000000e+00 0.0000000000000000e+00  -3.9498591902367098e+03 -4.4959807584653145e+03 0.0000000000000000e+00 -4.4959807584653126e+03 -5.4442522056587914e+03 0.0000000000000000e+00 0.0000000000000000e+00 0.0000000000000000e+00 0.0000000000000000e+00  -3.2657066419123666e+01 5.4420608854059456e+00 0.0000000000000000e+00 5.4420608854058585e+00 -1.6848765175713652e+01 0.0000000000000000e+00 0.0000000000000000e+00 0.0000000000000000e+00 0.0000000000000000e+00  4.9732136033813150e+00 5.5245790746631442e+00 0.0000000000000000e+00 5.5245790746631425e+00 6.3099625640664988e+02 0.0000000000000000e+00 0.0000000000000000e+00 0.0000000000000000e+00 0.0000000000000000e+00  1.5139525225641867e+02 1.2314328639776285e+02 0.0000000000000000e+00 1.2314328639776286e+02 7.5355525628430757e+02 0.0000000000000000e+00 0.0000000000000000e+00 0.0000000000000000e+00 0.0000000000000000e+00  -6.4713507989337049e+03 5.9762190627490600e+03 0.0000000000000000e+00 5.9762190627490609e+03 -5.2046996091291285e+03 0.0000000000000000e+00 0.0000000000000000e+00 0.0000000000000000e+00 0.0000000000000000e+00  -6.2079673075884975e+03 6.1085500972744749e+03 0.0000000000000000e+00 6.1085500972744730e+03 -9.0581704907444964e+03 0.0000000000000000e+00 0.0000000000000000e+00 0.0000000000000000e+00 0.0000000000000000e+00  -5.6798572135434442e+03 -5.8485885068213884e+03 0.0000000000000000e+00 -5.8485885068213884e+03 -5.7148272492941696e+03 0.0000000000000000e+00 0.0000000000000000e+00 0.0000000000000000e+00 0.0000000000000000e+00  -6.3454569047342020e+03 6.0213384798718225e+03 0.0000000000000000e+00 6.0213384798718262e+03 -3.4191368354027081e+03 0.0000000000000000e+00 0.0000000000000000e+00 0.0000000000000000e+00 0.0000000000000000e+00  -7.6645192598011572e+03 -5.8830162684370343e+03 0.0000000000000000e+00 -5.8830162684370325e+03 -7.5970072799342279e+03 0.0000000000000000e+00 0.0000000000000000e+00 0.0000000000000000e+00 0.0000000000000000e+00  -1.2403399553566192e+03 -1.2144329639559326e+03 0.0000000000000000e+00 -1.2144329639559344e+03 -9.3550588582157206e+02 0.0000000000000000e+00 0.0000000000000000e+00 0.0000000000000000e+00 0.0000000000000000e+00  -4.3640830154801188e+03 -5.8679547276398889e+03 0.0000000000000000e+00 -5.8679547276398953e+03 -3.7877978191922898e+03 0.0000000000000000e+00 0.0000000000000000e+00 0.0000000000000000e+00 0.0000000000000000e+00  -3.8153194843822644e+02 -4.3248532289226392e+02 0.0000000000000000e+00 -4.3248532289226313e+02 -8.9710463491073654e+02 0.0000000000000000e+00 0.0000000000000000e+00 0.0000000000000000e+00 0.0000000000000000e+00  3.6788229321228732e+03 3.0438475749499094e+02 0.0000000000000000e+00 3.0438475749499167e+02 1.6226514889326971e+04 0.0000000000000000e+00 0.0000000000000000e+00 0.0000000000000000e+00 0.0000000000000000e+00  -6.7911130524406474e+02 -6.1430530208019411e+02 0.0000000000000000e+00 -6.1430530208019366e+02 -3.8510869392861309e+02 0.0000000000000000e+00 0.0000000000000000e+00 0.0000000000000000e+00 0.0000000000000000e+00  -1.3320116157548666e+03 1.4159892778630954e+03 0.0000000000000000e+00 1.4159892778630922e+03 -1.1712450795940460e+03 0.0000000000000000e+00 0.0000000000000000e+00 0.0000000000000000e+00 0.0000000000000000e+00  -1.1856033835875317e+03 8.3509309294640263e+02 0.0000000000000000e+00 8.3509309294640298e+02 -6.3118693378581827e+02 0.0000000000000000e+00 0.0000000000000000e+00 0.0000000000000000e+00 0.0000000000000000e+00  4.0450410288700732e+02 -1.7594809088900379e+02 0.0000000000000000e+00 -1.7594809088900234e+02 -2.3552628578310666e+02 0.0000000000000000e+00 0.0000000000000000e+00 0.0000000000000000e+00 0.0000000000000000e+00  -4.5933911861251199e+03 -6.1935495920487965e+03 0.0000000000000000e+00 -6.1935495920487938e+03 -6.1169469526535559e+03 0.0000000000000000e+00 0.0000000000000000e+00 0.0000000000000000e+00 0.0000000000000000e+00  8.2761217697133065e+02 -3.3540169251528361e+01 0.0000000000000000e+00 -3.3540169251528148e+01 8.2442582461365164e+03 0.0000000000000000e+00 0.0000000000000000e+00 0.0000000000000000e+00 0.0000000000000000e+00  -6.1310273314984906e+03 -5.8155838157380522e+03 0.0000000000000000e+00 -5.8155838157380522e+03 -3.7292010712620249e+03 0.0000000000000000e+00 0.0000000000000000e+00 0.0000000000000000e+00 0.0000000000000000e+00  -4.4599312988055235e+03 6.1698708395947951e+03 0.0000000000000000e+00 6.1698708395947961e+03 -7.3076898096141103e+03 0.0000000000000000e+00 0.0000000000000000e+00 0.0000000000000000e+00 0.0000000000000000e+00  -6.2666144141933482e+03 -5.7415889761601393e+03 0.0000000000000000e+00 -5.7415889761601393e+03 -8.0935665369843127e+03 0.0000000000000000e+00 0.0000000000000000e+00 0.0000000000000000e+00 0.0000000000000000e+00  -5.8382996041368842e+03 5.8320473889200957e+03 0.0000000000000000e+00 5.8320473889200948e+03 -2.2487103279906910e+03 0.0000000000000000e+00 0.0000000000000000e+00 0.0000000000000000e+00 0.0000000000000000e+00  1.3761519114962359e+03 4.9133974689745555e+03 0.0000000000000000e+00 4.9133974689745537e+03 -6.1786372996556756e+03 0.0000000000000000e+00 0.0000000000000000e+00 0.0000000000000000e+00 0.0000000000000000e+00  -6.6541877380070064e+03 5.7093214027984759e+03 0.0000000000000000e+00 5.7093214027984841e+03 -8.5279272731118544e+03 0.0000000000000000e+00 0.0000000000000000e+00 0.0000000000000000e+00 0.0000000000000000e+00  -1.6490164930544095e+04 1.0038457256738018e+04 0.0000000000000000e+00 1.0038457256738020e+04 -1.9706603764638214e+04 0.0000000000000000e+00 0.0000000000000000e+00 0.0000000000000000e+00 0.0000000000000000e+00  1.5647501518411222e+00 2.5314957604856883e+02 0.0000000000000000e+00 2.5314957604857221e+02 -1.2124566383927830e+04 0.0000000000000000e+00 0.0000000000000000e+00 0.0000000000000000e+00 0.0000000000000000e+00  -1.4727462621793488e+03 -1.7385302782899264e+03 0.0000000000000000e+00 -1.7385302782899278e+03 9.2527628717178795e+03 0.0000000000000000e+00 0.0000000000000000e+00 0.0000000000000000e+00 0.0000000000000000e+00  -3.5444079492449041e+03 -3.9883587279615685e+03 0.0000000000000000e+00 -3.9883587279615667e+03 -5.4711672417124073e+03 0.0000000000000000e+00 0.0000000000000000e+00 0.0000000000000000e+00 0.0000000000000000e+00  8.7065305631046340e+02 -8.6665003274024093e+02 0.0000000000000000e+00 -8.6665003274024093e+02 1.3227337299688237e+04 0.0000000000000000e+00 0.0000000000000000e+00 0.0000000000000000e+00 0.0000000000000000e+00  -1.2121144019761250e+04 -9.7010968586954805e+03 0.0000000000000000e+00 -9.7010968586954805e+03 -1.7370805559810808e+04 0.0000000000000000e+00 0.0000000000000000e+00 0.0000000000000000e+00 0.0000000000000000e+00  -1.0610951832410015e+03 4.2708948503985698e+02 0.0000000000000000e+00 4.2708948503985323e+02 6.7672781440430499e+03 0.0000000000000000e+00 0.0000000000000000e+00 0.0000000000000000e+00 0.0000000000000000e+00  -5.3577293448897681e+03 5.8426191376427796e+03 0.0000000000000000e+00 5.8426191376427778e+03 -5.3063694291169741e+03 0.0000000000000000e+00 0.0000000000000000e+00 0.0000000000000000e+00 0.0000000000000000e+00  -8.1888985586017279e+03 5.9569526049688830e+03 0.0000000000000000e+00 5.9569526049688848e+03 -8.5349548188882927e+03 0.0000000000000000e+00 0.0000000000000000e+00 0.0000000000000000e+00 0.0000000000000000e+00  -7.2865107692767697e+03 -5.9924050454680864e+03 0.0000000000000000e+00 -5.9924050454680855e+03 -6.4182206565835750e+03 0.0000000000000000e+00 0.0000000000000000e+00 0.0000000000000000e+00 0.0000000000000000e+00  -4.0837101619458681e+03 5.7965630275356762e+03 0.0000000000000000e+00 5.7965630275356743e+03 -3.0438193744197411e+03 0.0000000000000000e+00 0.0000000000000000e+00 0.0000000000000000e+00 0.0000000000000000e+00  -5.4920640633017283e+03 -6.0135439801001758e+03 0.0000000000000000e+00 -6.0135439801001748e+03 -7.2407399424324722e+03 0.0000000000000000e+00 0.0000000000000000e+00 0.0000000000000000e+00 0.0000000000000000e+00  -1.4992278597599857e+03 -1.3391796045045421e+03 0.0000000000000000e+00 -1.3391796045045417e+03 -1.1247726622580126e+03 0.0000000000000000e+00 0.0000000000000000e+00 0.0000000000000000e+00 0.0000000000000000e+00  -5.8968178948145005e+03 -6.1245555188473727e+03 0.0000000000000000e+00 -6.1245555188473754e+03 -3.9552299568221670e+03 0.0000000000000000e+00 0.0000000000000000e+00 0.0000000000000000e+00 0.0000000000000000e+00  1.2318401582740603e+03 9.1081766236826775e+02 0.0000000000000000e+00 9.1081766236826672e+02