<?xml version="1.0"?>
<VTKFile type="UnstructuredGrid"  version="0.1"  >
<UnstructuredGrid>
<Piece  NumberOfPoints="4855" NumberOfCells="8780">
<Points>
<DataArray  type="Float64"  NumberOfComponents="3"  format="ascii">0.9483880164242298 0.6836931311526558 0  0.9494264999197789 0.6847056440044139 0  0.9494005292759887 0.6847228078606633 0  0.9735520289385229 0.7444444444444445 0  0.9494005292759886 0.8041660810282256 0  0.94942649991978 0.8041832448844759 0  0.9483880175070514 0.8051957566534116 0  3.131175874138137e-16 0.09811450876034808 0  0.06838800723463068 0.1543033514199101 0  0.05161198249294494 0.1948042433465922 0  0.0505735000802211 0.1958167551155251 0  0.05059947072401128 0.1958339189717744 0  0.0505994707240113 0.3152771921393367 0  0.05057350008021998 0.315294355995587 0  0.05161198357913653 0.3163068688507105 0  0.06838800723463068 0.356807759691201 0  3.252606517456513e-16 0.4129966023507631 0  -1.795438797635995e-16 0.4839416311832997 0  0.07083274769489223 0.4605116403870998 0  0.07084991155114129 0.4605376110308903 0  0.07186242331670639 0.4594991286215342 0  0.1696402113702762 0.5 0  0.07186242332008326 0.5405008713818427 0  0.0708499115511413 0.5394623889691096 0  0.07083274769489219 0.5394883596129002 0  -1.925543058334256e-16 0.5160583688167003 0  1.484923295436147e-15 0.5870033976492365 0  0.06838800723463068 0.643192240308799 0  0.05161198249294541 0.6836931322354806 0  0.05057350008022109 0.6847056440044139 0  0.0505994707240113 0.6847228078606633 0  0.0505994707240113 0.8041660810282256 0  0.05057350008021999 0.804183244884476 0  0.05161198249294764 0.8051957566534106 0  0.06838800723463068 0.84569664858009 0  1.485790657174135e-15 0.9018854912396524 0  0 1 0  1 1 0  0.9999999999999987 0.9018854912396523 0  1.000000000000001 0.5870033976492375 0  1 0.5160583688167003 0  0.9291672523051078 0.5394883596129003 0  0.9291500884488585 0.5394623889691117 0  0.9281375755937461 0.5405008724680134 0  0.9281375755937372 0.4594991275319777 0  0.9291500884488586 0.4605376110308884 0  0.9291672523051077 0.4605116403870997 0  1 0.4839416311832997 0  0.9999999999999987 0.4129966023507635 0  0.948388017507054 0.31630686776452 0  0.94942649991978 0.3152943559955871 0  0.9494005292759886 0.3152771921393367 0  0.9735520289385229 0.2555555555555555 0  0.9494005292759888 0.1958339189717744 0  0.9494264999197789 0.1958167551155251 0  0.9483880164208631 0.1948042422604003 0  1.000000000000001 0.09811450876034861 0  1 0 0  0 0 0  0.1958339189717744 0.2950439151684559 0  0.1958167551155252 0.2950179445246672 0  0.3152771921393367 0.2950439151684557 0  0.1948042433481841 0.2960564269357975 0  0.3152943559955858 0.2950179445246651 0  0.1948042422604031 0.2150546830875326 0  0.3163068677645244 0.2960564269373949 0  0.1958167551155251 0.2160931665864439 0  0.4140846558147206 0.2555555555555555 0  0.1958339189717744 0.2160671959426553 0  0.3163068688489276 0.215054683089313 0  0.3152771921393367 0.2160671959426553 0  0.3152943559955858 0.2160931665864459 0  0.5405008724680257 0.3163068688507107 0  0.5572768961235196 0.356807759691201 0  0.5394623889691089 0.3152943559955871 0  0.459499128618165 0.3163068677645201 0  0.5394883596129003 0.3152771921393367 0  0.4605376110308911 0.3152943559955871 0  0.5394883596129001 0.1958339189717744 0  0.4605116403870998 0.3152771921393367 0  0.53946238896911 0.1958167551155251 0  0.4846631400496339 0.2555555555555555 0  0.5405008724680251 0.1948042422604009 0  0.4605116403870998 0.1958339189717744 0  0.5572768961235196 0.1543033514199101 0  0.46053761103089 0.1958167551155251 0  0.4594991286269881 0.1948042433554141 0  0.6847228078606633 0.2950439151684559 0  0.684705644004414 0.2950179445246672 0  0.8041660810282256 0.2950439151684557 0  0.683693131164073 0.2960564280087975 0  0.8041832448844747 0.2950179445246651 0  0.6836931322354718 0.2150546841737125 0  0.8051957566534156 0.2960564269373971 0  0.6847056440044141 0.2160931665864439 0  0.9029735447036096 0.2555555555555555 0  0.6847228078606632 0.2160671959426553 0  0.8051957577274008 0.2150546830997286 0  0.8041660810282256 0.2160671959426553 0  0.8041832448844747 0.2160931665864459 0  0.2960564280235811 0.560751313295155 0  0.3128324516790751 0.6012522041356455 0  0.2950179445246645 0.5597388004400315 0  0.2150546830875235 0.5607513132951615 0  0.2950439151684557 0.5597216365837812 0  0.2160931665864466 0.5597388004400314 0  0.2950439151684558 0.4402783634162188 0  0.2160671959426553 0.5597216365837812 0  0.2950179445246656 0.4402611995599696 0  0.2402186956051895 0.5 0  0.29605642693739 0.439248687791036 0  0.2160671959426553 0.4402783634162189 0  0.3128324516790751 0.3987477958643545 0  0.2160931665864455 0.4402611995599696 0  0.2150546830875296 0.4392486867048446 0  0.1958339189717743 0.7839328040573448 0  0.1958167551155252 0.7839068334135562 0  0.3152771921393367 0.7839328040573447 0  0.1948042422604028 0.7849453169124678 0  0.3152943559955858 0.783906833413554 0  0.1948042433465913 0.7039435730626098 0  0.3163068677645284 0.7849453158262878 0  0.1958167551155251 0.7049820554753328 0  0.4140846558147206 0.7444444444444445 0  0.1958339189717744 0.7049560848315441 0  0.3163068688486237 0.7039435719785058 0  0.3152771921393367 0.7049560848315441 0  0.3152943559955858 0.7049820554753349 0  0.4402783634162188 0.5394883596129003 0  0.4402611995599696 0.5394623889691117 0  0.5597216365837812 0.5394883596129002 0  0.4392486867048468 0.5405008724680237 0  0.5597388004400302 0.5394623889691096 0  0.4392486877998708 0.4594991286270004 0  0.5607513122089726 0.540500871381843 0  0.4402611995599696 0.4605376110308884 0  0.6585291002591651 0.5 0  0.4402783634162188 0.4605116403870998 0  0.5607513121946796 0.45949912863245 0  0.5597216365837812 0.4605116403870998 0  0.5597388004400302 0.4605376110308904 0  0.78494531690701 0.5607513132896949 0  0.8017213405679641 0.6012522041356455 0  0.7839068334135535 0.5597388004400315 0  0.7039435730626069 0.5607513122089671 0  0.7839328040573448 0.5597216365837812 0  0.7049820554753355 0.5597388004400314 0  0.7839328040573448 0.4402783634162188 0  0.7049560848315441 0.5597216365837812 0  0.7839068334135545 0.4402611995599696 0  0.7291075844940784 0.5 0  0.784945315826279 0.4392486877910359 0  0.7049560848315444 0.4402783634162188 0  0.8017213405679641 0.3987477958643545 0  0.7049820554753344 0.4402611995599696 0  0.7039435719764182 0.4392486867048443 0  0.5405008724625655 0.8051957577341393 0  0.5572768961235196 0.84569664858009 0  0.539462388969109 0.804183244884476 0  0.4594991286181648 0.8051957566534091 0  0.5394883596129003 0.8041660810282256 0  0.4605376110308911 0.804183244884476 0  0.5394883596129003 0.6847228078606633 0  0.4605116403870998 0.8041660810282256 0  0.53946238896911 0.6847056440044139 0  0.4846631400496339 0.7444444444444445 0  0.5405008713818347 0.6836931322354802 0  0.4605116403870998 0.6847228078606633 0  0.5572768961235196 0.643192240308799 0  0.46053761103089 0.6847056440044139 0  0.4594991275353449 0.6836931311526599 0  0.6847228078606633 0.7839328040573448 0  0.684705644004414 0.7839068334135562 0  0.8041660810282256 0.7839328040573447 0  0.6836931311493016 0.7849453169124578 0  0.8041832448844747 0.783906833413554 0  0.68369313223548 0.7039435730626096 0  0.805195756653417 0.7849453158262875 0  0.6847056440044141 0.7049820554753328 0  0.9029735447036096 0.7444444444444445 0  0.6847228078606633 0.7049560848315441 0  0.805195757738809 0.7039435719772094 0  0.8041660810282256 0.7049560848315441 0  0.8041832448844747 0.7049820554753349 0  0.9578164230213342 0.6948838683471341 0  0.9645772892192558 0.7062137009141434 0  0.9695236884064815 0.7184451175460498 0  0.972538971146615 0.7312896684428197 0  0.9725389711466151 0.7575992204460691 0  0.9695236884064815 0.7704437713428391 0  0.9645772892192558 0.7826751879747456 0  0.9578164230213342 0.7940050205417549 0  0.01437766570919127 0.09711967848259151 0  0.02854851642641832 0.09974531144948819 0  0.04161535472570586 0.1058251712658871 0  0.05275088139110013 0.1149743244732108 0  0.06125007411586489 0.1266135117968212 0  0.06657482449792251 0.1400058227212122 0  0.06643634307317195 0.1691277076584997 0  0.06071435336153361 0.1829418078690686 0  0.04134737123322858 0.3039103077764334 0  0.03416190609801732 0.2911362521989113 0  0.02925217947541549 0.2773267630846004 0  0.02676106927623143 0.2628837102534819 0  0.02676106927623143 0.2482274008576293 0  0.02925217947541547 0.2337843480265108 0  0.03416190609801727 0.2199748589121999 0  0.04134737123322851 0.2072008033346779 0  0.06071435387356935 0.328169304128914 0  0.06643634320569657 0.3419834039471998 0  0.06657482449792249 0.371105288389899 0  0.06125007411586481 0.3844975993142901 0  0.05275088139109994 0.3961367866379005 0  0.04161535472570563 0.4052859398452242 0  0.02854851642641818 0.411365799661623 0  0.01437766570919127 0.4139914326285196 0  0 0.4697526254167924 0  0 0.455563619650285 0  0 0.4413746138837777 0  0 0.4271856081172704 0  0.06095233986089402 0.4687284952262988 0  0.04995687430503332 0.4753797281664747 0  0.03809234373417287 0.4803165365228644 0  0.02562418374773841 0.4834284730529493 0  0.01283133446055119 0.4846459169037758 0  0.08372485599813187 0.4503967593658507 0  0.09753895276796982 0.4446747697099958 0  0.1123633055586467 0.4427231038764812 0  0.1271876590095525 0.4446747646950606 0  0.1410017577150834 0.45039674967774 0  0.1528641934757506 0.4594991149204779 0  0.161966560724962 0.471361549141524 0  0.1676885480442292 0.4851756468792086 0  0.1676885480443665 0.514824353120279 0  0.1619665607254926 0.528638450857557 0  0.1528641934768762 0.5405008850783964 0  0.1410017577169217 0.5496032503211987 0  0.1271876590121153 0.5553252353042526 0  0.1123633055618306 0.5572768961235188 0  0.09753895277155772 0.5553252302909656 0  0.08372485600180817 0.5496032406362719 0  0.0128313344605512 0.5153540830962242 0  0.0256241837477384 0.5165715269470507 0  0.03809234373417282 0.5196834634771356 0  0.04995687430503334 0.5246202718335253 0  0.06095233986089401
[...]
<PointData  Tensors="$\sigma$"> 
<DataArray  type="Float64"  Name="$\sigma$"  NumberOfComponents="9" format="ascii">-4.8524310441859407e+03 -5.4978058191897308e+03 0.0000000000000000e+00 -5.4978058191897244e+03 -5.8157416397548386e+03 0.0000000000000000e+00 0.0000000000000000e+00 0.0000000000000000e+00 0.0000000000000000e+00  -8.0060745989856850e+03 -5.9797780176952911e+03 0.0000000000000000e+00 -5.9797780176952929e+03 -6.0220883636142917e+03 0.0000000000000000e+00 0.0000000000000000e+00 0.0000000000000000e+00 0.0000000000000000e+00  -4.5122150180786366e+03 -5.7238298783816244e+03 0.0000000000000000e+00 -5.7238298783816244e+03 -6.4443888201806822e+03 0.0000000000000000e+00 0.0000000000000000e+00 0.0000000000000000e+00 0.0000000000000000e+00  1.0391071108975207e+02 2.1261304260102900e+01 0.0000000000000000e+00 2.1261304260102698e+01 -9.6188261179526162e+03 0.0000000000000000e+00 0.0000000000000000e+00 0.0000000000000000e+00 0.0000000000000000e+00  -3.4572665523305814e+03 4.2522556355374645e+03 0.0000000000000000e+00 4.2522556355374700e+03 -4.6826749057685429e+03 0.0000000000000000e+00 0.0000000000000000e+00 0.0000000000000000e+00 0.0000000000000000e+00  -8.7145262682146549e+03 7.1678781303476007e+03 0.0000000000000000e+00 7.1678781303476017e+03 -7.9331712214573754e+03 0.0000000000000000e+00 0.0000000000000000e+00 0.0000000000000000e+00 0.0000000000000000e+00  -3.1251624946855250e+03 3.5950755750603444e+03 0.0000000000000000e+00 3.5950755750603439e+03 -3.3192613987897430e+03 0.0000000000000000e+00 0.0000000000000000e+00 0.0000000000000000e+00 0.0000000000000000e+00  3.4064268378503762e+01 1.6939481605954884e-01 0.0000000000000000e+00 1.6939481605958434e-01 1.3903014306299504e+01 0.0000000000000000e+00 0.0000000000000000e+00 0.0000000000000000e+00 0.0000000000000000e+00  4.6959896371876866e+01 4.3373527636872581e+01 0.0000000000000000e+00 4.3373527636872389e+01 7.7076915973435134e+03 0.0000000000000000e+00 0.0000000000000000e+00 0.0000000000000000e+00 0.0000000000000000e+00  -3.0018881222745777e+03 3.3261243330402335e+03 0.0000000000000000e+00 3.3261243330402363e+03 -3.7583427005895637e+03 0.0000000000000000e+00 0.0000000000000000e+00 0.0000000000000000e+00 0.0000000000000000e+00  -8.5256010415201345e+03 7.2033725963610768e+03 0.0000000000000000e+00 7.2033725963610732e+03 -7.3118565929315737e+03 0.0000000000000000e+00 0.0000000000000000e+00 0.0000000000000000e+00 0.0000000000000000e+00  -3.3637782354082706e+03 4.1314132901954345e+03 0.0000000000000000e+00 4.1314132901954390e+03 -4.4851732282909597e+03 0.0000000000000000e+00 0.0000000000000000e+00 0.0000000000000000e+00 0.0000000000000000e+00  -3.8564594272547829e+03 -5.7393103644273888e+03 0.0000000000000000e+00 -5.7393103644273870e+03 -5.7571408144193556e+03 0.0000000000000000e+00 0.0000000000000000e+00 0.0000000000000000e+00 0.0000000000000000e+00  -9.2844557277510194e+03 -5.9495466964901416e+03 0.0000000000000000e+00 -5.9495466964901461e+03 -7.1216029837030319e+03 0.0000000000000000e+00 0.0000000000000000e+00 0.0000000000000000e+00 0.0000000000000000e+00  -4.0379411912025635e+03 -5.5291358011959946e+03 0.0000000000000000e+00 -5.5291358011959837e+03 -5.3085476312946312e+03 0.0000000000000000e+00 0.0000000000000000e+00 0.0000000000000000e+00 0.0000000000000000e+00  1.9432377978077071e+02 -2.6073356860966761e+01 0.0000000000000000e+00 -2.6073356860966879e+01 2.1597938407520269e+03 0.0000000000000000e+00 0.0000000000000000e+00 0.0000000000000000e+00 0.0000000000000000e+00  1.1134043878924946e+00 1.8683491196551900e-02 0.0000000000000000e+00 1.8683491196550703e-02 -6.3969738136056717e+00 0.0000000000000000e+00 0.0000000000000000e+00 0.0000000000000000e+00 0.0000000000000000e+00  -4.2528652301916886e-01 2.7656550884147102e-01 0.0000000000000000e+00 2.7656550884147119e-01 1.9535281126084891e+00 0.0000000000000000e+00 0.0000000000000000e+00 0.0000000000000000e+00 0.0000000000000000e+00  -2.9955485495143705e+01 2.9236479804542341e+01 0.0000000000000000e+00 2.9236479804542380e+01 -1.7543116664151771e+01 0.0000000000000000e+00 0.0000000000000000e+00 0.0000000000000000e+00 0.0000000000000000e+00  -6.5187150500046627e+01 1.2034398401004786e+01 0.0000000000000000e+00 1.2034398401004788e+01 -2.7494496332285600e+01 0.0000000000000000e+00 0.0000000000000000e+00 0.0000000000000000e+00 0.0000000000000000e+00  -1.1562751132581575e+01 6.7378695753983436e+01 0.0000000000000000e+00 6.7378695753983394e+01 -6.1086194142075037e+01 0.0000000000000000e+00 0.0000000000000000e+00 0.0000000000000000e+00 0.0000000000000000e+00  3.3925008230598442e+03 -1.8932218856564546e+02 0.0000000000000000e+00 -1.8932218856564532e+02 1.6061857179615057e+04 0.0000000000000000e+00 0.0000000000000000e+00 0.0000000000000000e+00 0.0000000000000000e+00  -3.5339514260276779e+01 -9.4663980636354495e+01 0.0000000000000000e+00 -9.4663980636354410e+01 -4.2904548999459330e+01 0.0000000000000000e+00 0.0000000000000000e+00 0.0000000000000000e+00 0.0000000000000000e+00  9.5015069048789428e+01 1.5015746911112413e+02 0.0000000000000000e+00 1.5015746911112416e+02 8.1969961747059116e+01 0.0000000000000000e+00 0.0000000000000000e+00 0.0000000000000000e+00 0.0000000000000000e+00  -2.4249799254684572e+01 -2.3200131465161189e+01 0.0000000000000000e+00 -2.3200131465161203e+01 -6.7994579579044929e+00 0.0000000000000000e+00 0.0000000000000000e+00 0.0000000000000000e+00 0.0000000000000000e+00  8.6647794466532224e-01 4.7355676990647362e-02 0.0000000000000000e+00 4.7355676990646925e-02 1.7771297978635450e+00 0.0000000000000000e+00 0.0000000000000000e+00 0.0000000000000000e+00 0.0000000000000000e+00  -3.1430267573134056e+00 -6.7962386164055237e+00 0.0000000000000000e+00 -6.7962386164055184e+00 1.3980502568512057e+00 0.0000000000000000e+00 0.0000000000000000e+00 0.0000000000000000e+00 0.0000000000000000e+00  1.8222013820257903e+01 -2.8974436354532553e+01 0.0000000000000000e+00 -2.8974436354532465e+01 2.2073018987301207e+03 0.0000000000000000e+00 0.0000000000000000e+00 0.0000000000000000e+00 0.0000000000000000e+00  -4.6415559649297638e+03 5.5675188259288616e+03 0.0000000000000000e+00 5.5675188259288634e+03 -5.8326316383222411e+03 0.0000000000000000e+00 0.0000000000000000e+00 0.0000000000000000e+00 0.0000000000000000e+00  -8.3946114680531900e+03 6.0666205119372498e+03 0.0000000000000000e+00 6.0666205119372435e+03 -5.8001027451495456e+03 0.0000000000000000e+00 0.0000000000000000e+00 0.0000000000000000e+00 0.0000000000000000e+00  -4.1973463208929106e+03 5.4230069638167779e+03 0.0000000000000000e+00 5.4230069638167779e+03 -6.5941917412387847e+03 0.0000000000000000e+00 0.0000000000000000e+00 0.0000000000000000e+00 0.0000000000000000e+00  -3.4432420879644023e+03 -4.1777076573174281e+03 0.0000000000000000e+00 -4.1777076573174309e+03 -4.5763055364528864e+03 0.0000000000000000e+00 0.0000000000000000e+00 0.0000000000000000e+00 0.0000000000000000e+00  -8.3824021117093052e+03 -7.1353561600565454e+03 0.0000000000000000e+00 -7.1353561600565454e+03 -7.7981357319000954e+03 0.0000000000000000e+00 0.0000000000000000e+00 0.0000000000000000e+00 0.0000000000000000e+00  -3.1691869531822872e+03 -3.4671891500954621e+03 0.0000000000000000e+00 -3.4671891500954580e+03 -3.2011364150478066e+03 0.0000000000000000e+00 0.0000000000000000e+00 0.0000000000000000e+00 0.0000000000000000e+00  1.6859912675884695e+02 -2.7464384264745252e+02 0.0000000000000000e+00 -2.7464384264745240e+02 7.3591695773264610e+03 0.0000000000000000e+00 0.0000000000000000e+00 0.0000000000000000e+00 0.0000000000000000e+00  -8.0710240079591841e+01 3.7321190968835268e+01 0.0000000000000000e+00 3.7321190968835218e+01 -3.7046778363898241e+01 0.0000000000000000e+00 0.0000000000000000e+00 0.0000000000000000e+00 0.0000000000000000e+00  4.1355188424851033e+00 7.9339229118803924e+00 0.0000000000000000e+00 7.9339229118803987e+00 5.5283815450115185e+02 0.0000000000000000e+00 0.0000000000000000e+00 0.0000000000000000e+00 0.0000000000000000e+00  3.6733833760578261e+00 -1.0667069110519693e+01 0.0000000000000000e+00 -1.0667069110519725e+01 5.6508702986600235e+02 0.0000000000000000e+00 0.0000000000000000e+00 0.0000000000000000e+00 0.0000000000000000e+00  3.5016314168556740e+01 -2.5111010357253871e+00 0.0000000000000000e+00 -2.5111010357253201e+00 -1.8128175353398678e+01 0.0000000000000000e+00 0.0000000000000000e+00 0.0000000000000000e+00 0.0000000000000000e+00  -4.2112525638497065e+00 -1.0133284197942718e+00 0.0000000000000000e+00 -1.0133284197942716e+00 -3.4157926273914776e+00 0.0000000000000000e+00 0.0000000000000000e+00 0.0000000000000000e+00 0.0000000000000000e+00  5.1042888388319374e-01 3.5223071330348238e-01 0.0000000000000000e+00 3.5223071330348193e-01 1.0085236889191309e+00 0.0000000000000000e+00 0.0000000000000000e+00 0.0000000000000000e+00 0.0000000000000000e+00  -2.5646693674645231e+01 2.9147223249443549e+01 0.0000000000000000e+00 2.9147223249443542e+01 -2.1643136086556311e+01 0.0000000000000000e+00 0.0000000000000000e+00 0.0000000000000000e+00 0.0000000000000000e+00  -3.9578920347385868e+01 -4.4965096477208540e+01 0.0000000000000000e+00 -4.4965096477208569e+01 7.1641496703046172e+00 0.0000000000000000e+00 0.0000000000000000e+00 0.0000000000000000e+00 0.0000000000000000e+00  1.2289224781515104e+01 7.0732860334484897e+01 0.0000000000000000e+00 7.0732860334484997e+01 -3.8519183415052602e+01 0.0000000000000000e+00 0.0000000000000000e+00 0.0000000000000000e+00 0.0000000000000000e+00  -2.3460515801852701e+01 -7.1035524038499872e+01 0.0000000000000000e+00 -7.1035524038499744e+01 -6.6383199978715609e+01 0.0000000000000000e+00 0.0000000000000000e+00 0.0000000000000000e+00 0.0000000000000000e+00  -9.4635717459367996e+01 -6.1812206660987570e+01 0.0000000000000000e+00 -6.1812206660987627e+01 -9.0354600043256625e+01 0.0000000000000000e+00 0.0000000000000000e+00 0.0000000000000000e+00 0.0000000000000000e+00  -4.1330777034998007e+01 -2.5082366863360477e+01 0.0000000000000000e+00 -2.5082366863360502e+01 9.6827613864774920e-01 0.0000000000000000e+00 0.0000000000000000e+00 0.0000000000000000e+00 0.0000000000000000e+00  -1.0286341173544498e+00 -6.0658313059712576e-01 0.0000000000000000e+00 -6.0658313059712532e-01 -2.3335106507383560e-01 0.0000000000000000e+00 0.0000000000000000e+00 0.0000000000000000e+00 0.0000000000000000e+00  -5.0191936881216481e+00 -1.5842344292362216e+00 0.0000000000000000e+00 -1.5842344292362207e+00 -3.4607484990621917e+00 0.0000000000000000e+00 0.0000000000000000e+00 0.0000000000000000e+00 0.0000000000000000e+00  -4.2281637806586914e+03 5.0487468457729065e+03 0.0000000000000000e+00 5.0487468457729001e+03 -5.4718737110086286e+03 0.0000000000000000e+00 0.0000000000000000e+00 0.0000000000000000e+00 0.0000000000000000e+00  -8.3665196375198757e+03 6.3408055550189401e+03 0.0000000000000000e+00 6.3408055550189401e+03 -6.2374775327291063e+03 0.0000000000000000e+00 0.0000000000000000e+00 0.0000000000000000e+00 0.0000000000000000e+00  -4.6733672526218761e+03 5.4248266250669985e+03 0.0000000000000000e+00 5.4248266250670004e+03 -6.4450754226617682e+03 0.0000000000000000e+00 0.0000000000000000e+00 0.0000000000000000e+00 0.0000000000000000e+00  1.4816273899249316e+02 5.9505827152638588e+01 0.0000000000000000e+00 5.9505827152639064e+01 -9.5646793838586782e+03 0.0000000000000000e+00 0.0000000000000000e+00 0.0000000000000000e+00 0.0000000000000000e+00  -3.2202632366407656e+03 -4.1698050915632220e+03 0.0000000000000000e+00 -4.1698050915632202e+03 -4.4954906675332732e+03 0.0000000000000000e+00 0.0000000000000000e+00 0.0000000000000000e+00 0.0000000000000000e+00  -9.1526734837507192e+03 -7.3613006740170076e+03 0.0000000000000000e+00 -7.3613006740170058e+03 -7.6734699301110222e+03 0.0000000000000000e+00 0.0000000000000000e+00 0.0000000000000000e+00 0.0000000000000000e+00  -3.0516706992073623e+03 -3.4182325809767331e+03 0.0000000000000000e+00 -3.4182325809767308e+03 -3.9633706319447974e+03 0.0000000000000000e+00 0.0000000000000000e+00 0.0000000000000000e+00 0.0000000000000000e+00  -3.9464476322268382e+01 1.1093034829673398e+01 0.0000000000000000e+00 1.1093034829673387e+01 -1.1635428044275107e+01 0.0000000000000000e+00 0.0000000000000000e+00 0.0000000000000000e+00 0.0000000000000000e+00  3.2896448361139283e+00 5.7743276467293256e+00 0.0000000000000000e+00 5.7743276467293443e+00 5.5471059018037568e+02 0.0000000000000000e+00 0.0000000000000000e+00 0.0000000000000000e+00 0.0000000000000000e+00  1.4017349860662736e+02 1.1293884110692812e+02 0.0000000000000000e+00 1.1293884110692807e+02 6.6697469297733642e+02 0.0000000000000000e+00 0.0000000000000000e+00 0.0000000000000000e+00 0.0000000000000000e+00  -5.8580202688911995e+03 5.8809497123148531e+03 0.0000000000000000e+00 5.8809497123148540e+03 -5.5901478882749698e+03 0.0000000000000000e+00 0.0000000000000000e+00 0.0000000000000000e+00 0.0000000000000000e+00  -7.8053848092662838e+03 5.8989724869987240e+03 0.0000000000000000e+00 5.8989724869987240e+03 -9.2232652695577344e+03 0.0000000000000000e+00 0.0000000000000000e+00 0.0000000000000000e+00 0.0000000000000000e+00  -6.3615520855259101e+03 -6.1360113832823081e+03 0.0000000000000000e+00 -6.1360113832823108e+03 -4.9972466685087829e+03 0.0000000000000000e+00 0.0000000000000000e+00 0.0000000000000000e+00 0.0000000000000000e+00  -4.5234490768377746e+03 6.0261711689710046e+03 0.0000000000000000e+00 6.0261711689710046e+03 -2.1382032497559103e+03 0.0000000000000000e+00 0.0000000000000000e+00 0.0000000000000000e+00 0.0000000000000000e+00  -4.8173881347080824e+03 -5.6179334129696390e+03 0.0000000000000000e+00 -5.6179334129696290e+03 -6.4409826708175378e+03 0.0000000000000000e+00 0.0000000000000000e+00 0.0000000000000000e+00 0.0000000000000000e+00  -1.1723397043161046e+03 -1.1140889084127396e+03 0.0000000000000000e+00 -1.1140889084127400e+03 -8.4570938818549939e+02 0.0000000000000000e+00 0.0000000000000000e+00 0.0000000000000000e+00 0.0000000000000000e+00  -6.3305629152826741e+03 -5.7746636752660606e+03 0.0000000000000000e+00 -5.7746636752660652e+03 -5.6681615979911758e+03 0.0000000000000000e+00 0.0000000000000000e+00 0.0000000000000000e+00 0.0000000000000000e+00  -3.6500047576650496e+02 -4.0300501319819404e+02 0.0000000000000000e+00 -4.0300501319819381e+02 -8.0073586414820943e+02 0.0000000000000000e+00 0.0000000000000000e+00 0.0000000000000000e+00 0.0000000000000000e+00  3.5900918747804244e+03 3.2518685114968599e+02 0.0000000000000000e+00 3.2518685114968633e+02 1.5839957916390367e+04 0.0000000000000000e+00 0.0000000000000000e+00 0.0000000000000000e+00 0.0000000000000000e+00  -5.9757506638573591e+02 -5.8088351985803752e+02 0.0000000000000000e+00 -5.8088351985803718e+02 -4.0774571662047384e+02 0.0000000000000000e+00 0.0000000000000000e+00 0.0000000000000000e+00 0.0000000000000000e+00  -1.2626786672338621e+03 1.3141225645192458e+03 0.0000000000000000e+00 1.3141225645192440e+03 -1.0521743543826049e+03 0.0000000000000000e+00 0.0000000000000000e+00 0.0000000000000000e+00 0.0000000000000000e+00  -1.1054567658016092e+03 7.9441432760274529e+02 0.0000000000000000e+00 7.9441432760274552e+02 -6.2367428545961627e+02 0.0000000000000000e+00 0.0000000000000000e+00 0.0000000000000000e+00 0.0000000000000000e+00  4.4229243573344138e+02 -2.0904540358297982e+02 0.0000000000000000e+00 -2.0904540358297976e+02 -1.9440886819319167e+02 0.0000000000000000e+00 0.0000000000000000e+00 0.0000000000000000e+00 0.0000000000000000e+00  -5.2278152715840542e+03 -6.5033336444755105e+03 0.0000000000000000e+00 -6.5033336444755132e+03 -6.0902818998591556e+03 0.0000000000000000e+00 0.0000000000000000e+00 0.0000000000000000e+00 0.0000000000000000e+00  7.0201577230161524e+02 -1.1382859790098600e+02 0.0000000000000000e+00 -1.1382859790098469e+02 6.6999687769912680e+03 0.0000000000000000e+00 0.0000000000000000e+00 0.0000000000000000e+00 0.0000000000000000e+00  -5.5090813375687503e+03 -5.4186383136562836e+03 0.0000000000000000e+00 -5.4186383136562881e+03 -3.7153435815936432e+03 0.0000000000000000e+00 0.0000000000000000e+00 0.0000000000000000e+00 0.0000000000000000e+00  -4.8479048313571147e+03 6.4917839755553396e+03 0.0000000000000000e+00 6.4917839755553387e+03 -6.8762282988532734e+03 0.0000000000000000e+00 0.0000000000000000e+00 0.0000000000000000e+00 0.0000000000000000e+00  -6.4780856496028537e+03 -6.0249071338503400e+03 0.0000000000000000e+00 -6.0249071338503418e+03 -8.2814084554966012e+03 0.0000000000000000e+00 0.0000000000000000e+00 0.0000000000000000e+00 0.0000000000000000e+00  -5.4213334626860769e+03 5.4628200598949079e+03 0.0000000000000000e+00 5.4628200598949179e+03 -2.9623767646342340e+03 0.0000000000000000e+00 0.0000000000000000e+00 0.0000000000000000e+00 0.0000000000000000e+00  1.3776699527422082e+02 1.6264163480364575e+03 0.0000000000000000e+00 1.6264163480364571e+03 -1.2595599205995788e+03 0.0000000000000000e+00 0.0000000000000000e+00 0.0000000000000000e+00 0.0000000000000000e+00  -6.8199465526905597e+03 5.9598299369843862e+03 0.0000000000000000e+00 5.9598299369843871e+03 -8.3196618694297067e+03 0.0000000000000000e+00 0.0000000000000000e+00 0.0000000000000000e+00 0.0000000000000000e+00  -1.1030879461220549e+04 1.0513577892725421e+04 0.0000000000000000e+00 1.0513577892725425e+04 -1.6126404462221191e+04 0.0000000000000000e+00 0.0000000000000000e+00 0.0000000000000000e+00 0.0000000000000000e+00  3.4412342660847649e+01 7.1687293475464656e+01 0.0000000000000000e+00 7.1687293475466319e+01 -9.5857099162691629e+03 0.0000000000000000e+00 0.0000000000000000e+00 0.0000000000000000e+00 0.0000000000000000e+00  3.5483183191321433e+02 -3.2454503048876568e+03 0.0000000000000000e+00 -3.2454503048876604e+03 7.6204768744313669e+03 0.0000000000000000e+00 0.0000000000000000e+00 0.0000000000000000e+00 0.0000000000000000e+00  -1.7567145387519420e+03 -9.8840514344470898e+02 0.0000000000000000e+00 -9.8840514344471001e+02 -2.6008979967891185e+02 0.0000000000000000e+00 0.0000000000000000e+00 0.0000000000000000e+00 0.0000000000000000e+00  7.4177853511642536e+02 -4.8015591002608124e+02 0.0000000000000000e+00 -4.8015591002608164e+02 1.2872508270103530e+04 0.0000000000000000e+00 0.0000000000000000e+00 0.0000000000000000e+00 0.0000000000000000e+00  -8.1899812798353687e+03 -9.4584654402255201e+03 0.0000000000000000e+00 -9.4584654402255201e+03 -1.3339537003882286e+04 0.0000000000000000e+00 0.0000000000000000e+00 0.0000000000000000e+00 0.0000000000000000e+00  3.4762509279190976e+02 1.7824125179039206e+03 0.0000000000000000e+00 1.7824125179039204e+03 4.4528271088143420e+03 0.0000000000000000e+00 0.0000000000000000e+00 0.0000000000000000e+00 0.0000000000000000e+00  -6.4199506475549433e+03 6.2025311748437243e+03 0.0000000000000000e+00 6.2025311748437225e+03 -5.1390833725490411e+03 0.0000000000000000e+00 0.0000000000000000e+00 0.0000000000000000e+00 0.0000000000000000e+00  -4.7957626185934523e+03 5.5888334658728063e+03 0.0000000000000000e+00 5.5888334658728027e+03 -6.4109712963145321e+03 0.0000000000000000e+00 0.0000000000000000e+00 0.0000000000000000e+00 0.0000000000000000e+00  -6.5352267957441672e+03 -5.8471046593092251e+03 0.0000000000000000e+00 -5.8471046593092269e+03 -6.1623849913726463e+03 0.0000000000000000e+00 0.0000000000000000e+00 0.0000000000000000e+00 0.0000000000000000e+00  -6.3695237485727448e+03 5.8168603344567337e+03 0.0000000000000000e+00 5.8168603344567400e+03 -5.5756129620412157e+03 0.0000000000000000e+00 0.0000000000000000e+00 0.0000000000000000e+00 0.0000000000000000e+00  -7.2091979421395481e+03 -5.8402705986760920e+03 0.0000000000000000e+00 -5.8402705986760902e+03 -8.2826549677586863e+03 0.0000000000000000e+00 0.0000000000000000e+00 0.0000000000000000e+00 0.0000000000000000e+00  -1.5381255757779661e+03 -1.3006809151605287e+03 0.0000000000000000e+00 -1.3006809151605289e+03 -1.0684487001226355e+03 0.0000000000000000e+00 0.0000000000000000e+00 0.0000000000000000e+00 0.0000000000000000e+00  -4.5562261343357595e+03 -6.1143618863224592e+03 0.0000000000000000e+00 -6.1143618863224629e+03 -2.8221065679222361e+03 0.0000000000000000e+00 0.0000000000000000e+00 0.0000000000000000e+00 0.0000000000000000e+00  9.1107419295899751e+02 5.4668002361962749e+02 0.0000000000000000e+00 5.4668002361962715e+02 1.4640