<?xml version="1.0"?>
<VTKFile type="UnstructuredGrid"  version="0.1"  >
<UnstructuredGrid>
<Piece  NumberOfPoints="4855" NumberOfCells="8780">
<Points>
<DataArray  type="Float64"  NumberOfComponents="3"  format="ascii">0.9483880164242298 0.6836931311526558 0  0.9494264999197789 0.6847056440044139 0  0.9494005292759887 0.6847228078606633 0  0.9735520289385229 0.7444444444444445 0  0.9494005292759886 0.8041660810282256 0  0.94942649991978 0.8041832448844759 0  0.9483880175070514 0.8051957566534116 0  3.131175874138137e-16 0.09811450876034808 0  0.06838800723463068 0.1543033514199101 0  0.05161198249294494 0.1948042433465922 0  0.0505735000802211 0.1958167551155251 0  0.05059947072401128 0.1958339189717744 0  0.0505994707240113 0.3152771921393367 0  0.05057350008021998 0.315294355995587 0  0.05161198357913653 0.3163068688507105 0  0.06838800723463068 0.356807759691201 0  3.252606517456513e-16 0.4129966023507631 0  -1.795438797635995e-16 0.4839416311832997 0  0.07083274769489223 0.4605116403870998 0  0.07084991155114129 0.4605376110308903 0  0.07186242331670639 0.4594991286215342 0  0.1696402113702762 0.5 0  0.07186242332008326 0.5405008713818427 0  0.0708499115511413 0.5394623889691096 0  0.07083274769489219 0.5394883596129002 0  -1.925543058334256e-16 0.5160583688167003 0  1.484923295436147e-15 0.5870033976492365 0  0.06838800723463068 0.643192240308799 0  0.05161198249294541 0.6836931322354806 0  0.05057350008022109 0.6847056440044139 0  0.0505994707240113 0.6847228078606633 0  0.0505994707240113 0.8041660810282256 0  0.05057350008021999 0.804183244884476 0  0.05161198249294764 0.8051957566534106 0  0.06838800723463068 0.84569664858009 0  1.485790657174135e-15 0.9018854912396524 0  0 1 0  1 1 0  0.9999999999999987 0.9018854912396523 0  1.000000000000001 0.5870033976492375 0  1 0.5160583688167003 0  0.9291672523051078 0.5394883596129003 0  0.9291500884488585 0.5394623889691117 0  0.9281375755937461 0.5405008724680134 0  0.9281375755937372 0.4594991275319777 0  0.9291500884488586 0.4605376110308884 0  0.9291672523051077 0.4605116403870997 0  1 0.4839416311832997 0  0.9999999999999987 0.4129966023507635 0  0.948388017507054 0.31630686776452 0  0.94942649991978 0.3152943559955871 0  0.9494005292759886 0.3152771921393367 0  0.9735520289385229 0.2555555555555555 0  0.9494005292759888 0.1958339189717744 0  0.9494264999197789 0.1958167551155251 0  0.9483880164208631 0.1948042422604003 0  1.000000000000001 0.09811450876034861 0  1 0 0  0 0 0  0.1958339189717744 0.2950439151684559 0  0.1958167551155252 0.2950179445246672 0  0.3152771921393367 0.2950439151684557 0  0.1948042433481841 0.2960564269357975 0  0.3152943559955858 0.2950179445246651 0  0.1948042422604031 0.2150546830875326 0  0.3163068677645244 0.2960564269373949 0  0.1958167551155251 0.2160931665864439 0  0.4140846558147206 0.2555555555555555 0  0.1958339189717744 0.2160671959426553 0  0.3163068688489276 0.215054683089313 0  0.3152771921393367 0.2160671959426553 0  0.3152943559955858 0.2160931665864459 0  0.5405008724680257 0.3163068688507107 0  0.5572768961235196 0.356807759691201 0  0.5394623889691089 0.3152943559955871 0  0.459499128618165 0.3163068677645201 0  0.5394883596129003 0.3152771921393367 0  0.4605376110308911 0.3152943559955871 0  0.5394883596129001 0.1958339189717744 0  0.4605116403870998 0.3152771921393367 0  0.53946238896911 0.1958167551155251 0  0.4846631400496339 0.2555555555555555 0  0.5405008724680251 0.1948042422604009 0  0.4605116403870998 0.1958339189717744 0  0.5572768961235196 0.1543033514199101 0  0.46053761103089 0.1958167551155251 0  0.4594991286269881 0.1948042433554141 0  0.6847228078606633 0.2950439151684559 0  0.684705644004414 0.2950179445246672 0  0.8041660810282256 0.2950439151684557 0  0.683693131164073 0.2960564280087975 0  0.8041832448844747 0.2950179445246651 0  0.6836931322354718 0.2150546841737125 0  0.8051957566534156 0.2960564269373971 0  0.6847056440044141 0.2160931665864439 0  0.9029735447036096 0.2555555555555555 0  0.6847228078606632 0.2160671959426553 0  0.8051957577274008 0.2150546830997286 0  0.8041660810282256 0.2160671959426553 0  0.8041832448844747 0.2160931665864459 0  0.2960564280235811 0.560751313295155 0  0.3128324516790751 0.6012522041356455 0  0.2950179445246645 0.5597388004400315 0  0.2150546830875235 0.5607513132951615 0  0.2950439151684557 0.5597216365837812 0  0.2160931665864466 0.5597388004400314 0  0.2950439151684558 0.4402783634162188 0  0.2160671959426553 0.5597216365837812 0  0.2950179445246656 0.4402611995599696 0  0.2402186956051895 0.5 0  0.29605642693739 0.439248687791036 0  0.2160671959426553 0.4402783634162189 0  0.3128324516790751 0.3987477958643545 0  0.2160931665864455 0.4402611995599696 0  0.2150546830875296 0.4392486867048446 0  0.1958339189717743 0.7839328040573448 0  0.1958167551155252 0.7839068334135562 0  0.3152771921393367 0.7839328040573447 0  0.1948042422604028 0.7849453169124678 0  0.3152943559955858 0.783906833413554 0  0.1948042433465913 0.7039435730626098 0  0.3163068677645284 0.7849453158262878 0  0.1958167551155251 0.7049820554753328 0  0.4140846558147206 0.7444444444444445 0  0.1958339189717744 0.7049560848315441 0  0.3163068688486237 0.7039435719785058 0  0.3152771921393367 0.7049560848315441 0  0.3152943559955858 0.7049820554753349 0  0.4402783634162188 0.5394883596129003 0  0.4402611995599696 0.5394623889691117 0  0.5597216365837812 0.5394883596129002 0  0.4392486867048468 0.5405008724680237 0  0.5597388004400302 0.5394623889691096 0  0.4392486877998708 0.4594991286270004 0  0.5607513122089726 0.540500871381843 0  0.4402611995599696 0.4605376110308884 0  0.6585291002591651 0.5 0  0.4402783634162188 0.4605116403870998 0  0.5607513121946796 0.45949912863245 0  0.5597216365837812 0.4605116403870998 0  0.5597388004400302 0.4605376110308904 0  0.78494531690701 0.5607513132896949 0  0.8017213405679641 0.6012522041356455 0  0.7839068334135535 0.5597388004400315 0  0.7039435730626069 0.5607513122089671 0  0.7839328040573448 0.5597216365837812 0  0.7049820554753355 0.5597388004400314 0  0.7839328040573448 0.4402783634162188 0  0.7049560848315441 0.5597216365837812 0  0.7839068334135545 0.4402611995599696 0  0.7291075844940784 0.5 0  0.784945315826279 0.4392486877910359 0  0.7049560848315444 0.4402783634162188 0  0.8017213405679641 0.3987477958643545 0  0.7049820554753344 0.4402611995599696 0  0.7039435719764182 0.4392486867048443 0  0.5405008724625655 0.8051957577341393 0  0.5572768961235196 0.84569664858009 0  0.539462388969109 0.804183244884476 0  0.4594991286181648 0.8051957566534091 0  0.5394883596129003 0.8041660810282256 0  0.4605376110308911 0.804183244884476 0  0.5394883596129003 0.6847228078606633 0  0.4605116403870998 0.8041660810282256 0  0.53946238896911 0.6847056440044139 0  0.4846631400496339 0.7444444444444445 0  0.5405008713818347 0.6836931322354802 0  0.4605116403870998 0.6847228078606633 0  0.5572768961235196 0.643192240308799 0  0.46053761103089 0.6847056440044139 0  0.4594991275353449 0.6836931311526599 0  0.6847228078606633 0.7839328040573448 0  0.684705644004414 0.7839068334135562 0  0.8041660810282256 0.7839328040573447 0  0.6836931311493016 0.7849453169124578 0  0.8041832448844747 0.783906833413554 0  0.68369313223548 0.7039435730626096 0  0.805195756653417 0.7849453158262875 0  0.6847056440044141 0.7049820554753328 0  0.9029735447036096 0.7444444444444445 0  0.6847228078606633 0.7049560848315441 0  0.805195757738809 0.7039435719772094 0  0.8041660810282256 0.7049560848315441 0  0.8041832448844747 0.7049820554753349 0  0.9578164230213342 0.6948838683471341 0  0.9645772892192558 0.7062137009141434 0  0.9695236884064815 0.7184451175460498 0  0.972538971146615 0.7312896684428197 0  0.9725389711466151 0.7575992204460691 0  0.9695236884064815 0.7704437713428391 0  0.9645772892192558 0.7826751879747456 0  0.9578164230213342 0.7940050205417549 0  0.01437766570919127 0.09711967848259151 0  0.02854851642641832 0.09974531144948819 0  0.04161535472570586 0.1058251712658871 0  0.05275088139110013 0.1149743244732108 0  0.06125007411586489 0.1266135117968212 0  0.06657482449792251 0.1400058227212122 0  0.06643634307317195 0.1691277076584997 0  0.06071435336153361 0.1829418078690686 0  0.04134737123322858 0.3039103077764334 0  0.03416190609801732 0.2911362521989113 0  0.02925217947541549 0.2773267630846004 0  0.02676106927623143 0.2628837102534819 0  0.02676106927623143 0.2482274008576293 0  0.02925217947541547 0.2337843480265108 0  0.03416190609801727 0.2199748589121999 0  0.04134737123322851 0.2072008033346779 0  0.06071435387356935 0.328169304128914 0  0.06643634320569657 0.3419834039471998 0  0.06657482449792249 0.371105288389899 0  0.06125007411586481 0.3844975993142901 0  0.05275088139109994 0.3961367866379005 0  0.04161535472570563 0.4052859398452242 0  0.02854851642641818 0.411365799661623 0  0.01437766570919127 0.4139914326285196 0  0 0.4697526254167924 0  0 0.455563619650285 0  0 0.4413746138837777 0  0 0.4271856081172704 0  0.06095233986089402 0.4687284952262988 0  0.04995687430503332 0.4753797281664747 0  0.03809234373417287 0.4803165365228644 0  0.02562418374773841 0.4834284730529493 0  0.01283133446055119 0.4846459169037758 0  0.08372485599813187 0.4503967593658507 0  0.09753895276796982 0.4446747697099958 0  0.1123633055586467 0.4427231038764812 0  0.1271876590095525 0.4446747646950606 0  0.1410017577150834 0.45039674967774 0  0.1528641934757506 0.4594991149204779 0  0.161966560724962 0.471361549141524 0  0.1676885480442292 0.4851756468792086 0  0.1676885480443665 0.514824353120279 0  0.1619665607254926 0.528638450857557 0  0.1528641934768762 0.5405008850783964 0  0.1410017577169217 0.5496032503211987 0  0.1271876590121153 0.5553252353042526 0  0.1123633055618306 0.5572768961235188 0  0.09753895277155772 0.5553252302909656 0  0.08372485600180817 0.5496032406362719 0  0.0128313344605512 0.5153540830962242 0  0.0256241837477384 0.5165715269470507 0  0.03809234373417282 0.5196834634771356 0  0.04995687430503334 0.5246202718335253 0  0.06095233986089401
[...]
<PointData  Tensors="$\sigma$"> 
<DataArray  type="Float64"  Name="$\sigma$"  NumberOfComponents="9" format="ascii">-3.9632488087866354e+03 -4.4392676951095973e+03 0.0000000000000000e+00 -4.4392676951095964e+03 -4.6005281438184638e+03 0.0000000000000000e+00 0.0000000000000000e+00 0.0000000000000000e+00 0.0000000000000000e+00  -8.7571917515673158e+03 -6.8680719390206750e+03 0.0000000000000000e+00 -6.8680719390206768e+03 -7.2139345822163477e+03 0.0000000000000000e+00 0.0000000000000000e+00 0.0000000000000000e+00 0.0000000000000000e+00  -3.5741057210855638e+03 -4.6461322338038972e+03 0.0000000000000000e+00 -4.6461322338038954e+03 -5.2396017063657118e+03 0.0000000000000000e+00 0.0000000000000000e+00 0.0000000000000000e+00 0.0000000000000000e+00  1.2275696447049914e+02 5.0047734649497599e+01 0.0000000000000000e+00 5.0047734649497464e+01 -7.9048066858894208e+03 0.0000000000000000e+00 0.0000000000000000e+00 0.0000000000000000e+00 0.0000000000000000e+00  -2.9562266831084908e+03 3.6639361678306259e+03 0.0000000000000000e+00 3.6639361678306286e+03 -4.0604733038663016e+03 0.0000000000000000e+00 0.0000000000000000e+00 0.0000000000000000e+00 0.0000000000000000e+00  -7.8232732263201769e+03 6.9393025519864905e+03 0.0000000000000000e+00 6.9393025519864941e+03 -7.2697465008647305e+03 0.0000000000000000e+00 0.0000000000000000e+00 0.0000000000000000e+00 0.0000000000000000e+00  -2.7747759634338026e+03 3.0718666702590945e+03 0.0000000000000000e+00 3.0718666702590954e+03 -2.7531928393606181e+03 0.0000000000000000e+00 0.0000000000000000e+00 0.0000000000000000e+00 0.0000000000000000e+00  2.0623773190424078e+01 -1.1353635776048150e+00 0.0000000000000000e+00 -1.1353635776047795e+00 8.0427995915122885e+00 0.0000000000000000e+00 0.0000000000000000e+00 0.0000000000000000e+00 0.0000000000000000e+00  7.1604911302240097e+01 3.0393705995749666e+01 0.0000000000000000e+00 3.0393705995749741e+01 7.2322921319003799e+03 0.0000000000000000e+00 0.0000000000000000e+00 0.0000000000000000e+00 0.0000000000000000e+00  -2.6654076202653596e+03 2.8793409537351095e+03 0.0000000000000000e+00 2.8793409537351122e+03 -3.0779995511057150e+03 0.0000000000000000e+00 0.0000000000000000e+00 0.0000000000000000e+00 0.0000000000000000e+00  -7.6298295435455648e+03 6.8533173440897444e+03 0.0000000000000000e+00 6.8533173440897399e+03 -6.7325182879078920e+03 0.0000000000000000e+00 0.0000000000000000e+00 0.0000000000000000e+00 0.0000000000000000e+00  -2.8673365312268029e+03 3.5811986448523435e+03 0.0000000000000000e+00 3.5811986448523489e+03 -3.9058841733630197e+03 0.0000000000000000e+00 0.0000000000000000e+00 0.0000000000000000e+00 0.0000000000000000e+00  -3.2155738921780517e+03 -4.5744361539323572e+03 0.0000000000000000e+00 -4.5744361539323590e+03 -4.7198464992820200e+03 0.0000000000000000e+00 0.0000000000000000e+00 0.0000000000000000e+00 0.0000000000000000e+00  -9.1997274461636152e+03 -6.8440306728441810e+03 0.0000000000000000e+00 -6.8440306728441919e+03 -7.6950222791666001e+03 0.0000000000000000e+00 0.0000000000000000e+00 0.0000000000000000e+00 0.0000000000000000e+00  -3.5035174354105884e+03 -4.4250392683693099e+03 0.0000000000000000e+00 -4.4250392683692971e+03 -4.2727599798003821e+03 0.0000000000000000e+00 0.0000000000000000e+00 0.0000000000000000e+00 0.0000000000000000e+00  1.5494946415334496e+02 -1.2178290416240454e+01 0.0000000000000000e+00 -1.2178290416240548e+01 2.3415928496194288e+03 0.0000000000000000e+00 0.0000000000000000e+00 0.0000000000000000e+00 0.0000000000000000e+00  8.7287335594315796e-01 -2.9579276975108404e-01 0.0000000000000000e+00 -2.9579276975108265e-01 -5.4267459565418354e+00 0.0000000000000000e+00 0.0000000000000000e+00 0.0000000000000000e+00 0.0000000000000000e+00  -2.4245077924868161e-01 2.3385311302536735e-01 0.0000000000000000e+00 2.3385311302536693e-01 1.3678709055494500e+00 0.0000000000000000e+00 0.0000000000000000e+00 0.0000000000000000e+00 0.0000000000000000e+00  -2.8117548161221197e+01 2.8212596657601821e+01 0.0000000000000000e+00 2.8212596657601846e+01 -1.6801184547941606e+01 0.0000000000000000e+00 0.0000000000000000e+00 0.0000000000000000e+00 0.0000000000000000e+00  -4.3171863779181280e+01 5.1186912354353895e+00 0.0000000000000000e+00 5.1186912354353931e+00 -1.8665354297958118e+01 0.0000000000000000e+00 0.0000000000000000e+00 0.0000000000000000e+00 0.0000000000000000e+00  -2.8126865200029371e+01 6.7891446196884388e+01 0.0000000000000000e+00 6.7891446196884374e+01 -6.3773128792104139e+01 0.0000000000000000e+00 0.0000000000000000e+00 0.0000000000000000e+00 0.0000000000000000e+00  2.1147376217925134e+03 -1.5423659977650428e+02 0.0000000000000000e+00 -1.5423659977650414e+02 1.4598984954172474e+04 0.0000000000000000e+00 0.0000000000000000e+00 0.0000000000000000e+00 0.0000000000000000e+00  -4.5588497355568620e+01 -9.6017722024714075e+01 0.0000000000000000e+00 -9.6017722024713947e+01 -4.6677253658262607e+01 0.0000000000000000e+00 0.0000000000000000e+00 0.0000000000000000e+00 0.0000000000000000e+00  7.2293475715393512e+01 1.1729242007836864e+02 0.0000000000000000e+00 1.1729242007836865e+02 5.2899023812188005e+01 0.0000000000000000e+00 0.0000000000000000e+00 0.0000000000000000e+00 0.0000000000000000e+00  -2.5527929112787966e+01 -2.2774954554876075e+01 0.0000000000000000e+00 -2.2774954554876111e+01 -6.3675723828326731e+00 0.0000000000000000e+00 0.0000000000000000e+00 0.0000000000000000e+00 0.0000000000000000e+00  4.2125780489079928e-01 -1.5292433543074549e-01 0.0000000000000000e+00 -1.5292433543074527e-01 1.1141332767380896e+00 0.0000000000000000e+00 0.0000000000000000e+00 0.0000000000000000e+00 0.0000000000000000e+00  -1.2911487750968511e+00 -5.5254907802550299e+00 0.0000000000000000e+00 -5.5254907802550264e+00 1.0781627967334884e+00 0.0000000000000000e+00 0.0000000000000000e+00 0.0000000000000000e+00 0.0000000000000000e+00  5.0914424010871500e+01 -5.6926478210608572e+01 0.0000000000000000e+00 -5.6926478210608586e+01 2.4485106401470662e+03 0.0000000000000000e+00 0.0000000000000000e+00 0.0000000000000000e+00 0.0000000000000000e+00  -3.8311506369824488e+03 4.5188271190257565e+03 0.0000000000000000e+00 4.5188271190257565e+03 -4.5597502152489396e+03 0.0000000000000000e+00 0.0000000000000000e+00 0.0000000000000000e+00 0.0000000000000000e+00  -8.6160921326432526e+03 6.8173520513354933e+03 0.0000000000000000e+00 6.8173520513354879e+03 -6.6181248338896376e+03 0.0000000000000000e+00 0.0000000000000000e+00 0.0000000000000000e+00 0.0000000000000000e+00  -3.3702289385334479e+03 4.3828346836341052e+03 0.0000000000000000e+00 4.3828346836341079e+03 -5.4175033338553721e+03 0.0000000000000000e+00 0.0000000000000000e+00 0.0000000000000000e+00 0.0000000000000000e+00  -2.8801605368982023e+03 -3.5632694599992774e+03 0.0000000000000000e+00 -3.5632694599992765e+03 -3.9382712115873042e+03 0.0000000000000000e+00 0.0000000000000000e+00 0.0000000000000000e+00 0.0000000000000000e+00  -7.4381584406065958e+03 -6.7141070358943316e+03 0.0000000000000000e+00 -6.7141070358943334e+03 -6.9582826508406852e+03 0.0000000000000000e+00 0.0000000000000000e+00 0.0000000000000000e+00 0.0000000000000000e+00  -2.7525513663607594e+03 -2.9661470483900162e+03 0.0000000000000000e+00 -2.9661470483900143e+03 -2.6550364527786751e+03 0.0000000000000000e+00 0.0000000000000000e+00 0.0000000000000000e+00 0.0000000000000000e+00  2.1777837457522890e+02 -2.4120598425947790e+02 0.0000000000000000e+00 -2.4120598425947748e+02 6.8606406447519003e+03 0.0000000000000000e+00 0.0000000000000000e+00 0.0000000000000000e+00 0.0000000000000000e+00  -7.0518277960028129e+01 3.4044736513234838e+01 0.0000000000000000e+00 3.4044736513234803e+01 -3.3658376996935409e+01 0.0000000000000000e+00 0.0000000000000000e+00 0.0000000000000000e+00 0.0000000000000000e+00  3.4056810312250150e+00 7.3333046870704708e+00 0.0000000000000000e+00 7.3333046870704770e+00 5.0117803664171362e+02 0.0000000000000000e+00 0.0000000000000000e+00 0.0000000000000000e+00 0.0000000000000000e+00  3.5803062878188054e+00 -9.2211300790539497e+00 0.0000000000000000e+00 -9.2211300790539781e+00 5.1358847219901725e+02 0.0000000000000000e+00 0.0000000000000000e+00 0.0000000000000000e+00 0.0000000000000000e+00  2.3374776596253351e+01 -2.5707510502965683e+00 0.0000000000000000e+00 -2.5707510502965492e+00 -1.7713936093678580e+01 0.0000000000000000e+00 0.0000000000000000e+00 0.0000000000000000e+00 0.0000000000000000e+00  -2.2229370569044562e+00 -6.6995511412584408e-01 0.0000000000000000e+00 -6.6995511412584197e-01 -3.5175331527491251e+00 0.0000000000000000e+00 0.0000000000000000e+00 0.0000000000000000e+00 0.0000000000000000e+00  2.1931793797572049e-01 3.4320197411925102e-01 0.0000000000000000e+00 3.4320197411925074e-01 8.0588783873792136e-01 0.0000000000000000e+00 0.0000000000000000e+00 0.0000000000000000e+00 0.0000000000000000e+00  -2.9067523164503189e+01 3.1965179205375517e+01 0.0000000000000000e+00 3.1965179205375534e+01 -2.2020685900790713e+01 0.0000000000000000e+00 0.0000000000000000e+00 0.0000000000000000e+00 0.0000000000000000e+00  -4.0883337687521710e+01 -3.1000014142651693e+01 0.0000000000000000e+00 -3.1000014142651683e+01 -2.3340061398855125e+00 0.0000000000000000e+00 0.0000000000000000e+00 0.0000000000000000e+00 0.0000000000000000e+00  1.0019193777408650e+00 7.0315628191147653e+01 0.0000000000000000e+00 7.0315628191147681e+01 -4.4609114716277261e+01 0.0000000000000000e+00 0.0000000000000000e+00 0.0000000000000000e+00 0.0000000000000000e+00  -3.0024542946412065e+01 -7.2834543633545408e+01 0.0000000000000000e+00 -7.2834543633545351e+01 -6.2887586256464097e+01 0.0000000000000000e+00 0.0000000000000000e+00 0.0000000000000000e+00 0.0000000000000000e+00  -6.7317910675193218e+01 -4.0048299997923920e+01 0.0000000000000000e+00 -4.0048299997923934e+01 -7.0461587438577254e+01 0.0000000000000000e+00 0.0000000000000000e+00 0.0000000000000000e+00 0.0000000000000000e+00  -3.8382852906363254e+01 -2.1907440666421131e+01 0.0000000000000000e+00 -2.1907440666421131e+01 6.8996704673693177e-01 0.0000000000000000e+00 0.0000000000000000e+00 0.0000000000000000e+00 0.0000000000000000e+00  -6.1543717626134764e-01 -4.6557914328646410e-01 0.0000000000000000e+00 -4.6557914328646410e-01 -2.0706667361723202e-01 0.0000000000000000e+00 0.0000000000000000e+00 0.0000000000000000e+00 0.0000000000000000e+00  -4.4161000363466973e+00 -1.2845650692646071e+00 0.0000000000000000e+00 -1.2845650692646031e+00 -2.9836137931992353e+00 0.0000000000000000e+00 0.0000000000000000e+00 0.0000000000000000e+00 0.0000000000000000e+00  -3.4914033637965904e+03 4.0997237231892395e+03 0.0000000000000000e+00 4.0997237231892395e+03 -4.2974108452420469e+03 0.0000000000000000e+00 0.0000000000000000e+00 0.0000000000000000e+00 0.0000000000000000e+00  -8.6847990350148484e+03 6.9725935479212740e+03 0.0000000000000000e+00 6.9725935479212703e+03 -6.9915970725576117e+03 0.0000000000000000e+00 0.0000000000000000e+00 0.0000000000000000e+00 0.0000000000000000e+00  -3.6653072664460910e+03 4.5111555061072477e+03 0.0000000000000000e+00 4.5111555061072477e+03 -5.3036881640767724e+03 0.0000000000000000e+00 0.0000000000000000e+00 0.0000000000000000e+00 0.0000000000000000e+00  1.6322475641210261e+02 5.2562004962254321e+01 0.0000000000000000e+00 5.2562004962254925e+01 -7.8542616712748695e+03 0.0000000000000000e+00 0.0000000000000000e+00 0.0000000000000000e+00 0.0000000000000000e+00  -2.6805106908416092e+03 -3.5502620019205715e+03 0.0000000000000000e+00 -3.5502620019205733e+03 -3.8741297301635072e+03 0.0000000000000000e+00 0.0000000000000000e+00 0.0000000000000000e+00 0.0000000000000000e+00  -8.5722671809183703e+03 -7.3508653205114551e+03 0.0000000000000000e+00 -7.3508653205114515e+03 -7.3675543881642170e+03 0.0000000000000000e+00 0.0000000000000000e+00 0.0000000000000000e+00 0.0000000000000000e+00  -2.6454530541754089e+03 -2.9025333067509905e+03 0.0000000000000000e+00 -2.9025333067509901e+03 -3.2692894084967761e+03 0.0000000000000000e+00 0.0000000000000000e+00 0.0000000000000000e+00 0.0000000000000000e+00  -4.1357021938547007e+01 1.3441763076643786e+01 0.0000000000000000e+00 1.3441763076643797e+01 -9.4849266892215542e+00 0.0000000000000000e+00 0.0000000000000000e+00 0.0000000000000000e+00 0.0000000000000000e+00  2.5849371279761577e+00 5.5872183270585216e+00 0.0000000000000000e+00 5.5872183270585269e+00 5.0370064938716467e+02 0.0000000000000000e+00 0.0000000000000000e+00 0.0000000000000000e+00 0.0000000000000000e+00  1.3183790058470549e+02 1.0554302862123134e+02 0.0000000000000000e+00 1.0554302862123136e+02 6.0948503185445952e+02 0.0000000000000000e+00 0.0000000000000000e+00 0.0000000000000000e+00 0.0000000000000000e+00  -5.6382615124576923e+03 5.9286833759236415e+03 0.0000000000000000e+00 5.9286833759236397e+03 -5.4700041542832914e+03 0.0000000000000000e+00 0.0000000000000000e+00 0.0000000000000000e+00 0.0000000000000000e+00  -6.5841703135014914e+03 5.8417805548885226e+03 0.0000000000000000e+00 5.8417805548885244e+03 -7.3241783373182843e+03 0.0000000000000000e+00 0.0000000000000000e+00 0.0000000000000000e+00 0.0000000000000000e+00  -6.4716799577630700e+03 -5.7291262785457238e+03 0.0000000000000000e+00 -5.7291262785457229e+03 -4.2903320249766957e+03 0.0000000000000000e+00 0.0000000000000000e+00 0.0000000000000000e+00 0.0000000000000000e+00  -5.2266293004799709e+03 5.7970233608234039e+03 0.0000000000000000e+00 5.7970233608234039e+03 -3.8895079866949923e+03 0.0000000000000000e+00 0.0000000000000000e+00 0.0000000000000000e+00 0.0000000000000000e+00  -4.4666194161602007e+03 -5.5821576483629542e+03 0.0000000000000000e+00 -5.5821576483629506e+03 -7.3287363143052353e+03 0.0000000000000000e+00 0.0000000000000000e+00 0.0000000000000000e+00 0.0000000000000000e+00  -1.1225817906728007e+03 -1.0499612256853463e+03 0.0000000000000000e+00 -1.0499612256853459e+03 -7.9137965437350215e+02 0.0000000000000000e+00 0.0000000000000000e+00 0.0000000000000000e+00 0.0000000000000000e+00  -6.9049622660027553e+03 -6.1239470605703737e+03 0.0000000000000000e+00 -6.1239470605703718e+03 -5.5797463321453906e+03 0.0000000000000000e+00 0.0000000000000000e+00 0.0000000000000000e+00 0.0000000000000000e+00  -3.7270165788391876e+02 -4.0699986369217697e+02 0.0000000000000000e+00 -4.0699986369217720e+02 -7.6620328598772471e+02 0.0000000000000000e+00 0.0000000000000000e+00 0.0000000000000000e+00 0.0000000000000000e+00  3.6388654022845481e+03 4.0867035651033990e+02 0.0000000000000000e+00 4.0867035651034024e+02 1.5634487337738539e+04 0.0000000000000000e+00 0.0000000000000000e+00 0.0000000000000000e+00 0.0000000000000000e+00  -5.5098906978310822e+02 -5.5513531664372067e+02 0.0000000000000000e+00 -5.5513531664371999e+02 -4.0979543840168435e+02 0.0000000000000000e+00 0.0000000000000000e+00 0.0000000000000000e+00 0.0000000000000000e+00  -1.2618233633193827e+03 1.2572358192044078e+03 0.0000000000000000e+00 1.2572358192044064e+03 -9.7125291148746919e+02 0.0000000000000000e+00 0.0000000000000000e+00 0.0000000000000000e+00 0.0000000000000000e+00  -1.0435729164513655e+03 7.6264836920260552e+02 0.0000000000000000e+00 7.6264836920260632e+02 -6.0475807784982294e+02 0.0000000000000000e+00 0.0000000000000000e+00 0.0000000000000000e+00 0.0000000000000000e+00  4.4473202288473107e+02 -1.8107142191436535e+02 0.0000000000000000e+00 -1.8107142191436574e+02 -2.3617020976950892e+02 0.0000000000000000e+00 0.0000000000000000e+00 0.0000000000000000e+00 0.0000000000000000e+00  -5.2857746824772539e+03 -6.4977194121844468e+03 0.0000000000000000e+00 -6.4977194121844459e+03 -5.7092440351116056e+03 0.0000000000000000e+00 0.0000000000000000e+00 0.0000000000000000e+00 0.0000000000000000e+00  6.1278544362431421e+02 -1.8019714999143787e+02 0.0000000000000000e+00 -1.8019714999143693e+02 5.7992334209395622e+03 0.0000000000000000e+00 0.0000000000000000e+00 0.0000000000000000e+00 0.0000000000000000e+00  -6.6355915671083985e+03 -5.2193299254733338e+03 0.0000000000000000e+00 -5.2193299254733356e+03 -4.8392211607956569e+03 0.0000000000000000e+00 0.0000000000000000e+00 0.0000000000000000e+00 0.0000000000000000e+00  -5.1038444946188320e+03 6.5845367433164929e+03 0.0000000000000000e+00 6.5845367433164902e+03 -6.3524220381015257e+03 0.0000000000000000e+00 0.0000000000000000e+00 0.0000000000000000e+00 0.0000000000000000e+00  -5.4845532084425349e+03 -6.3043216915829880e+03 0.0000000000000000e+00 -6.3043216915829898e+03 -7.7629971490098424e+03 0.0000000000000000e+00 0.0000000000000000e+00 0.0000000000000000e+00 0.0000000000000000e+00  -6.2810536029520481e+03 5.2292624993961990e+03 0.0000000000000000e+00 5.2292624993962099e+03 -4.1120732521246173e+03 0.0000000000000000e+00 0.0000000000000000e+00 0.0000000000000000e+00 0.0000000000000000e+00  1.9299436296793542e+02 3.6129586878013276e+02 0.0000000000000000e+00 3.6129586878013288e+02 6.4328817198082209e+02 0.0000000000000000e+00 0.0000000000000000e+00 0.0000000000000000e+00 0.0000000000000000e+00  -5.9902380779699542e+03 6.2134190090935317e+03 0.0000000000000000e+00 6.2134190090935326e+03 -7.9104526941384211e+03 0.0000000000000000e+00 0.0000000000000000e+00 0.0000000000000000e+00 0.0000000000000000e+00  -5.3587353294546729e+03 6.7331917475972214e+03 0.0000000000000000e+00 6.7331917475972250e+03 -8.6700095778239120e+03 0.0000000000000000e+00 0.0000000000000000e+00 0.0000000000000000e+00 0.0000000000000000e+00  1.1881451293721622e+02 -1.3896456317789510e+00 0.0000000000000000e+00 -1.3896456317780486e+00 -7.9359293794487266e+03 0.0000000000000000e+00 0.0000000000000000e+00 0.0000000000000000e+00 0.0000000000000000e+00  1.5317693122756430e+03 -3.3077097218509316e+03 0.0000000000000000e+00 -3.3077097218509325e+03 4.6020766049556851e+03 0.0000000000000000e+00 0.0000000000000000e+00 0.0000000000000000e+00 0.0000000000000000e+00  -4.9853194784202395e+02 3.0179325198541562e+02 0.0000000000000000e+00 3.0179325198541454e+02 1.4147264857783243e+03 0.0000000000000000e+00 0.0000000000000000e+00 0.0000000000000000e+00 0.0000000000000000e+00  1.0191851438613162e+03 -1.9842564072476881e+02 0.0000000000000000e+00 -1.9842564072476964e+02 1.2870270153783116e+04 0.0000000000000000e+00 0.0000000000000000e+00 0.0000000000000000e+00 0.0000000000000000e+00  -4.1861888966997321e+03 -6.3694281981758677e+03 0.0000000000000000e+00 -6.3694281981758668e+03 -8.2901897046755421e+03 0.0000000000000000e+00 0.0000000000000000e+00 0.0000000000000000e+00 0.0000000000000000e+00  1.1787704357333694e+03 2.5728561859677807e+03 0.0000000000000000e+00 2.5728561859677793e+03 3.5261300143492062e+03 0.0000000000000000e+00 0.0000000000000000e+00 0.0000000000000000e+00 0.0000000000000000e+00  -6.4974974822234735e+03 5.8300439800050372e+03 0.0000000000000000e+00 5.8300439800050362e+03 -4.4207026442519991e+03 0.0000000000000000e+00 0.0000000000000000e+00 0.0000000000000000e+00 0.0000000000000000e+00  -4.6438221986630952e+03 5.5662763282117221e+03 0.0000000000000000e+00 5.5662763282117185e+03 -7.3555489618546426e+03 0.0000000000000000e+00 0.0000000000000000e+00 0.0000000000000000e+00 0.0000000000000000e+00  -6.0556641359397818e+03 -5.9105517019720810e+03 0.0000000000000000e+00 -5.9105517019720783e+03 -5.4585641722519022e+03 0.0000000000000000e+00 0.0000000000000000e+00 0.0000000000000000e+00 0.0000000000000000e+00  -6.8339865984852340e+03 6.1064144060929993e+03 0.0000000000000000e+00 6.1064144060930030e+03 -5.4745509843723403e+03 0.0000000000000000e+00 0.0000000000000000e+00 0.0000000000000000e+00 0.0000000000000000e+00  -6.7551158705036451e+03 -5.7900083712754677e+03 0.0000000000000000e+00 -5.7900083712754695e+03 -7.4189461700873790e+03 0.0000000000000000e+00 0.0000000000000000e+00 0.0000000000000000e+00 0.0000000000000000e+00  -1.5369169499247439e+03 -1.2540324850567761e+03 0.0000000000000000e+00 -1.2540324850567749e+03 -1.0025031217013660e+03 0.0000000000000000e+00 0.0000000000000000e+00 0.0000000000000000e+00 0.0000000000000000e+00  -4.7030231181000581e+03 -5.8777363542716766e+03 0.0000000000000000e+00 -5.8777363542716776e+03 -3.9134609985403636e+03 0.0000000000000000e+00 0.0000000000000000e+00 0.0000000000000000e+00 0.0000000000000000e+00  7.0384979478195510e+02 3.0796159630299951e+02 0.0000000000000000e+00 3.0796159630299866e+02 -