<?xml version="1.0"?>
<VTKFile type="UnstructuredGrid"  version="0.1"  >
<UnstructuredGrid>
<Piece  NumberOfPoints="4855" NumberOfCells="8780">
<Points>
<DataArray  type="Float64"  NumberOfComponents="3"  format="ascii">0.9483880164242298 0.6836931311526558 0  0.9494264999197789 0.6847056440044139 0  0.9494005292759887 0.6847228078606633 0  0.9735520289385229 0.7444444444444445 0  0.9494005292759886 0.8041660810282256 0  0.94942649991978 0.8041832448844759 0  0.9483880175070514 0.8051957566534116 0  3.131175874138137e-16 0.09811450876034808 0  0.06838800723463068 0.1543033514199101 0  0.05161198249294494 0.1948042433465922 0  0.0505735000802211 0.1958167551155251 0  0.05059947072401128 0.1958339189717744 0  0.0505994707240113 0.3152771921393367 0  0.05057350008021998 0.315294355995587 0  0.05161198357913653 0.3163068688507105 0  0.06838800723463068 0.356807759691201 0  3.252606517456513e-16 0.4129966023507631 0  -1.795438797635995e-16 0.4839416311832997 0  0.07083274769489223 0.4605116403870998 0  0.07084991155114129 0.4605376110308903 0  0.07186242331670639 0.4594991286215342 0  0.1696402113702762 0.5 0  0.07186242332008326 0.5405008713818427 0  0.0708499115511413 0.5394623889691096 0  0.07083274769489219 0.5394883596129002 0  -1.925543058334256e-16 0.5160583688167003 0  1.484923295436147e-15 0.5870033976492365 0  0.06838800723463068 0.643192240308799 0  0.05161198249294541 0.6836931322354806 0  0.05057350008022109 0.6847056440044139 0  0.0505994707240113 0.6847228078606633 0  0.0505994707240113 0.8041660810282256 0  0.05057350008021999 0.804183244884476 0  0.05161198249294764 0.8051957566534106 0  0.06838800723463068 0.84569664858009 0  1.485790657174135e-15 0.9018854912396524 0  0 1 0  1 1 0  0.9999999999999987 0.9018854912396523 0  1.000000000000001 0.5870033976492375 0  1 0.5160583688167003 0  0.9291672523051078 0.5394883596129003 0  0.9291500884488585 0.5394623889691117 0  0.9281375755937461 0.5405008724680134 0  0.9281375755937372 0.4594991275319777 0  0.9291500884488586 0.4605376110308884 0  0.9291672523051077 0.4605116403870997 0  1 0.4839416311832997 0  0.9999999999999987 0.4129966023507635 0  0.948388017507054 0.31630686776452 0  0.94942649991978 0.3152943559955871 0  0.9494005292759886 0.3152771921393367 0  0.9735520289385229 0.2555555555555555 0  0.9494005292759888 0.1958339189717744 0  0.9494264999197789 0.1958167551155251 0  0.9483880164208631 0.1948042422604003 0  1.000000000000001 0.09811450876034861 0  1 0 0  0 0 0  0.1958339189717744 0.2950439151684559 0  0.1958167551155252 0.2950179445246672 0  0.3152771921393367 0.2950439151684557 0  0.1948042433481841 0.2960564269357975 0  0.3152943559955858 0.2950179445246651 0  0.1948042422604031 0.2150546830875326 0  0.3163068677645244 0.2960564269373949 0  0.1958167551155251 0.2160931665864439 0  0.4140846558147206 0.2555555555555555 0  0.1958339189717744 0.2160671959426553 0  0.3163068688489276 0.215054683089313 0  0.3152771921393367 0.2160671959426553 0  0.3152943559955858 0.2160931665864459 0  0.5405008724680257 0.3163068688507107 0  0.5572768961235196 0.356807759691201 0  0.5394623889691089 0.3152943559955871 0  0.459499128618165 0.3163068677645201 0  0.5394883596129003 0.3152771921393367 0  0.4605376110308911 0.3152943559955871 0  0.5394883596129001 0.1958339189717744 0  0.4605116403870998 0.3152771921393367 0  0.53946238896911 0.1958167551155251 0  0.4846631400496339 0.2555555555555555 0  0.5405008724680251 0.1948042422604009 0  0.4605116403870998 0.1958339189717744 0  0.5572768961235196 0.1543033514199101 0  0.46053761103089 0.1958167551155251 0  0.4594991286269881 0.1948042433554141 0  0.6847228078606633 0.2950439151684559 0  0.684705644004414 0.2950179445246672 0  0.8041660810282256 0.2950439151684557 0  0.683693131164073 0.2960564280087975 0  0.8041832448844747 0.2950179445246651 0  0.6836931322354718 0.2150546841737125 0  0.8051957566534156 0.2960564269373971 0  0.6847056440044141 0.2160931665864439 0  0.9029735447036096 0.2555555555555555 0  0.6847228078606632 0.2160671959426553 0  0.8051957577274008 0.2150546830997286 0  0.8041660810282256 0.2160671959426553 0  0.8041832448844747 0.2160931665864459 0  0.2960564280235811 0.560751313295155 0  0.3128324516790751 0.6012522041356455 0  0.2950179445246645 0.5597388004400315 0  0.2150546830875235 0.5607513132951615 0  0.2950439151684557 0.5597216365837812 0  0.2160931665864466 0.5597388004400314 0  0.2950439151684558 0.4402783634162188 0  0.2160671959426553 0.5597216365837812 0  0.2950179445246656 0.4402611995599696 0  0.2402186956051895 0.5 0  0.29605642693739 0.439248687791036 0  0.2160671959426553 0.4402783634162189 0  0.3128324516790751 0.3987477958643545 0  0.2160931665864455 0.4402611995599696 0  0.2150546830875296 0.4392486867048446 0  0.1958339189717743 0.7839328040573448 0  0.1958167551155252 0.7839068334135562 0  0.3152771921393367 0.7839328040573447 0  0.1948042422604028 0.7849453169124678 0  0.3152943559955858 0.783906833413554 0  0.1948042433465913 0.7039435730626098 0  0.3163068677645284 0.7849453158262878 0  0.1958167551155251 0.7049820554753328 0  0.4140846558147206 0.7444444444444445 0  0.1958339189717744 0.7049560848315441 0  0.3163068688486237 0.7039435719785058 0  0.3152771921393367 0.7049560848315441 0  0.3152943559955858 0.7049820554753349 0  0.4402783634162188 0.5394883596129003 0  0.4402611995599696 0.5394623889691117 0  0.5597216365837812 0.5394883596129002 0  0.4392486867048468 0.5405008724680237 0  0.5597388004400302 0.5394623889691096 0  0.4392486877998708 0.4594991286270004 0  0.5607513122089726 0.540500871381843 0  0.4402611995599696 0.4605376110308884 0  0.6585291002591651 0.5 0  0.4402783634162188 0.4605116403870998 0  0.5607513121946796 0.45949912863245 0  0.5597216365837812 0.4605116403870998 0  0.5597388004400302 0.4605376110308904 0  0.78494531690701 0.5607513132896949 0  0.8017213405679641 0.6012522041356455 0  0.7839068334135535 0.5597388004400315 0  0.7039435730626069 0.5607513122089671 0  0.7839328040573448 0.5597216365837812 0  0.7049820554753355 0.5597388004400314 0  0.7839328040573448 0.4402783634162188 0  0.7049560848315441 0.5597216365837812 0  0.7839068334135545 0.4402611995599696 0  0.7291075844940784 0.5 0  0.784945315826279 0.4392486877910359 0  0.7049560848315444 0.4402783634162188 0  0.8017213405679641 0.3987477958643545 0  0.7049820554753344 0.4402611995599696 0  0.7039435719764182 0.4392486867048443 0  0.5405008724625655 0.8051957577341393 0  0.5572768961235196 0.84569664858009 0  0.539462388969109 0.804183244884476 0  0.4594991286181648 0.8051957566534091 0  0.5394883596129003 0.8041660810282256 0  0.4605376110308911 0.804183244884476 0  0.5394883596129003 0.6847228078606633 0  0.4605116403870998 0.8041660810282256 0  0.53946238896911 0.6847056440044139 0  0.4846631400496339 0.7444444444444445 0  0.5405008713818347 0.6836931322354802 0  0.4605116403870998 0.6847228078606633 0  0.5572768961235196 0.643192240308799 0  0.46053761103089 0.6847056440044139 0  0.4594991275353449 0.6836931311526599 0  0.6847228078606633 0.7839328040573448 0  0.684705644004414 0.7839068334135562 0  0.8041660810282256 0.7839328040573447 0  0.6836931311493016 0.7849453169124578 0  0.8041832448844747 0.783906833413554 0  0.68369313223548 0.7039435730626096 0  0.805195756653417 0.7849453158262875 0  0.6847056440044141 0.7049820554753328 0  0.9029735447036096 0.7444444444444445 0  0.6847228078606633 0.7049560848315441 0  0.805195757738809 0.7039435719772094 0  0.8041660810282256 0.7049560848315441 0  0.8041832448844747 0.7049820554753349 0  0.9578164230213342 0.6948838683471341 0  0.9645772892192558 0.7062137009141434 0  0.9695236884064815 0.7184451175460498 0  0.972538971146615 0.7312896684428197 0  0.9725389711466151 0.7575992204460691 0  0.9695236884064815 0.7704437713428391 0  0.9645772892192558 0.7826751879747456 0  0.9578164230213342 0.7940050205417549 0  0.01437766570919127 0.09711967848259151 0  0.02854851642641832 0.09974531144948819 0  0.04161535472570586 0.1058251712658871 0  0.05275088139110013 0.1149743244732108 0  0.06125007411586489 0.1266135117968212 0  0.06657482449792251 0.1400058227212122 0  0.06643634307317195 0.1691277076584997 0  0.06071435336153361 0.1829418078690686 0  0.04134737123322858 0.3039103077764334 0  0.03416190609801732 0.2911362521989113 0  0.02925217947541549 0.2773267630846004 0  0.02676106927623143 0.2628837102534819 0  0.02676106927623143 0.2482274008576293 0  0.02925217947541547 0.2337843480265108 0  0.03416190609801727 0.2199748589121999 0  0.04134737123322851 0.2072008033346779 0  0.06071435387356935 0.328169304128914 0  0.06643634320569657 0.3419834039471998 0  0.06657482449792249 0.371105288389899 0  0.06125007411586481 0.3844975993142901 0  0.05275088139109994 0.3961367866379005 0  0.04161535472570563 0.4052859398452242 0  0.02854851642641818 0.411365799661623 0  0.01437766570919127 0.4139914326285196 0  0 0.4697526254167924 0  0 0.455563619650285 0  0 0.4413746138837777 0  0 0.4271856081172704 0  0.06095233986089402 0.4687284952262988 0  0.04995687430503332 0.4753797281664747 0  0.03809234373417287 0.4803165365228644 0  0.02562418374773841 0.4834284730529493 0  0.01283133446055119 0.4846459169037758 0  0.08372485599813187 0.4503967593658507 0  0.09753895276796982 0.4446747697099958 0  0.1123633055586467 0.4427231038764812 0  0.1271876590095525 0.4446747646950606 0  0.1410017577150834 0.45039674967774 0  0.1528641934757506 0.4594991149204779 0  0.161966560724962 0.471361549141524 0  0.1676885480442292 0.4851756468792086 0  0.1676885480443665 0.514824353120279 0  0.1619665607254926 0.528638450857557 0  0.1528641934768762 0.5405008850783964 0  0.1410017577169217 0.5496032503211987 0  0.1271876590121153 0.5553252353042526 0  0.1123633055618306 0.5572768961235188 0  0.09753895277155772 0.5553252302909656 0  0.08372485600180817 0.5496032406362719 0  0.0128313344605512 0.5153540830962242 0  0.0256241837477384 0.5165715269470507 0  0.03809234373417282 0.5196834634771356 0  0.04995687430503334 0.5246202718335253 0  0.06095233986089401
[...]
<PointData  Tensors="$\sigma$"> 
<DataArray  type="Float64"  Name="$\sigma$"  NumberOfComponents="9" format="ascii">-4.5483437861226394e+03 -5.7893828186321534e+03 0.0000000000000000e+00 -5.7893828186321634e+03 -5.8465907862923359e+03 0.0000000000000000e+00 0.0000000000000000e+00 0.0000000000000000e+00 0.0000000000000000e+00  -7.6582897648658536e+03 -6.1113524368056114e+03 0.0000000000000000e+00 -6.1113524368055978e+03 -6.2323625279489852e+03 0.0000000000000000e+00 0.0000000000000000e+00 0.0000000000000000e+00 0.0000000000000000e+00  -5.1750580759483328e+03 -5.9318722735671827e+03 0.0000000000000000e+00 -5.9318722735671836e+03 -6.1071342297890951e+03 0.0000000000000000e+00 0.0000000000000000e+00 0.0000000000000000e+00 0.0000000000000000e+00  7.2819147739761760e+01 -2.6848538995778904e+02 0.0000000000000000e+00 -2.6848538995778893e+02 -1.1548284883235729e+04 0.0000000000000000e+00 0.0000000000000000e+00 0.0000000000000000e+00 0.0000000000000000e+00  -5.4042010589243282e+03 6.0736640481626309e+03 0.0000000000000000e+00 6.0736640481626437e+03 -6.7884328211927195e+03 0.0000000000000000e+00 0.0000000000000000e+00 0.0000000000000000e+00 0.0000000000000000e+00  -7.9391581532969494e+03 5.8857863409258771e+03 0.0000000000000000e+00 5.8857863409258753e+03 -5.7545377935320357e+03 0.0000000000000000e+00 0.0000000000000000e+00 0.0000000000000000e+00 0.0000000000000000e+00  -3.7707989347484058e+03 5.4737872414205758e+03 0.0000000000000000e+00 5.4737872414205758e+03 -5.2428057771679123e+03 0.0000000000000000e+00 0.0000000000000000e+00 0.0000000000000000e+00 0.0000000000000000e+00  8.3956397625300838e+01 4.6149548658577704e+00 0.0000000000000000e+00 4.6149548658576860e+00 3.4513284703949189e+01 0.0000000000000000e+00 0.0000000000000000e+00 0.0000000000000000e+00 0.0000000000000000e+00  -4.8763539764681660e+01 7.5469324690835251e+01 0.0000000000000000e+00 7.5469324690834412e+01 8.3277041655660232e+03 0.0000000000000000e+00 0.0000000000000000e+00 0.0000000000000000e+00 0.0000000000000000e+00  -4.4439852366662271e+03 4.8411807815093562e+03 0.0000000000000000e+00 4.8411807815093553e+03 -6.5748091770620922e+03 0.0000000000000000e+00 0.0000000000000000e+00 0.0000000000000000e+00 0.0000000000000000e+00  -6.9273601351453535e+03 6.1144682824920455e+03 0.0000000000000000e+00 6.1144682824920519e+03 -4.1548248920852120e+03 0.0000000000000000e+00 0.0000000000000000e+00 0.0000000000000000e+00 0.0000000000000000e+00  -5.4378978985272179e+03 5.9544608703603180e+03 0.0000000000000000e+00 5.9544608703603271e+03 -6.7512560455514895e+03 0.0000000000000000e+00 0.0000000000000000e+00 0.0000000000000000e+00 0.0000000000000000e+00  -4.5457622047329878e+03 -6.0430330575459320e+03 0.0000000000000000e+00 -6.0430330575459220e+03 -5.1949505854434929e+03 0.0000000000000000e+00 0.0000000000000000e+00 0.0000000000000000e+00 0.0000000000000000e+00  -9.1361784374115523e+03 -6.0787529396408163e+03 0.0000000000000000e+00 -6.0787529396408318e+03 -7.3789325899961859e+03 0.0000000000000000e+00 0.0000000000000000e+00 0.0000000000000000e+00 0.0000000000000000e+00  -3.6207441181922854e+03 -5.7744760973611246e+03 0.0000000000000000e+00 -5.7744760973611092e+03 -5.5714982582701496e+03 0.0000000000000000e+00 0.0000000000000000e+00 0.0000000000000000e+00 0.0000000000000000e+00  3.5377395794800270e+02 2.8047937675385597e+01 0.0000000000000000e+00 2.8047937675385974e+01 1.0222382097506207e+03 0.0000000000000000e+00 0.0000000000000000e+00 0.0000000000000000e+00 0.0000000000000000e+00  5.9238271530214499e+00 4.6873551738002019e+00 0.0000000000000000e+00 4.6873551738002028e+00 -7.8411036843518680e+00 0.0000000000000000e+00 0.0000000000000000e+00 0.0000000000000000e+00 0.0000000000000000e+00  -5.3258793600529239e+00 1.4402228057482702e+00 0.0000000000000000e+00 1.4402228057482729e+00 3.8123871482778871e+00 0.0000000000000000e+00 0.0000000000000000e+00 0.0000000000000000e+00 0.0000000000000000e+00  -5.2003540476140081e+01 3.7260313104698334e+01 0.0000000000000000e+00 3.7260313104698312e+01 -2.0272139692401979e+01 0.0000000000000000e+00 0.0000000000000000e+00 0.0000000000000000e+00 0.0000000000000000e+00  -4.5712813596818734e+02 3.4051621651252771e+02 0.0000000000000000e+00 3.4051621651252771e+02 -3.6991284116677411e+02 0.0000000000000000e+00 0.0000000000000000e+00 0.0000000000000000e+00 0.0000000000000000e+00  1.0377090189157940e+02 2.1646704307591747e+01 0.0000000000000000e+00 2.1646704307591698e+01 -2.0082311714760781e+00 0.0000000000000000e+00 0.0000000000000000e+00 0.0000000000000000e+00 0.0000000000000000e+00  7.0848968996601370e+03 -3.5565812801112156e+02 0.0000000000000000e+00 -3.5565812801112111e+02 2.0027062011170950e+04 0.0000000000000000e+00 0.0000000000000000e+00 0.0000000000000000e+00 0.0000000000000000e+00  2.8755437911687615e+01 -6.4048165735982820e+01 0.0000000000000000e+00 -6.4048165735982636e+01 -2.1018055239232005e+01 0.0000000000000000e+00 0.0000000000000000e+00 0.0000000000000000e+00 0.0000000000000000e+00  9.4801060826083116e+01 1.8989718966945588e+02 0.0000000000000000e+00 1.8989718966945580e+02 1.3290990759094154e+02 0.0000000000000000e+00 0.0000000000000000e+00 0.0000000000000000e+00 0.0000000000000000e+00  -2.9522119218315886e+01 -3.4175191072888339e+01 0.0000000000000000e+00 -3.4175191072888353e+01 -2.2854071650481924e+01 0.0000000000000000e+00 0.0000000000000000e+00 0.0000000000000000e+00 0.0000000000000000e+00  -1.7945097614579497e+00 1.9622983271772845e-01 0.0000000000000000e+00 1.9622983271772479e-01 1.9574661616062932e+00 0.0000000000000000e+00 0.0000000000000000e+00 0.0000000000000000e+00 0.0000000000000000e+00  -1.0146820802022939e+01 -8.5905523278396974e+00 0.0000000000000000e+00 -8.5905523278396974e+00 -1.1060377432750761e+00 0.0000000000000000e+00 0.0000000000000000e+00 0.0000000000000000e+00 0.0000000000000000e+00  -5.7104871826769681e+01 -1.3155445295346922e+02 0.0000000000000000e+00 -1.3155445295346937e+02 1.1038354098766267e+03 0.0000000000000000e+00 0.0000000000000000e+00 0.0000000000000000e+00 0.0000000000000000e+00  -4.7752936772298926e+03 5.7147808448346223e+03 0.0000000000000000e+00 5.7147808448346104e+03 -6.2153661551685764e+03 0.0000000000000000e+00 0.0000000000000000e+00 0.0000000000000000e+00 0.0000000000000000e+00  -7.3783872494816160e+03 6.1727423754916390e+03 0.0000000000000000e+00 6.1727423754916463e+03 -5.1217651310327374e+03 0.0000000000000000e+00 0.0000000000000000e+00 0.0000000000000000e+00 0.0000000000000000e+00  -5.1247888555403197e+03 5.8350388402193657e+03 0.0000000000000000e+00 5.8350388402193630e+03 -6.9098199144163445e+03 0.0000000000000000e+00 0.0000000000000000e+00 0.0000000000000000e+00 0.0000000000000000e+00  -5.7518542857584835e+03 -6.1424190586587792e+03 0.0000000000000000e+00 -6.1424190586587856e+03 -7.0945390957684513e+03 0.0000000000000000e+00 0.0000000000000000e+00 0.0000000000000000e+00 0.0000000000000000e+00  -7.3559963298284183e+03 -5.9414350009481805e+03 0.0000000000000000e+00 -5.9414350009481732e+03 -5.6158642050119952e+03 0.0000000000000000e+00 0.0000000000000000e+00 0.0000000000000000e+00 0.0000000000000000e+00  -3.7850204081730071e+03 -5.0731093602714136e+03 0.0000000000000000e+00 -5.0731093602714209e+03 -4.8074158363187007e+03 0.0000000000000000e+00 0.0000000000000000e+00 0.0000000000000000e+00 0.0000000000000000e+00  5.4086100133647186e+01 -3.5520214868373859e+02 0.0000000000000000e+00 -3.5520214868374131e+02 8.0256677781227027e+03 0.0000000000000000e+00 0.0000000000000000e+00 0.0000000000000000e+00 0.0000000000000000e+00  -1.1532481812157181e+02 4.9051301693237306e+01 0.0000000000000000e+00 4.9051301693237370e+01 -4.4923307403483172e+01 0.0000000000000000e+00 0.0000000000000000e+00 0.0000000000000000e+00 0.0000000000000000e+00  7.1365384656990771e-01 1.2156097531781038e+01 0.0000000000000000e+00 1.2156097531781038e+01 6.5095299789637363e+02 0.0000000000000000e+00 0.0000000000000000e+00 0.0000000000000000e+00 0.0000000000000000e+00  -1.1521897407519774e+00 -1.6627078276277427e+01 0.0000000000000000e+00 -1.6627078276277469e+01 6.6218750246373543e+02 0.0000000000000000e+00 0.0000000000000000e+00 0.0000000000000000e+00 0.0000000000000000e+00  7.4575049288595281e+01 -2.4020163271133232e+00 0.0000000000000000e+00 -2.4020163271131283e+00 -2.2473894711601211e+01 0.0000000000000000e+00 0.0000000000000000e+00 0.0000000000000000e+00 0.0000000000000000e+00  -1.7315681925429136e+01 -2.4974237960441577e+00 0.0000000000000000e+00 -2.4974237960441630e+00 -6.0168413280804007e-03 0.0000000000000000e+00 0.0000000000000000e+00 0.0000000000000000e+00 0.0000000000000000e+00  5.2304208481268755e-01 1.1914559296393339e+00 0.0000000000000000e+00 1.1914559296393350e+00 -8.1602664553343118e-01 0.0000000000000000e+00 0.0000000000000000e+00 0.0000000000000000e+00 0.0000000000000000e+00  -1.5928015504194290e+01 2.8932653159083039e+00 0.0000000000000000e+00 2.8932653159082502e+00 -3.5002998120807205e+00 0.0000000000000000e+00 0.0000000000000000e+00 0.0000000000000000e+00 0.0000000000000000e+00  -4.8241417595668693e+01 -6.8669093823287227e+01 0.0000000000000000e+00 -6.8669093823287241e+01 2.7291498098769679e+01 0.0000000000000000e+00 0.0000000000000000e+00 0.0000000000000000e+00 0.0000000000000000e+00  6.9708052859301375e+01 6.0553080269390605e+01 0.0000000000000000e+00 6.0553080269390655e+01 -1.9666233547519134e+01 0.0000000000000000e+00 0.0000000000000000e+00 0.0000000000000000e+00 0.0000000000000000e+00  -1.5158647893110569e+01 -6.9294773504558435e+01 0.0000000000000000e+00 -6.9294773504558350e+01 -6.0439185489461543e+01 0.0000000000000000e+00 0.0000000000000000e+00 0.0000000000000000e+00 0.0000000000000000e+00  -2.1415062266548486e+02 -1.7061996603882298e+02 0.0000000000000000e+00 -1.7061996603882304e+02 -1.9286822364213126e+02 0.0000000000000000e+00 0.0000000000000000e+00 0.0000000000000000e+00 0.0000000000000000e+00  -4.6755055179099401e+01 -3.1570737964495507e+01 0.0000000000000000e+00 -3.1570737964495507e+01 -1.3340873263539716e+01 0.0000000000000000e+00 0.0000000000000000e+00 0.0000000000000000e+00 0.0000000000000000e+00  5.6064892160486723e-01 2.7144489642408109e-01 0.0000000000000000e+00 2.7144489642408276e-01 4.9545535836942340e+00 0.0000000000000000e+00 0.0000000000000000e+00 0.0000000000000000e+00 0.0000000000000000e+00  -2.8188971676750687e+00 -8.2979589460494740e-01 0.0000000000000000e+00 -8.2979589460494818e-01 -3.5702149937644378e+00 0.0000000000000000e+00 0.0000000000000000e+00 0.0000000000000000e+00 0.0000000000000000e+00  -5.0590111128090721e+03 5.7813332810170423e+03 0.0000000000000000e+00 5.7813332810170295e+03 -6.0224849928882868e+03 0.0000000000000000e+00 0.0000000000000000e+00 0.0000000000000000e+00 0.0000000000000000e+00  -6.9707684130412836e+03 6.1519796947238274e+03 0.0000000000000000e+00 6.1519796947238319e+03 -5.5049656378256495e+03 0.0000000000000000e+00 0.0000000000000000e+00 0.0000000000000000e+00 0.0000000000000000e+00  -5.3108694248102856e+03 5.8809467028631598e+03 0.0000000000000000e+00 5.8809467028631670e+03 -6.7295842289217535e+03 0.0000000000000000e+00 0.0000000000000000e+00 0.0000000000000000e+00 0.0000000000000000e+00  -1.6410082474736583e+02 -2.3430807390258326e+02 0.0000000000000000e+00 -2.3430807390258209e+02 -1.1797460161194411e+04 0.0000000000000000e+00 0.0000000000000000e+00 0.0000000000000000e+00 0.0000000000000000e+00  -5.2464602432720139e+03 -6.0836601360955474e+03 0.0000000000000000e+00 -6.0836601360955437e+03 -6.0922983657538416e+03 0.0000000000000000e+00 0.0000000000000000e+00 0.0000000000000000e+00 0.0000000000000000e+00  -7.3030498119217982e+03 -6.0831392652908817e+03 0.0000000000000000e+00 -6.0831392652908862e+03 -5.0222961725372543e+03 0.0000000000000000e+00 0.0000000000000000e+00 0.0000000000000000e+00 0.0000000000000000e+00  -4.6203657375719276e+03 -5.1619382609053982e+03 0.0000000000000000e+00 -5.1619382609053919e+03 -6.7410822908219297e+03 0.0000000000000000e+00 0.0000000000000000e+00 0.0000000000000000e+00 0.0000000000000000e+00  -1.7300887782609355e+01 -3.1261909524571316e+00 0.0000000000000000e+00 -3.1261909524573199e+00 -2.3832844552706344e+01 0.0000000000000000e+00 0.0000000000000000e+00 0.0000000000000000e+00 0.0000000000000000e+00  8.4118317085144643e+00 3.4171534172343301e+00 0.0000000000000000e+00 3.4171534172343203e+00 6.5970453880012633e+02 0.0000000000000000e+00 0.0000000000000000e+00 0.0000000000000000e+00 0.0000000000000000e+00  1.5312416934869944e+02 1.2566458132173726e+02 0.0000000000000000e+00 1.2566458132173750e+02 7.8457280353520252e+02 0.0000000000000000e+00 0.0000000000000000e+00 0.0000000000000000e+00 0.0000000000000000e+00  -6.2497545114383838e+03 6.1354005783273888e+03 0.0000000000000000e+00 6.1354005783273906e+03 -5.6019219818640668e+03 0.0000000000000000e+00 0.0000000000000000e+00 0.0000000000000000e+00 0.0000000000000000e+00  -5.4251842827339278e+03 6.3368083414094062e+03 0.0000000000000000e+00 6.3368083414094135e+03 -8.1696092389253990e+03 0.0000000000000000e+00 0.0000000000000000e+00 0.0000000000000000e+00 0.0000000000000000e+00  -6.6271981000117239e+03 -5.9019029293942858e+03 0.0000000000000000e+00 -5.9019029293942940e+03 -5.7024556236475673e+03 0.0000000000000000e+00 0.0000000000000000e+00 0.0000000000000000e+00 0.0000000000000000e+00  -7.4453000926505420e+03 5.9663626291426253e+03 0.0000000000000000e+00 5.9663626291426235e+03 -3.9688890265933851e+03 0.0000000000000000e+00 0.0000000000000000e+00 0.0000000000000000e+00 0.0000000000000000e+00  -7.3573470814550565e+03 -5.9093314926062731e+03 0.0000000000000000e+00 -5.9093314926062721e+03 -8.3089980545131366e+03 0.0000000000000000e+00 0.0000000000000000e+00 0.0000000000000000e+00 0.0000000000000000e+00  -1.2770428423052565e+03 -1.2889889628509893e+03 0.0000000000000000e+00 -1.2889889628509918e+03 -1.0043211222658431e+03 0.0000000000000000e+00 0.0000000000000000e+00 0.0000000000000000e+00 0.0000000000000000e+00  -4.4184879929787185e+03 -6.1829219778814331e+03 0.0000000000000000e+00 -6.1829219778814377e+03 -3.5873739407622911e+03 0.0000000000000000e+00 0.0000000000000000e+00 0.0000000000000000e+00 0.0000000000000000e+00  -5.0325098018645491e+02 -5.7390059139798859e+02 0.0000000000000000e+00 -5.7390059139798848e+02 -1.0983601501905905e+03 0.0000000000000000e+00 0.0000000000000000e+00 0.0000000000000000e+00 0.0000000000000000e+00  4.0010614117654363e+03 3.4613320287250355e+02 0.0000000000000000e+00 3.4613320287250292e+02 1.6819735723283433e+04 0.0000000000000000e+00 0.0000000000000000e+00 0.0000000000000000e+00 0.0000000000000000e+00  -7.5767029718178560e+02 -6.3115012731816228e+02 0.0000000000000000e+00 -6.3115012731816228e+02 -3.4659191034078651e+02 0.0000000000000000e+00 0.0000000000000000e+00 0.0000000000000000e+00 0.0000000000000000e+00  -1.5560195058312518e+03 1.5806084207799515e+03 0.0000000000000000e+00 1.5806084207799504e+03 -1.2759208373918466e+03 0.0000000000000000e+00 0.0000000000000000e+00 0.0000000000000000e+00 0.0000000000000000e+00  -1.1883947963241874e+03 8.4408242926018181e+02 0.0000000000000000e+00 8.4408242926018147e+02 -6.4050839856271102e+02 0.0000000000000000e+00 0.0000000000000000e+00 0.0000000000000000e+00 0.0000000000000000e+00  7.5202724411979125e+02 -4.6801699085140825e+02 0.0000000000000000e+00 -4.6801699085140797e+02 -3.1655309021458562e+00 0.0000000000000000e+00 0.0000000000000000e+00 0.0000000000000000e+00 0.0000000000000000e+00  -3.9194201697017079e+03 -6.0451940618592253e+03 0.0000000000000000e+00 -6.0451940618592307e+03 -5.5582060531798325e+03 0.0000000000000000e+00 0.0000000000000000e+00 0.0000000000000000e+00 0.0000000000000000e+00  1.0441656735857341e+03 1.1149832065621656e+02 0.0000000000000000e+00 1.1149832065621604e+02 9.9063249966842632e+03 0.0000000000000000e+00 0.0000000000000000e+00 0.0000000000000000e+00 0.0000000000000000e+00  -8.1573680061385185e+03 -6.0465804271309189e+03 0.0000000000000000e+00 -6.0465804271309134e+03 -6.0252191815484875e+03 0.0000000000000000e+00 0.0000000000000000e+00 0.0000000000000000e+00 0.0000000000000000e+00  -3.9443535468872810e+03 5.8860117222296731e+03 0.0000000000000000e+00 5.8860117222296676e+03 -6.4592136798078764e+03 0.0000000000000000e+00 0.0000000000000000e+00 0.0000000000000000e+00 0.0000000000000000e+00  -5.2821659241567013e+03 -5.9002400392019017e+03 0.0000000000000000e+00 -5.9002400392019035e+03 -6.7529675331158787e+03 0.0000000000000000e+00 0.0000000000000000e+00 0.0000000000000000e+00 0.0000000000000000e+00  -7.2569236162382467e+03 6.1980601033154990e+03 0.0000000000000000e+00 6.1980601033155035e+03 -4.6355138541324159e+03 0.0000000000000000e+00 0.0000000000000000e+00 0.0000000000000000e+00 0.0000000000000000e+00  2.5988110640446976e+03 5.5471388918264647e+03 0.0000000000000000e+00 5.5471388918264656e+03 -6.6653826198090073e+03 0.0000000000000000e+00 0.0000000000000000e+00 0.0000000000000000e+00 0.0000000000000000e+00  -6.1254694779530437e+03 5.8615975865604250e+03 0.0000000000000000e+00 5.8615975865604332e+03 -7.4026575203604134e+03 0.0000000000000000e+00 0.0000000000000000e+00 0.0000000000000000e+00 0.0000000000000000e+00  -1.7694545447996617e+04 9.8665883443135499e+03 0.0000000000000000e+00 9.8665883443135517e+03 -2.0056199814075429e+04 0.0000000000000000e+00 0.0000000000000000e+00 0.0000000000000000e+00 0.0000000000000000e+00  -2.3289276004799171e+02 4.5954043119929366e+02 0.0000000000000000e+00 4.5954043119929560e+02 -1.1979621043540117e+04 0.0000000000000000e+00 0.0000000000000000e+00 0.0000000000000000e+00 0.0000000000000000e+00  -1.9035550826051949e+03 -1.1633394887744371e+03 0.0000000000000000e+00 -1.1633394887744364e+03 9.3141037810324397e+03 0.0000000000000000e+00 0.0000000000000000e+00 0.0000000000000000e+00 0.0000000000000000e+00  -5.6993311445709087e+03 -6.3171816197127819e+03 0.0000000000000000e+00 -6.3171816197127737e+03 -7.8250144848271220e+03 0.0000000000000000e+00 0.0000000000000000e+00 0.0000000000000000e+00 0.0000000000000000e+00  9.8179589034604385e+02 -1.1085696930011823e+03 0.0000000000000000e+00 -1.1085696930011807e+03 1.3514945594596207e+04 0.0000000000000000e+00 0.0000000000000000e+00 0.0000000000000000e+00 0.0000000000000000e+00  -1.0679270001945335e+04 -8.8479052803509530e+03 0.0000000000000000e+00 -8.8479052803509530e+03 -1.7417024750289274e+04 0.0000000000000000e+00 0.0000000000000000e+00 0.0000000000000000e+00 0.0000000000000000e+00  -1.5064460145830385e+03 1.6583835907478064e+02 0.0000000000000000e+00 1.6583835907477115e+02 8.3614756804403551e+03 0.0000000000000000e+00 0.0000000000000000e+00 0.0000000000000000e+00 0.0000000000000000e+00  -5.5940036147596957e+03 5.9191242304957359e+03 0.0000000000000000e+00 5.9191242304957441e+03 -4.5544278548404573e+03 0.0000000000000000e+00 0.0000000000000000e+00 0.0000000000000000e+00 0.0000000000000000e+00  -9.4066701916933307e+03 6.0357591134535160e+03 0.0000000000000000e+00 6.0357591134535087e+03 -1.1280183946545956e+04 0.0000000000000000e+00 0.0000000000000000e+00 0.0000000000000000e+00 0.0000000000000000e+00  -6.4746694685440798e+03 -6.0879650033111839e+03 0.0000000000000000e+00 -6.0879650033111866e+03 -5.3642322847014302e+03 0.0000000000000000e+00 0.0000000000000000e+00 0.0000000000000000e+00 0.0000000000000000e+00  -3.5731055908530857e+03 6.0724502692813958e+03 0.0000000000000000e+00 6.0724502692814021e+03 -1.7697111399743403e+03 0.0000000000000000e+00 0.0000000000000000e+00 0.0000000000000000e+00 0.0000000000000000e+00  -7.9743818375144838e+03 -6.2731937126899338e+03 0.0000000000000000e+00 -6.2731937126899302e+03 -1.0126278379886016e+04 0.0000000000000000e+00 0.0000000000000000e+00 0.0000000000000000e+00 0.0000000000000000e+00  -1.4917171825207138e+03 -1.3533717852445807e+03 0.0000000000000000e+00 -1.3533717852445782e+03 -1.1322808667994670e+03 0.0000000000000000e+00 0.0000000000000000e+00 0.0000000000000000e+00 0.0000000000000000e+00  -4.4820179607608579e+03 -6.1253686555484755e+03 0.0000000000000000e+00 -6.1253686555484783e+03 -2.1662241217948113e+03 0.0000000000000000e+00 0.0000000000000000e+00 0.0000000000000000e+00 0.0000000000000000e+00  1.3558055358099509e+03 1.0142990619986290e+03 0.0000000000000000e+00 1.0142990619986273e+03