<?xml version="1.0"?>
<VTKFile type="UnstructuredGrid"  version="0.1"  >
<UnstructuredGrid>
<Piece  NumberOfPoints="4855" NumberOfCells="8780">
<Points>
<DataArray  type="Float64"  NumberOfComponents="3"  format="ascii">0.9483880164242298 0.6836931311526558 0  0.9494264999197789 0.6847056440044139 0  0.9494005292759887 0.6847228078606633 0  0.9735520289385229 0.7444444444444445 0  0.9494005292759886 0.8041660810282256 0  0.94942649991978 0.8041832448844759 0  0.9483880175070514 0.8051957566534116 0  3.131175874138137e-16 0.09811450876034808 0  0.06838800723463068 0.1543033514199101 0  0.05161198249294494 0.1948042433465922 0  0.0505735000802211 0.1958167551155251 0  0.05059947072401128 0.1958339189717744 0  0.0505994707240113 0.3152771921393367 0  0.05057350008021998 0.315294355995587 0  0.05161198357913653 0.3163068688507105 0  0.06838800723463068 0.356807759691201 0  3.252606517456513e-16 0.4129966023507631 0  -1.795438797635995e-16 0.4839416311832997 0  0.07083274769489223 0.4605116403870998 0  0.07084991155114129 0.4605376110308903 0  0.07186242331670639 0.4594991286215342 0  0.1696402113702762 0.5 0  0.07186242332008326 0.5405008713818427 0  0.0708499115511413 0.5394623889691096 0  0.07083274769489219 0.5394883596129002 0  -1.925543058334256e-16 0.5160583688167003 0  1.484923295436147e-15 0.5870033976492365 0  0.06838800723463068 0.643192240308799 0  0.05161198249294541 0.6836931322354806 0  0.05057350008022109 0.6847056440044139 0  0.0505994707240113 0.6847228078606633 0  0.0505994707240113 0.8041660810282256 0  0.05057350008021999 0.804183244884476 0  0.05161198249294764 0.8051957566534106 0  0.06838800723463068 0.84569664858009 0  1.485790657174135e-15 0.9018854912396524 0  0 1 0  1 1 0  0.9999999999999987 0.9018854912396523 0  1.000000000000001 0.5870033976492375 0  1 0.5160583688167003 0  0.9291672523051078 0.5394883596129003 0  0.9291500884488585 0.5394623889691117 0  0.9281375755937461 0.5405008724680134 0  0.9281375755937372 0.4594991275319777 0  0.9291500884488586 0.4605376110308884 0  0.9291672523051077 0.4605116403870997 0  1 0.4839416311832997 0  0.9999999999999987 0.4129966023507635 0  0.948388017507054 0.31630686776452 0  0.94942649991978 0.3152943559955871 0  0.9494005292759886 0.3152771921393367 0  0.9735520289385229 0.2555555555555555 0  0.9494005292759888 0.1958339189717744 0  0.9494264999197789 0.1958167551155251 0  0.9483880164208631 0.1948042422604003 0  1.000000000000001 0.09811450876034861 0  1 0 0  0 0 0  0.1958339189717744 0.2950439151684559 0  0.1958167551155252 0.2950179445246672 0  0.3152771921393367 0.2950439151684557 0  0.1948042433481841 0.2960564269357975 0  0.3152943559955858 0.2950179445246651 0  0.1948042422604031 0.2150546830875326 0  0.3163068677645244 0.2960564269373949 0  0.1958167551155251 0.2160931665864439 0  0.4140846558147206 0.2555555555555555 0  0.1958339189717744 0.2160671959426553 0  0.3163068688489276 0.215054683089313 0  0.3152771921393367 0.2160671959426553 0  0.3152943559955858 0.2160931665864459 0  0.5405008724680257 0.3163068688507107 0  0.5572768961235196 0.356807759691201 0  0.5394623889691089 0.3152943559955871 0  0.459499128618165 0.3163068677645201 0  0.5394883596129003 0.3152771921393367 0  0.4605376110308911 0.3152943559955871 0  0.5394883596129001 0.1958339189717744 0  0.4605116403870998 0.3152771921393367 0  0.53946238896911 0.1958167551155251 0  0.4846631400496339 0.2555555555555555 0  0.5405008724680251 0.1948042422604009 0  0.4605116403870998 0.1958339189717744 0  0.5572768961235196 0.1543033514199101 0  0.46053761103089 0.1958167551155251 0  0.4594991286269881 0.1948042433554141 0  0.6847228078606633 0.2950439151684559 0  0.684705644004414 0.2950179445246672 0  0.8041660810282256 0.2950439151684557 0  0.683693131164073 0.2960564280087975 0  0.8041832448844747 0.2950179445246651 0  0.6836931322354718 0.2150546841737125 0  0.8051957566534156 0.2960564269373971 0  0.6847056440044141 0.2160931665864439 0  0.9029735447036096 0.2555555555555555 0  0.6847228078606632 0.2160671959426553 0  0.8051957577274008 0.2150546830997286 0  0.8041660810282256 0.2160671959426553 0  0.8041832448844747 0.2160931665864459 0  0.2960564280235811 0.560751313295155 0  0.3128324516790751 0.6012522041356455 0  0.2950179445246645 0.5597388004400315 0  0.2150546830875235 0.5607513132951615 0  0.2950439151684557 0.5597216365837812 0  0.2160931665864466 0.5597388004400314 0  0.2950439151684558 0.4402783634162188 0  0.2160671959426553 0.5597216365837812 0  0.2950179445246656 0.4402611995599696 0  0.2402186956051895 0.5 0  0.29605642693739 0.439248687791036 0  0.2160671959426553 0.4402783634162189 0  0.3128324516790751 0.3987477958643545 0  0.2160931665864455 0.4402611995599696 0  0.2150546830875296 0.4392486867048446 0  0.1958339189717743 0.7839328040573448 0  0.1958167551155252 0.7839068334135562 0  0.3152771921393367 0.7839328040573447 0  0.1948042422604028 0.7849453169124678 0  0.3152943559955858 0.783906833413554 0  0.1948042433465913 0.7039435730626098 0  0.3163068677645284 0.7849453158262878 0  0.1958167551155251 0.7049820554753328 0  0.4140846558147206 0.7444444444444445 0  0.1958339189717744 0.7049560848315441 0  0.3163068688486237 0.7039435719785058 0  0.3152771921393367 0.7049560848315441 0  0.3152943559955858 0.7049820554753349 0  0.4402783634162188 0.5394883596129003 0  0.4402611995599696 0.5394623889691117 0  0.5597216365837812 0.5394883596129002 0  0.4392486867048468 0.5405008724680237 0  0.5597388004400302 0.5394623889691096 0  0.4392486877998708 0.4594991286270004 0  0.5607513122089726 0.540500871381843 0  0.4402611995599696 0.4605376110308884 0  0.6585291002591651 0.5 0  0.4402783634162188 0.4605116403870998 0  0.5607513121946796 0.45949912863245 0  0.5597216365837812 0.4605116403870998 0  0.5597388004400302 0.4605376110308904 0  0.78494531690701 0.5607513132896949 0  0.8017213405679641 0.6012522041356455 0  0.7839068334135535 0.5597388004400315 0  0.7039435730626069 0.5607513122089671 0  0.7839328040573448 0.5597216365837812 0  0.7049820554753355 0.5597388004400314 0  0.7839328040573448 0.4402783634162188 0  0.7049560848315441 0.5597216365837812 0  0.7839068334135545 0.4402611995599696 0  0.7291075844940784 0.5 0  0.784945315826279 0.4392486877910359 0  0.7049560848315444 0.4402783634162188 0  0.8017213405679641 0.3987477958643545 0  0.7049820554753344 0.4402611995599696 0  0.7039435719764182 0.4392486867048443 0  0.5405008724625655 0.8051957577341393 0  0.5572768961235196 0.84569664858009 0  0.539462388969109 0.804183244884476 0  0.4594991286181648 0.8051957566534091 0  0.5394883596129003 0.8041660810282256 0  0.4605376110308911 0.804183244884476 0  0.5394883596129003 0.6847228078606633 0  0.4605116403870998 0.8041660810282256 0  0.53946238896911 0.6847056440044139 0  0.4846631400496339 0.7444444444444445 0  0.5405008713818347 0.6836931322354802 0  0.4605116403870998 0.6847228078606633 0  0.5572768961235196 0.643192240308799 0  0.46053761103089 0.6847056440044139 0  0.4594991275353449 0.6836931311526599 0  0.6847228078606633 0.7839328040573448 0  0.684705644004414 0.7839068334135562 0  0.8041660810282256 0.7839328040573447 0  0.6836931311493016 0.7849453169124578 0  0.8041832448844747 0.783906833413554 0  0.68369313223548 0.7039435730626096 0  0.805195756653417 0.7849453158262875 0  0.6847056440044141 0.7049820554753328 0  0.9029735447036096 0.7444444444444445 0  0.6847228078606633 0.7049560848315441 0  0.805195757738809 0.7039435719772094 0  0.8041660810282256 0.7049560848315441 0  0.8041832448844747 0.7049820554753349 0  0.9578164230213342 0.6948838683471341 0  0.9645772892192558 0.7062137009141434 0  0.9695236884064815 0.7184451175460498 0  0.972538971146615 0.7312896684428197 0  0.9725389711466151 0.7575992204460691 0  0.9695236884064815 0.7704437713428391 0  0.9645772892192558 0.7826751879747456 0  0.9578164230213342 0.7940050205417549 0  0.01437766570919127 0.09711967848259151 0  0.02854851642641832 0.09974531144948819 0  0.04161535472570586 0.1058251712658871 0  0.05275088139110013 0.1149743244732108 0  0.06125007411586489 0.1266135117968212 0  0.06657482449792251 0.1400058227212122 0  0.06643634307317195 0.1691277076584997 0  0.06071435336153361 0.1829418078690686 0  0.04134737123322858 0.3039103077764334 0  0.03416190609801732 0.2911362521989113 0  0.02925217947541549 0.2773267630846004 0  0.02676106927623143 0.2628837102534819 0  0.02676106927623143 0.2482274008576293 0  0.02925217947541547 0.2337843480265108 0  0.03416190609801727 0.2199748589121999 0  0.04134737123322851 0.2072008033346779 0  0.06071435387356935 0.328169304128914 0  0.06643634320569657 0.3419834039471998 0  0.06657482449792249 0.371105288389899 0  0.06125007411586481 0.3844975993142901 0  0.05275088139109994 0.3961367866379005 0  0.04161535472570563 0.4052859398452242 0  0.02854851642641818 0.411365799661623 0  0.01437766570919127 0.4139914326285196 0  0 0.4697526254167924 0  0 0.455563619650285 0  0 0.4413746138837777 0  0 0.4271856081172704 0  0.06095233986089402 0.4687284952262988 0  0.04995687430503332 0.4753797281664747 0  0.03809234373417287 0.4803165365228644 0  0.02562418374773841 0.4834284730529493 0  0.01283133446055119 0.4846459169037758 0  0.08372485599813187 0.4503967593658507 0  0.09753895276796982 0.4446747697099958 0  0.1123633055586467 0.4427231038764812 0  0.1271876590095525 0.4446747646950606 0  0.1410017577150834 0.45039674967774 0  0.1528641934757506 0.4594991149204779 0  0.161966560724962 0.471361549141524 0  0.1676885480442292 0.4851756468792086 0  0.1676885480443665 0.514824353120279 0  0.1619665607254926 0.528638450857557 0  0.1528641934768762 0.5405008850783964 0  0.1410017577169217 0.5496032503211987 0  0.1271876590121153 0.5553252353042526 0  0.1123633055618306 0.5572768961235188 0  0.09753895277155772 0.5553252302909656 0  0.08372485600180817 0.5496032406362719 0  0.0128313344605512 0.5153540830962242 0  0.0256241837477384 0.5165715269470507 0  0.03809234373417282 0.5196834634771356 0  0.04995687430503334 0.5246202718335253 0  0.06095233986089401
[...]
<PointData  Tensors="$\sigma$"> 
<DataArray  type="Float64"  Name="$\sigma$"  NumberOfComponents="9" format="ascii">-9.0656792622983789e+02 -9.5840630548307672e+02 0.0000000000000000e+00 -9.5840630548307672e+02 -8.1286681438298660e+02 0.0000000000000000e+00 0.0000000000000000e+00 0.0000000000000000e+00 0.0000000000000000e+00  -1.5586817156938487e+03 -1.2959813823910613e+03 0.0000000000000000e+00 -1.2959813823910613e+03 -1.3794032566449698e+03 0.0000000000000000e+00 0.0000000000000000e+00 0.0000000000000000e+00 0.0000000000000000e+00  -6.7251078270022288e+02 -1.0241176752196245e+03 0.0000000000000000e+00 -1.0241176752196245e+03 -1.1469533092590068e+03 0.0000000000000000e+00 0.0000000000000000e+00 0.0000000000000000e+00 0.0000000000000000e+00  7.6836861923819868e+01 2.3572281557686939e+01 0.0000000000000000e+00 2.3572281557686939e+01 -1.6641510555571790e+03 0.0000000000000000e+00 0.0000000000000000e+00 0.0000000000000000e+00 0.0000000000000000e+00  -6.1901709331038830e+02 8.2013536763192030e+02 0.0000000000000000e+00 8.2013536763192030e+02 -9.3134779872675574e+02 0.0000000000000000e+00 0.0000000000000000e+00 0.0000000000000000e+00 0.0000000000000000e+00  -1.1743346863951624e+03 1.0907918233522862e+03 0.0000000000000000e+00 1.0907918233522862e+03 -1.2612786027281647e+03 0.0000000000000000e+00 0.0000000000000000e+00 0.0000000000000000e+00 0.0000000000000000e+00  -6.9994520358537966e+02 6.6495206617433951e+02 0.0000000000000000e+00 6.6495206617433951e+02 -4.0952210656114579e+02 0.0000000000000000e+00 0.0000000000000000e+00 0.0000000000000000e+00 0.0000000000000000e+00  -1.0485050395627198e+01 -2.9282838946964840e+00 0.0000000000000000e+00 -2.9282838946964840e+00 -9.2847638126800991e+00 0.0000000000000000e+00 0.0000000000000000e+00 0.0000000000000000e+00 0.0000000000000000e+00  5.3256380612038910e+01 3.1546253698608265e+01 0.0000000000000000e+00 3.1546253698608265e+01 2.0712886081162237e+03 0.0000000000000000e+00 0.0000000000000000e+00 0.0000000000000000e+00 0.0000000000000000e+00  -6.8312991720171522e+02 6.6965026383543727e+02 0.0000000000000000e+00 6.6965026383543727e+02 -4.5548744191637627e+02 0.0000000000000000e+00 0.0000000000000000e+00 0.0000000000000000e+00 0.0000000000000000e+00  -1.1861098308494784e+03 1.0492003325175926e+03 0.0000000000000000e+00 1.0492003325175926e+03 -1.2154378713368092e+03 0.0000000000000000e+00 0.0000000000000000e+00 0.0000000000000000e+00 0.0000000000000000e+00  -5.6222913583804609e+02 8.0812652801223817e+02 0.0000000000000000e+00 8.0812652801223817e+02 -8.8402072768166511e+02 0.0000000000000000e+00 0.0000000000000000e+00 0.0000000000000000e+00 0.0000000000000000e+00  -6.5694679515911719e+02 -9.4202397344310202e+02 0.0000000000000000e+00 -9.4202397344310202e+02 -1.0699811658726437e+03 0.0000000000000000e+00 0.0000000000000000e+00 0.0000000000000000e+00 0.0000000000000000e+00  -1.5204715359915363e+03 -1.2582841421753149e+03 0.0000000000000000e+00 -1.2582841421753149e+03 -1.3204487534996717e+03 0.0000000000000000e+00 0.0000000000000000e+00 0.0000000000000000e+00 0.0000000000000000e+00  -8.4509125140943490e+02 -9.6332551219173718e+02 0.0000000000000000e+00 -9.6332551219173718e+02 -8.3471103491016515e+02 0.0000000000000000e+00 0.0000000000000000e+00 0.0000000000000000e+00 0.0000000000000000e+00  3.1062047725401474e+01 -8.5742926104755739e+00 0.0000000000000000e+00 -8.5742926104755739e+00 7.8770834053428234e+02 0.0000000000000000e+00 0.0000000000000000e+00 0.0000000000000000e+00 0.0000000000000000e+00  1.3099514885957689e-01 -1.7410642873248974e-01 0.0000000000000000e+00 -1.7410642873248974e-01 -1.0232135971539935e+00 0.0000000000000000e+00 0.0000000000000000e+00 0.0000000000000000e+00 0.0000000000000000e+00  -4.0053325170776921e-02 4.6311318192417461e-02 0.0000000000000000e+00 4.6311318192417468e-02 5.2791715448115527e-02 0.0000000000000000e+00 0.0000000000000000e+00 0.0000000000000000e+00 0.0000000000000000e+00  -1.2221402503933781e+01 8.5186677141171572e+00 0.0000000000000000e+00 8.5186677141171572e+00 -4.0335232589034522e+00 0.0000000000000000e+00 0.0000000000000000e+00 0.0000000000000000e+00 0.0000000000000000e+00  -1.7487477465926485e-01 5.6914995249038132e+00 0.0000000000000000e+00 5.6914995249038132e+00 -1.5229093680372902e+01 0.0000000000000000e+00 0.0000000000000000e+00 0.0000000000000000e+00 0.0000000000000000e+00  -3.0003831029262983e+01 2.8318916448748265e+01 0.0000000000000000e+00 2.8318916448748265e+01 -2.0715216930479283e+01 0.0000000000000000e+00 0.0000000000000000e+00 0.0000000000000000e+00 0.0000000000000000e+00  6.1993844780650795e+02 8.2154752356338349e+01 0.0000000000000000e+00 8.2154752356338349e+01 9.0745168065249563e+03 0.0000000000000000e+00 0.0000000000000000e+00 0.0000000000000000e+00 0.0000000000000000e+00  -2.8694628099459202e+01 -3.5189447126955024e+01 0.0000000000000000e+00 -3.5189447126955024e+01 -2.0931087020439744e+01 0.0000000000000000e+00 0.0000000000000000e+00 0.0000000000000000e+00 0.0000000000000000e+00  5.6286482468059906e-01 1.3518313740948509e+00 0.0000000000000000e+00 1.3518313740948509e+00 -1.3467422759744675e+01 0.0000000000000000e+00 0.0000000000000000e+00 0.0000000000000000e+00 0.0000000000000000e+00  -1.2016578621322390e+01 -8.0564330504355723e+00 0.0000000000000000e+00 -8.0564330504355723e+00 -2.2506650987072172e+00 0.0000000000000000e+00 0.0000000000000000e+00 0.0000000000000000e+00 0.0000000000000000e+00  -6.0341290248031761e-02 -7.0647886845872476e-02 0.0000000000000000e+00 -7.0647886845872546e-02 4.3165957780872677e-02 0.0000000000000000e+00 0.0000000000000000e+00 0.0000000000000000e+00 0.0000000000000000e+00  4.6573995482060643e-01 -2.4267838557535881e-01 0.0000000000000000e+00 -2.4267838557535909e-01 -4.3046202661173122e-01 0.0000000000000000e+00 0.0000000000000000e+00 0.0000000000000000e+00 0.0000000000000000e+00  2.4014402714387092e+01 -1.3086130963427241e+01 0.0000000000000000e+00 -1.3086130963427241e+01 7.9227357056936501e+02 0.0000000000000000e+00 0.0000000000000000e+00 0.0000000000000000e+00 0.0000000000000000e+00  -8.2459274557978233e+02 9.6071950133769087e+02 0.0000000000000000e+00 9.6071950133769087e+02 -8.2821808308908635e+02 0.0000000000000000e+00 0.0000000000000000e+00 0.0000000000000000e+00 0.0000000000000000e+00  -1.4854915992066788e+03 1.1622844258559633e+03 0.0000000000000000e+00 1.1622844258559633e+03 -1.1204075636647174e+03 0.0000000000000000e+00 0.0000000000000000e+00 0.0000000000000000e+00 0.0000000000000000e+00  -5.9326677863667010e+02 9.3095036472290758e+02 0.0000000000000000e+00 9.3095036472290758e+02 -1.1955448676986741e+03 0.0000000000000000e+00 0.0000000000000000e+00 0.0000000000000000e+00 0.0000000000000000e+00  -5.5754592957963871e+02 -8.1080965144996674e+02 0.0000000000000000e+00 -8.1080965144996685e+02 -8.9088728113969637e+02 0.0000000000000000e+00 0.0000000000000000e+00 0.0000000000000000e+00 0.0000000000000000e+00  -1.1673944861102120e+03 -1.0223753319132987e+03 0.0000000000000000e+00 -1.0223753319132984e+03 -1.2071135085013916e+03 0.0000000000000000e+00 0.0000000000000000e+00 0.0000000000000000e+00 0.0000000000000000e+00  -6.8224749340758626e+02 -6.6990078307279600e+02 0.0000000000000000e+00 -6.6990078307279657e+02 -4.2427268243445428e+02 0.0000000000000000e+00 0.0000000000000000e+00 0.0000000000000000e+00 0.0000000000000000e+00  1.3773654075867861e+02 -7.1497016918867615e+01 0.0000000000000000e+00 -7.1497016918867615e+01 1.9042674727692565e+03 0.0000000000000000e+00 0.0000000000000000e+00 0.0000000000000000e+00 0.0000000000000000e+00  -1.2982752963191366e+01 1.0971004740999534e+01 0.0000000000000000e+00 1.0971004740999534e+01 -7.1282668350542933e+00 0.0000000000000000e+00 0.0000000000000000e+00 0.0000000000000000e+00 0.0000000000000000e+00  -8.1501230719699280e-01 1.9803646195435336e+00 0.0000000000000000e+00 1.9803646195435336e+00 1.4207120700055350e+02 0.0000000000000000e+00 0.0000000000000000e+00 0.0000000000000000e+00 0.0000000000000000e+00  -7.8655314231411644e-01 -1.6985656926301966e+00 0.0000000000000000e+00 -1.6985656926301966e+00 1.4417378665875580e+02 0.0000000000000000e+00 0.0000000000000000e+00 0.0000000000000000e+00 0.0000000000000000e+00  -9.7786811926241963e+00 -2.7284358086621672e+00 0.0000000000000000e+00 -2.7284358086621672e+00 -1.0109045652958873e+01 0.0000000000000000e+00 0.0000000000000000e+00 0.0000000000000000e+00 0.0000000000000000e+00  1.2088962503583521e-01 -1.6175773476062277e-01 0.0000000000000000e+00 -1.6175773476062266e-01 -1.0744909135205054e+00 0.0000000000000000e+00 0.0000000000000000e+00 0.0000000000000000e+00 0.0000000000000000e+00  -5.9186106283893716e-02 4.6330934362942999e-02 0.0000000000000000e+00 4.6330934362943048e-02 3.6394802231693030e-02 0.0000000000000000e+00 0.0000000000000000e+00 0.0000000000000000e+00 0.0000000000000000e+00  -1.7194677909357591e+01 1.2948732756258671e+01 0.0000000000000000e+00 1.2948732756258673e+01 -6.1570605235568463e+00 0.0000000000000000e+00 0.0000000000000000e+00 0.0000000000000000e+00 0.0000000000000000e+00  -1.2476383969027566e+01 9.9918230967652359e+00 0.0000000000000000e+00 9.9918230967652359e+00 -1.6692967741238750e+01 0.0000000000000000e+00 0.0000000000000000e+00 0.0000000000000000e+00 0.0000000000000000e+00  -1.8014742599559654e+01 2.6687243301487683e+01 0.0000000000000000e+00 2.6687243301487683e+01 -2.3630184399382841e+01 0.0000000000000000e+00 0.0000000000000000e+00 0.0000000000000000e+00 0.0000000000000000e+00  -2.7088879238752337e+01 -3.1565899693066239e+01 0.0000000000000000e+00 -3.1565899693066250e+01 -2.1401555199037517e+01 0.0000000000000000e+00 0.0000000000000000e+00 0.0000000000000000e+00 0.0000000000000000e+00  -5.0762645745110664e+00 -8.6194302639298108e+00 0.0000000000000000e+00 -8.6194302639298019e+00 -1.9699740028515915e+01 0.0000000000000000e+00 0.0000000000000000e+00 0.0000000000000000e+00 0.0000000000000000e+00  -1.3898363378946648e+01 -6.2583860953713604e+00 0.0000000000000000e+00 -6.2583860953713630e+00 -1.7708786152483404e+00 0.0000000000000000e+00 0.0000000000000000e+00 0.0000000000000000e+00 0.0000000000000000e+00  6.1249098969143679e-03 -5.2755955152737087e-02 0.0000000000000000e+00 -5.2755955152737115e-02 6.0062576792861970e-02 0.0000000000000000e+00 0.0000000000000000e+00 0.0000000000000000e+00 0.0000000000000000e+00  -6.3265335868426109e-01 -2.7319507831544187e-01 0.0000000000000000e+00 -2.7319507831544187e-01 -1.8423879625684200e-01 0.0000000000000000e+00 0.0000000000000000e+00 0.0000000000000000e+00 0.0000000000000000e+00  -8.9931253312428134e+02 9.1820811911872352e+02 0.0000000000000000e+00 9.1820811911872352e+02 -7.1732798205832160e+02 0.0000000000000000e+00 0.0000000000000000e+00 0.0000000000000000e+00 0.0000000000000000e+00  -1.4613693558769876e+03 1.2536791143299081e+03 0.0000000000000000e+00 1.2536791143299081e+03 -1.3400535786605346e+03 0.0000000000000000e+00 0.0000000000000000e+00 0.0000000000000000e+00 0.0000000000000000e+00  -6.7553310908868900e+02 9.9391922069350755e+02 0.0000000000000000e+00 9.9391922069350755e+02 -1.1671163175557183e+03 0.0000000000000000e+00 0.0000000000000000e+00 0.0000000000000000e+00 0.0000000000000000e+00  7.1638619941035572e+01 1.8167343055040508e+01 0.0000000000000000e+00 1.8167343055040508e+01 -1.6645393144565605e+03 0.0000000000000000e+00 0.0000000000000000e+00 0.0000000000000000e+00 0.0000000000000000e+00  -5.6040763453423597e+02 -8.4956838056362051e+02 0.0000000000000000e+00 -8.4956838056362051e+02 -9.1811984224620596e+02 0.0000000000000000e+00 0.0000000000000000e+00 0.0000000000000000e+00 0.0000000000000000e+00  -1.3014543622577974e+03 -1.1497901475376138e+03 0.0000000000000000e+00 -1.1497901475376138e+03 -1.2817370677392441e+03 0.0000000000000000e+00 0.0000000000000000e+00 0.0000000000000000e+00 0.0000000000000000e+00  -6.8892481664136847e+02 -6.5143267822663222e+02 0.0000000000000000e+00 -6.5143267822663222e+02 -4.9335426933018573e+02 0.0000000000000000e+00 0.0000000000000000e+00 0.0000000000000000e+00 0.0000000000000000e+00  -1.5087112709321241e+01 9.4672898787169810e+00 0.0000000000000000e+00 9.4672898787169864e+00 -1.2550240546879621e+00 0.0000000000000000e+00 0.0000000000000000e+00 0.0000000000000000e+00 0.0000000000000000e+00  -1.2354981576287163e+00 1.5117010936139408e+00 0.0000000000000000e+00 1.5117010936139432e+00 1.4486802861711988e+02 0.0000000000000000e+00 0.0000000000000000e+00 0.0000000000000000e+00 0.0000000000000000e+00  4.5276883909985699e+01 3.4163460552181597e+01 0.0000000000000000e+00 3.4163460552181597e+01 1.7424403929851781e+02 0.0000000000000000e+00 0.0000000000000000e+00 0.0000000000000000e+00 0.0000000000000000e+00  -2.1915423942726529e+03 1.7390224905633631e+03 0.0000000000000000e+00 1.7390224905633631e+03 -1.2090849686236584e+03 0.0000000000000000e+00 0.0000000000000000e+00 0.0000000000000000e+00 0.0000000000000000e+00  -1.4841340867755937e+03 2.0528593155165754e+03 0.0000000000000000e+00 2.0528593155165754e+03 -2.8306738154130762e+03 0.0000000000000000e+00 0.0000000000000000e+00 0.0000000000000000e+00 0.0000000000000000e+00  -1.6160949232638975e+03 -1.3091624247507946e+03 0.0000000000000000e+00 -1.3091624247507946e+03 -8.8103787699017414e+02 0.0000000000000000e+00 0.0000000000000000e+00 0.0000000000000000e+00 0.0000000000000000e+00  -2.6753991648865544e+03 2.3065410279631383e+03 0.0000000000000000e+00 2.3065410279631383e+03 -1.7206731740694725e+03 0.0000000000000000e+00 0.0000000000000000e+00 0.0000000000000000e+00 0.0000000000000000e+00  -1.1641202229452115e+03 -1.4173362001723831e+03 0.0000000000000000e+00 -1.4173362001723831e+03 -1.9846310071468279e+03 0.0000000000000000e+00 0.0000000000000000e+00 0.0000000000000000e+00 0.0000000000000000e+00  -3.6897786474837250e+02 -3.0956324090886937e+02 0.0000000000000000e+00 -3.0956324090886937e+02 -2.3362481568241546e+02 0.0000000000000000e+00 0.0000000000000000e+00 0.0000000000000000e+00 0.0000000000000000e+00  -1.7583678941418173e+03 -1.6652952736895334e+03 0.0000000000000000e+00 -1.6652952736895334e+03 -1.2788470321073628e+03 0.0000000000000000e+00 0.0000000000000000e+00 0.0000000000000000e+00 0.0000000000000000e+00  -1.4584337984881549e+02 -1.8311748424356045e+02 0.0000000000000000e+00 -1.8311748424356045e+02 -2.6653926436377498e+02 0.0000000000000000e+00 0.0000000000000000e+00 0.0000000000000000e+00 0.0000000000000000e+00  6.3217852376154281e+02 -5.8752126027069687e+02 0.0000000000000000e+00 -5.8752126027069687e+02 7.2533499348423247e+03 0.0000000000000000e+00 0.0000000000000000e+00 0.0000000000000000e+00 0.0000000000000000e+00  -1.6164603483684769e+02 -1.7090963809836285e+02 0.0000000000000000e+00 -1.7090963809836285e+02 -1.2873351036603978e+02 0.0000000000000000e+00 0.0000000000000000e+00 0.0000000000000000e+00 0.0000000000000000e+00  -5.1745805787023392e+02 4.0231327976263498e+02 0.0000000000000000e+00 4.0231327976263498e+02 -2.4219149844009175e+02 0.0000000000000000e+00 0.0000000000000000e+00 0.0000000000000000e+00 0.0000000000000000e+00  -3.1955640577638627e+02 2.3297144755531494e+02 0.0000000000000000e+00 2.3297144755531494e+02 -1.5962651840712340e+02 0.0000000000000000e+00 0.0000000000000000e+00 0.0000000000000000e+00 0.0000000000000000e+00  5.9788179146861282e+01 1.0048518277807854e+02 0.0000000000000000e+00 1.0048518277807854e+02 -2.7738020778812233e+02 0.0000000000000000e+00 0.0000000000000000e+00 0.0000000000000000e+00 0.0000000000000000e+00  -1.3029135221039051e+03 -1.4939176272632940e+03 0.0000000000000000e+00 -1.4939176272632940e+03 -1.3050139973660828e+03 0.0000000000000000e+00 0.0000000000000000e+00 0.0000000000000000e+00 0.0000000000000000e+00  9.5403509235770301e+01 -2.2760570094052457e+02 0.0000000000000000e+00 -2.2760570094052457e+02 1.1525695692913509e+03 0.0000000000000000e+00 0.0000000000000000e+00 0.0000000000000000e+00 0.0000000000000000e+00  -2.0886256608648059e+03 -1.6413509208835292e+03 0.0000000000000000e+00 -1.6413509208835292e+03 -1.6703086956126676e+03 0.0000000000000000e+00 0.0000000000000000e+00 0.0000000000000000e+00 0.0000000000000000e+00  -1.2876427836446765e+03 1.5311331325881081e+03 0.0000000000000000e+00 1.5311331325881081e+03 -1.3784627808280441e+03 0.0000000000000000e+00 0.0000000000000000e+00 0.0000000000000000e+00 0.0000000000000000e+00  -8.9352528408887349e+02 -1.3740509878620521e+03 0.0000000000000000e+00 -1.3740509878620521e+03 -1.6275446166920669e+03 0.0000000000000000e+00 0.0000000000000000e+00 0.0000000000000000e+00 0.0000000000000000e+00  -2.0717381097666694e+03 1.6477319328171823e+03 0.0000000000000000e+00 1.6477319328171823e+03 -1.5779168766235978e+03 0.0000000000000000e+00 0.0000000000000000e+00 0.0000000000000000e+00 0.0000000000000000e+00  5.2026599355017815e+00 4.4562545652044776e+01 0.0000000000000000e+00 4.4562545652044783e+01 3.1095326647996306e+01 0.0000000000000000e+00 0.0000000000000000e+00 0.0000000000000000e+00 0.0000000000000000e+00  -9.8604106604341848e+02 1.3806441809041282e+03 0.0000000000000000e+00 1.3806441809041282e+03 -1.7278765895977306e+03 0.0000000000000000e+00 0.0000000000000000e+00 0.0000000000000000e+00 0.0000000000000000e+00  -1.5304109286240907e+02 5.0754465560091830e+02 0.0000000000000000e+00 5.0754465560091842e+02 -9.9889703312452468e+02 0.0000000000000000e+00 0.0000000000000000e+00 0.0000000000000000e+00 0.0000000000000000e+00  1.0340261232834145e+02 -3.2034648779346853e+01 0.0000000000000000e+00 -3.2034648779346909e+01 -1.6846423563379046e+03 0.0000000000000000e+00 0.0000000000000000e+00 0.0000000000000000e+00 0.0000000000000000e+00  3.5351638457904392e+02 -8.5810316438679661e+02 0.0000000000000000e+00 -8.5810316438679672e+02 1.3636839896401400e+03 0.0000000000000000e+00 0.0000000000000000e+00 0.0000000000000000e+00 0.0000000000000000e+00  -8.1855024259333646e+01 2.0508675665049925e+01 0.0000000000000000e+00 2.0508675665049925e+01 2.8478489634036299e+02 0.0000000000000000e+00 0.0000000000000000e+00 0.0000000000000000e+00 0.0000000000000000e+00  1.7143819453101997e+02 -1.2028039805947415e+02 0.0000000000000000e+00 -1.2028039805947415e+02 6.2705802913898215e+03 0.0000000000000000e+00 0.0000000000000000e+00 0.0000000000000000e+00 0.0000000000000000e+00  -4.2660344208502401e+01 -5.3300806860966156e+02 0.0000000000000000e+00 -5.3300806860966156e+02 -1.2444762053349370e+03 0.0000000000000000e+00 0.0000000000000000e+00 0.0000000000000000e+00 0.0000000000000000e+00  2.5629492028835818e+02 7.8120778446591703e+02 0.0000000000000000e+00 7.8120778446591703e+02 1.3789091760955193e+03 0.0000000000000000e+00 0.0000000000000000e+00 0.0000000000000000e+00 0.0000000000000000e+00  -1.6066701067752854e+03 1.2957888035401504e+03 0.0000000000000000e+00 1.2957888035401504e+03 -9.1400834312225425e+02 0.0000000000000000e+00 0.0000000000000000e+00 0.0000000000000000e+00 0.0000000000000000e+00  -1.2371637809046968e+03 1.5609115685436138e+03 0.0000000000000000e+00 1.5609115685436138e+03 -2.0787164896990562e+03 0.0000000000000000e+00 0.0000000000000000e+00 0.0000000000000000e+00 0.0000000000000000e+00  -2.2224930068039844e+03 -1.7449587220716733e+03 0.0000000000000000e+00 -1.7449587220716733e+03 -1.1250108144272142e+03 0.0000000000000000e+00 0.0000000000000000e+00 0.0000000000000000e+00 0.0000000000000000e+00  -1.8031120421016790e+03 1.6234047822710834e+03 0.0000000000000000e+00 1.6234047822710834e+03 -1.2530302135951210e+03 0.0000000000000000e+00 0.0000000000000000e+00 0.0000000000000000e+00 0.0000000000000000e+00  -1.4353660636570871e+03 -1.8676029162309530e+03 0.0000000000000000e+00 -1.8676029162309530e+03 -2.6824354843760957e+03 0.0000000000000000e+00 0.0000000000000000e+00 0.0000000000000000e+00 0.0000000000000000e+00  -5.6780122322258660e+02 -3.8660367284954776e+02 0.0000000000000000e+00 -3.8660367284954776e+02 -2.4735728245110704e+02 0.0000000000000000e+00 0.0000000000000000e+00 0.0000000000000000e+00 0.0000000000000000e+00  -2.5241580080804738e+03 -2.3505079889388312e+03 0.0000000000000000e+00 -2.3505079889388312e+03 -1.8068057809776769e+03 0.0000000000000000e+00 0.0000000000000000e+00 0.0000000000000000e+00 0.0000000000000000e+00  3.1059946967617279e+01 -1.7070748586076576e+02 0.0000000000000000e+00 -1.7070748586076576