<?xml version="1.0"?>
<VTKFile type="UnstructuredGrid"  version="0.1"  >
<UnstructuredGrid>
<Piece  NumberOfPoints="4855" NumberOfCells="8780">
<Points>
<DataArray  type="Float64"  NumberOfComponents="3"  format="ascii">0.9483880164242298 0.6836931311526558 0  0.9494264999197789 0.6847056440044139 0  0.9494005292759887 0.6847228078606633 0  0.9735520289385229 0.7444444444444445 0  0.9494005292759886 0.8041660810282256 0  0.94942649991978 0.8041832448844759 0  0.9483880175070514 0.8051957566534116 0  3.131175874138137e-16 0.09811450876034808 0  0.06838800723463068 0.1543033514199101 0  0.05161198249294494 0.1948042433465922 0  0.0505735000802211 0.1958167551155251 0  0.05059947072401128 0.1958339189717744 0  0.0505994707240113 0.3152771921393367 0  0.05057350008021998 0.315294355995587 0  0.05161198357913653 0.3163068688507105 0  0.06838800723463068 0.356807759691201 0  3.252606517456513e-16 0.4129966023507631 0  -1.795438797635995e-16 0.4839416311832997 0  0.07083274769489223 0.4605116403870998 0  0.07084991155114129 0.4605376110308903 0  0.07186242331670639 0.4594991286215342 0  0.1696402113702762 0.5 0  0.07186242332008326 0.5405008713818427 0  0.0708499115511413 0.5394623889691096 0  0.07083274769489219 0.5394883596129002 0  -1.925543058334256e-16 0.5160583688167003 0  1.484923295436147e-15 0.5870033976492365 0  0.06838800723463068 0.643192240308799 0  0.05161198249294541 0.6836931322354806 0  0.05057350008022109 0.6847056440044139 0  0.0505994707240113 0.6847228078606633 0  0.0505994707240113 0.8041660810282256 0  0.05057350008021999 0.804183244884476 0  0.05161198249294764 0.8051957566534106 0  0.06838800723463068 0.84569664858009 0  1.485790657174135e-15 0.9018854912396524 0  0 1 0  1 1 0  0.9999999999999987 0.9018854912396523 0  1.000000000000001 0.5870033976492375 0  1 0.5160583688167003 0  0.9291672523051078 0.5394883596129003 0  0.9291500884488585 0.5394623889691117 0  0.9281375755937461 0.5405008724680134 0  0.9281375755937372 0.4594991275319777 0  0.9291500884488586 0.4605376110308884 0  0.9291672523051077 0.4605116403870997 0  1 0.4839416311832997 0  0.9999999999999987 0.4129966023507635 0  0.948388017507054 0.31630686776452 0  0.94942649991978 0.3152943559955871 0  0.9494005292759886 0.3152771921393367 0  0.9735520289385229 0.2555555555555555 0  0.9494005292759888 0.1958339189717744 0  0.9494264999197789 0.1958167551155251 0  0.9483880164208631 0.1948042422604003 0  1.000000000000001 0.09811450876034861 0  1 0 0  0 0 0  0.1958339189717744 0.2950439151684559 0  0.1958167551155252 0.2950179445246672 0  0.3152771921393367 0.2950439151684557 0  0.1948042433481841 0.2960564269357975 0  0.3152943559955858 0.2950179445246651 0  0.1948042422604031 0.2150546830875326 0  0.3163068677645244 0.2960564269373949 0  0.1958167551155251 0.2160931665864439 0  0.4140846558147206 0.2555555555555555 0  0.1958339189717744 0.2160671959426553 0  0.3163068688489276 0.215054683089313 0  0.3152771921393367 0.2160671959426553 0  0.3152943559955858 0.2160931665864459 0  0.5405008724680257 0.3163068688507107 0  0.5572768961235196 0.356807759691201 0  0.5394623889691089 0.3152943559955871 0  0.459499128618165 0.3163068677645201 0  0.5394883596129003 0.3152771921393367 0  0.4605376110308911 0.3152943559955871 0  0.5394883596129001 0.1958339189717744 0  0.4605116403870998 0.3152771921393367 0  0.53946238896911 0.1958167551155251 0  0.4846631400496339 0.2555555555555555 0  0.5405008724680251 0.1948042422604009 0  0.4605116403870998 0.1958339189717744 0  0.5572768961235196 0.1543033514199101 0  0.46053761103089 0.1958167551155251 0  0.4594991286269881 0.1948042433554141 0  0.6847228078606633 0.2950439151684559 0  0.684705644004414 0.2950179445246672 0  0.8041660810282256 0.2950439151684557 0  0.683693131164073 0.2960564280087975 0  0.8041832448844747 0.2950179445246651 0  0.6836931322354718 0.2150546841737125 0  0.8051957566534156 0.2960564269373971 0  0.6847056440044141 0.2160931665864439 0  0.9029735447036096 0.2555555555555555 0  0.6847228078606632 0.2160671959426553 0  0.8051957577274008 0.2150546830997286 0  0.8041660810282256 0.2160671959426553 0  0.8041832448844747 0.2160931665864459 0  0.2960564280235811 0.560751313295155 0  0.3128324516790751 0.6012522041356455 0  0.2950179445246645 0.5597388004400315 0  0.2150546830875235 0.5607513132951615 0  0.2950439151684557 0.5597216365837812 0  0.2160931665864466 0.5597388004400314 0  0.2950439151684558 0.4402783634162188 0  0.2160671959426553 0.5597216365837812 0  0.2950179445246656 0.4402611995599696 0  0.2402186956051895 0.5 0  0.29605642693739 0.439248687791036 0  0.2160671959426553 0.4402783634162189 0  0.3128324516790751 0.3987477958643545 0  0.2160931665864455 0.4402611995599696 0  0.2150546830875296 0.4392486867048446 0  0.1958339189717743 0.7839328040573448 0  0.1958167551155252 0.7839068334135562 0  0.3152771921393367 0.7839328040573447 0  0.1948042422604028 0.7849453169124678 0  0.3152943559955858 0.783906833413554 0  0.1948042433465913 0.7039435730626098 0  0.3163068677645284 0.7849453158262878 0  0.1958167551155251 0.7049820554753328 0  0.4140846558147206 0.7444444444444445 0  0.1958339189717744 0.7049560848315441 0  0.3163068688486237 0.7039435719785058 0  0.3152771921393367 0.7049560848315441 0  0.3152943559955858 0.7049820554753349 0  0.4402783634162188 0.5394883596129003 0  0.4402611995599696 0.5394623889691117 0  0.5597216365837812 0.5394883596129002 0  0.4392486867048468 0.5405008724680237 0  0.5597388004400302 0.5394623889691096 0  0.4392486877998708 0.4594991286270004 0  0.5607513122089726 0.540500871381843 0  0.4402611995599696 0.4605376110308884 0  0.6585291002591651 0.5 0  0.4402783634162188 0.4605116403870998 0  0.5607513121946796 0.45949912863245 0  0.5597216365837812 0.4605116403870998 0  0.5597388004400302 0.4605376110308904 0  0.78494531690701 0.5607513132896949 0  0.8017213405679641 0.6012522041356455 0  0.7839068334135535 0.5597388004400315 0  0.7039435730626069 0.5607513122089671 0  0.7839328040573448 0.5597216365837812 0  0.7049820554753355 0.5597388004400314 0  0.7839328040573448 0.4402783634162188 0  0.7049560848315441 0.5597216365837812 0  0.7839068334135545 0.4402611995599696 0  0.7291075844940784 0.5 0  0.784945315826279 0.4392486877910359 0  0.7049560848315444 0.4402783634162188 0  0.8017213405679641 0.3987477958643545 0  0.7049820554753344 0.4402611995599696 0  0.7039435719764182 0.4392486867048443 0  0.5405008724625655 0.8051957577341393 0  0.5572768961235196 0.84569664858009 0  0.539462388969109 0.804183244884476 0  0.4594991286181648 0.8051957566534091 0  0.5394883596129003 0.8041660810282256 0  0.4605376110308911 0.804183244884476 0  0.5394883596129003 0.6847228078606633 0  0.4605116403870998 0.8041660810282256 0  0.53946238896911 0.6847056440044139 0  0.4846631400496339 0.7444444444444445 0  0.5405008713818347 0.6836931322354802 0  0.4605116403870998 0.6847228078606633 0  0.5572768961235196 0.643192240308799 0  0.46053761103089 0.6847056440044139 0  0.4594991275353449 0.6836931311526599 0  0.6847228078606633 0.7839328040573448 0  0.684705644004414 0.7839068334135562 0  0.8041660810282256 0.7839328040573447 0  0.6836931311493016 0.7849453169124578 0  0.8041832448844747 0.783906833413554 0  0.68369313223548 0.7039435730626096 0  0.805195756653417 0.7849453158262875 0  0.6847056440044141 0.7049820554753328 0  0.9029735447036096 0.7444444444444445 0  0.6847228078606633 0.7049560848315441 0  0.805195757738809 0.7039435719772094 0  0.8041660810282256 0.7049560848315441 0  0.8041832448844747 0.7049820554753349 0  0.9578164230213342 0.6948838683471341 0  0.9645772892192558 0.7062137009141434 0  0.9695236884064815 0.7184451175460498 0  0.972538971146615 0.7312896684428197 0  0.9725389711466151 0.7575992204460691 0  0.9695236884064815 0.7704437713428391 0  0.9645772892192558 0.7826751879747456 0  0.9578164230213342 0.7940050205417549 0  0.01437766570919127 0.09711967848259151 0  0.02854851642641832 0.09974531144948819 0  0.04161535472570586 0.1058251712658871 0  0.05275088139110013 0.1149743244732108 0  0.06125007411586489 0.1266135117968212 0  0.06657482449792251 0.1400058227212122 0  0.06643634307317195 0.1691277076584997 0  0.06071435336153361 0.1829418078690686 0  0.04134737123322858 0.3039103077764334 0  0.03416190609801732 0.2911362521989113 0  0.02925217947541549 0.2773267630846004 0  0.02676106927623143 0.2628837102534819 0  0.02676106927623143 0.2482274008576293 0  0.02925217947541547 0.2337843480265108 0  0.03416190609801727 0.2199748589121999 0  0.04134737123322851 0.2072008033346779 0  0.06071435387356935 0.328169304128914 0  0.06643634320569657 0.3419834039471998 0  0.06657482449792249 0.371105288389899 0  0.06125007411586481 0.3844975993142901 0  0.05275088139109994 0.3961367866379005 0  0.04161535472570563 0.4052859398452242 0  0.02854851642641818 0.411365799661623 0  0.01437766570919127 0.4139914326285196 0  0 0.4697526254167924 0  0 0.455563619650285 0  0 0.4413746138837777 0  0 0.4271856081172704 0  0.06095233986089402 0.4687284952262988 0  0.04995687430503332 0.4753797281664747 0  0.03809234373417287 0.4803165365228644 0  0.02562418374773841 0.4834284730529493 0  0.01283133446055119 0.4846459169037758 0  0.08372485599813187 0.4503967593658507 0  0.09753895276796982 0.4446747697099958 0  0.1123633055586467 0.4427231038764812 0  0.1271876590095525 0.4446747646950606 0  0.1410017577150834 0.45039674967774 0  0.1528641934757506 0.4594991149204779 0  0.161966560724962 0.471361549141524 0  0.1676885480442292 0.4851756468792086 0  0.1676885480443665 0.514824353120279 0  0.1619665607254926 0.528638450857557 0  0.1528641934768762 0.5405008850783964 0  0.1410017577169217 0.5496032503211987 0  0.1271876590121153 0.5553252353042526 0  0.1123633055618306 0.5572768961235188 0  0.09753895277155772 0.5553252302909656 0  0.08372485600180817 0.5496032406362719 0  0.0128313344605512 0.5153540830962242 0  0.0256241837477384 0.5165715269470507 0  0.03809234373417282 0.5196834634771356 0  0.04995687430503334 0.5246202718335253 0  0.06095233986089401
[...]
<PointData  Tensors="$\sigma$"> 
<DataArray  type="Float64"  Name="$\sigma$"  NumberOfComponents="9" format="ascii">-4.4976902103228877e+03 -5.8253846521037167e+03 0.0000000000000000e+00 -5.8253846521037240e+03 -5.6079167873484666e+03 0.0000000000000000e+00 0.0000000000000000e+00 0.0000000000000000e+00 0.0000000000000000e+00  -7.9020762241682669e+03 -6.1456324962822628e+03 0.0000000000000000e+00 -6.1456324962822564e+03 -6.5552182444033442e+03 0.0000000000000000e+00 0.0000000000000000e+00 0.0000000000000000e+00 0.0000000000000000e+00  -5.0826407936432997e+03 -5.9446730842832876e+03 0.0000000000000000e+00 -5.9446730842832858e+03 -6.1306360666129103e+03 0.0000000000000000e+00 0.0000000000000000e+00 0.0000000000000000e+00 0.0000000000000000e+00  1.2014851598996398e+02 -2.3699556295637603e+02 0.0000000000000000e+00 -2.3699556295637620e+02 -1.1600368576338909e+04 0.0000000000000000e+00 0.0000000000000000e+00 0.0000000000000000e+00 0.0000000000000000e+00  -5.4877292169866660e+03 6.0552188329468227e+03 0.0000000000000000e+00 6.0552188329468390e+03 -6.6716559526723950e+03 0.0000000000000000e+00 0.0000000000000000e+00 0.0000000000000000e+00 0.0000000000000000e+00  -7.9149507988569067e+03 5.8794778260153216e+03 0.0000000000000000e+00 5.8794778260153134e+03 -5.7243143631413777e+03 0.0000000000000000e+00 0.0000000000000000e+00 0.0000000000000000e+00 0.0000000000000000e+00  -3.7075015519668814e+03 5.5266983526079794e+03 0.0000000000000000e+00 5.5266983526079757e+03 -5.3684748669529063e+03 0.0000000000000000e+00 0.0000000000000000e+00 0.0000000000000000e+00 0.0000000000000000e+00  8.8486749899979941e+01 4.7913287851913635e+00 0.0000000000000000e+00 4.7913287851913537e+00 3.6648939720174525e+01 0.0000000000000000e+00 0.0000000000000000e+00 0.0000000000000000e+00 0.0000000000000000e+00  -5.8401025082213152e+01 7.2146698285538079e+01 0.0000000000000000e+00 7.2146698285536644e+01 8.3350592881846151e+03 0.0000000000000000e+00 0.0000000000000000e+00 0.0000000000000000e+00 0.0000000000000000e+00  -4.5165678588801002e+03 4.8597293417381825e+03 0.0000000000000000e+00 4.8597293417381798e+03 -6.7656002329576659e+03 0.0000000000000000e+00 0.0000000000000000e+00 0.0000000000000000e+00 0.0000000000000000e+00  -6.6473340930990607e+03 6.0539838486074495e+03 0.0000000000000000e+00 6.0539838486074595e+03 -3.7558803846601236e+03 0.0000000000000000e+00 0.0000000000000000e+00 0.0000000000000000e+00 0.0000000000000000e+00  -5.5590315705393887e+03 5.9675448772043701e+03 0.0000000000000000e+00 5.9675448772043892e+03 -6.8451968938408645e+03 0.0000000000000000e+00 0.0000000000000000e+00 0.0000000000000000e+00 0.0000000000000000e+00  -4.4775897701833674e+03 -6.0887018903425151e+03 0.0000000000000000e+00 -6.0887018903425114e+03 -5.0825605075362055e+03 0.0000000000000000e+00 0.0000000000000000e+00 0.0000000000000000e+00 0.0000000000000000e+00  -9.4323996512581507e+03 -6.1129809633377945e+03 0.0000000000000000e+00 -6.1129809633378018e+03 -8.2152698384592586e+03 0.0000000000000000e+00 0.0000000000000000e+00 0.0000000000000000e+00 0.0000000000000000e+00  -3.5559279044024152e+03 -5.8430463483558178e+03 0.0000000000000000e+00 -5.8430463483558087e+03 -4.9668106963999562e+03 0.0000000000000000e+00 0.0000000000000000e+00 0.0000000000000000e+00 0.0000000000000000e+00  3.5631281160670630e+02 5.3771206093403066e+01 0.0000000000000000e+00 5.3771206093403315e+01 9.9910072114665707e+02 0.0000000000000000e+00 0.0000000000000000e+00 0.0000000000000000e+00 0.0000000000000000e+00  8.1863470310304347e+00 5.8244700112497121e+00 0.0000000000000000e+00 5.8244700112497059e+00 -7.5967337256015943e+00 0.0000000000000000e+00 0.0000000000000000e+00 0.0000000000000000e+00 0.0000000000000000e+00  -6.7693879199529725e+00 1.6504005320503436e+00 0.0000000000000000e+00 1.6504005320503456e+00 3.9525039919282134e+00 0.0000000000000000e+00 0.0000000000000000e+00 0.0000000000000000e+00 0.0000000000000000e+00  -5.8051929004631745e+01 4.0897933252814298e+01 0.0000000000000000e+00 4.0897933252814283e+01 -2.3565238789225624e+01 0.0000000000000000e+00 0.0000000000000000e+00 0.0000000000000000e+00 0.0000000000000000e+00  -5.7946853370360270e+02 4.5823268581806963e+02 0.0000000000000000e+00 4.5823268581806963e+02 -4.8805752207756063e+02 0.0000000000000000e+00 0.0000000000000000e+00 0.0000000000000000e+00 0.0000000000000000e+00  1.1867569238210284e+02 1.1601950973078141e+01 0.0000000000000000e+00 1.1601950973078091e+01 1.0028170178307752e+01 0.0000000000000000e+00 0.0000000000000000e+00 0.0000000000000000e+00 0.0000000000000000e+00  7.3084997724304503e+03 -3.8317336101114324e+02 0.0000000000000000e+00 -3.8317336101114250e+02 2.0254913524096643e+04 0.0000000000000000e+00 0.0000000000000000e+00 0.0000000000000000e+00 0.0000000000000000e+00  3.4432943501788543e+01 -5.9190751758800992e+01 0.0000000000000000e+00 -5.9190751758800708e+01 -1.9245209947432635e+01 0.0000000000000000e+00 0.0000000000000000e+00 0.0000000000000000e+00 0.0000000000000000e+00  8.3899079148200030e+01 1.8195702371050302e+02 0.0000000000000000e+00 1.8195702371050291e+02 1.2990591490514242e+02 0.0000000000000000e+00 0.0000000000000000e+00 0.0000000000000000e+00 0.0000000000000000e+00  -3.0707579714072853e+01 -3.7231384202313606e+01 0.0000000000000000e+00 -3.7231384202313613e+01 -2.7816777592698802e+01 0.0000000000000000e+00 0.0000000000000000e+00 0.0000000000000000e+00 0.0000000000000000e+00  -3.4719733457253859e+00 -2.0091018374028499e-01 0.0000000000000000e+00 -2.0091018374029024e-01 9.8686293757903532e-01 0.0000000000000000e+00 0.0000000000000000e+00 0.0000000000000000e+00 0.0000000000000000e+00  -1.0404500831653243e+01 -8.4791039137525495e+00 0.0000000000000000e+00 -8.4791039137525583e+00 -1.7363565823653013e+00 0.0000000000000000e+00 0.0000000000000000e+00 0.0000000000000000e+00 0.0000000000000000e+00  -8.5019672894786211e+01 -1.6987286540276517e+02 0.0000000000000000e+00 -1.6987286540276548e+02 1.0569188467064507e+03 0.0000000000000000e+00 0.0000000000000000e+00 0.0000000000000000e+00 0.0000000000000000e+00  -4.8414038513641717e+03 5.7540127914436953e+03 0.0000000000000000e+00 5.7540127914436753e+03 -5.9707723764231523e+03 0.0000000000000000e+00 0.0000000000000000e+00 0.0000000000000000e+00 0.0000000000000000e+00  -7.4572545795484411e+03 6.2154387254707426e+03 0.0000000000000000e+00 6.2154387254707499e+03 -5.4208756424793592e+03 0.0000000000000000e+00 0.0000000000000000e+00 0.0000000000000000e+00 0.0000000000000000e+00  -5.1410445167200651e+03 5.8589557809418075e+03 0.0000000000000000e+00 5.8589557809418047e+03 -6.9786908891842222e+03 0.0000000000000000e+00 0.0000000000000000e+00 0.0000000000000000e+00 0.0000000000000000e+00  -5.9015154604450809e+03 -6.1315620985723426e+03 0.0000000000000000e+00 -6.1315620985723390e+03 -7.0974414844899147e+03 0.0000000000000000e+00 0.0000000000000000e+00 0.0000000000000000e+00 0.0000000000000000e+00  -7.2973146545347845e+03 -5.9148541823744663e+03 0.0000000000000000e+00 -5.9148541823744608e+03 -5.5488206154433519e+03 0.0000000000000000e+00 0.0000000000000000e+00 0.0000000000000000e+00 0.0000000000000000e+00  -3.6811038507608796e+03 -5.1308644935567909e+03 0.0000000000000000e+00 -5.1308644935567991e+03 -4.8331443532827361e+03 0.0000000000000000e+00 0.0000000000000000e+00 0.0000000000000000e+00 0.0000000000000000e+00  5.6766097913822094e+01 -3.5673325092109900e+02 0.0000000000000000e+00 -3.5673325092110184e+02 8.0610297744069312e+03 0.0000000000000000e+00 0.0000000000000000e+00 0.0000000000000000e+00 0.0000000000000000e+00  -1.1849984013246907e+02 5.0343870681946250e+01 0.0000000000000000e+00 5.0343870681946179e+01 -4.5323130126997974e+01 0.0000000000000000e+00 0.0000000000000000e+00 0.0000000000000000e+00 0.0000000000000000e+00  -4.8415643605263781e-01 1.2861880097515943e+01 0.0000000000000000e+00 1.2861880097515948e+01 6.5372732171342216e+02 0.0000000000000000e+00 0.0000000000000000e+00 0.0000000000000000e+00 0.0000000000000000e+00  -2.0134719988296088e+00 -1.7210277400727087e+01 0.0000000000000000e+00 -1.7210277400727136e+01 6.6545844996997732e+02 0.0000000000000000e+00 0.0000000000000000e+00 0.0000000000000000e+00 0.0000000000000000e+00  7.8453304202787152e+01 -2.2718556382252486e+00 0.0000000000000000e+00 -2.2718556382250412e+00 -2.3423428618574881e+01 0.0000000000000000e+00 0.0000000000000000e+00 0.0000000000000000e+00 0.0000000000000000e+00  -1.9815264709685419e+01 -2.2859745684680273e+00 0.0000000000000000e+00 -2.2859745684680393e+00 1.0454120356233836e+00 0.0000000000000000e+00 0.0000000000000000e+00 0.0000000000000000e+00 0.0000000000000000e+00  3.0452689589056231e-01 1.6567113015938870e+00 0.0000000000000000e+00 1.6567113015938897e+00 -1.4977365881798839e+00 0.0000000000000000e+00 0.0000000000000000e+00 0.0000000000000000e+00 0.0000000000000000e+00  -1.3977540378221581e+01 -1.3862692765799756e+00 0.0000000000000000e+00 -1.3862692765800273e+00 1.2210965597042520e+00 0.0000000000000000e+00 0.0000000000000000e+00 0.0000000000000000e+00 0.0000000000000000e+00  -4.4061800498532747e+01 -7.2936451282787345e+01 0.0000000000000000e+00 -7.2936451282787374e+01 3.6657104433855643e+01 0.0000000000000000e+00 0.0000000000000000e+00 0.0000000000000000e+00 0.0000000000000000e+00  7.4501540998372462e+01 5.8048301447807354e+01 0.0000000000000000e+00 5.8048301447807418e+01 -2.3367119506350907e+01 0.0000000000000000e+00 0.0000000000000000e+00 0.0000000000000000e+00 0.0000000000000000e+00  -1.6192334954996120e+01 -7.0677316045136862e+01 0.0000000000000000e+00 -7.0677316045136791e+01 -5.7737264357127948e+01 0.0000000000000000e+00 0.0000000000000000e+00 0.0000000000000000e+00 0.0000000000000000e+00  -2.1939830198704024e+02 -1.7578492672047733e+02 0.0000000000000000e+00 -1.7578492672047739e+02 -1.9949026843794991e+02 0.0000000000000000e+00 0.0000000000000000e+00 0.0000000000000000e+00 0.0000000000000000e+00  -4.6641412063211540e+01 -3.1052260493781347e+01 0.0000000000000000e+00 -3.1052260493781354e+01 -1.5228040272198106e+01 0.0000000000000000e+00 0.0000000000000000e+00 0.0000000000000000e+00 0.0000000000000000e+00  1.5218318689849746e+00 6.8675396545065415e-01 0.0000000000000000e+00 6.8675396545065470e-01 6.3505700938688516e+00 0.0000000000000000e+00 0.0000000000000000e+00 0.0000000000000000e+00 0.0000000000000000e+00  -1.9885204682755735e+00 -1.7842703661601969e-01 0.0000000000000000e+00 -1.7842703661601952e-01 -3.3878233181863013e+00 0.0000000000000000e+00 0.0000000000000000e+00 0.0000000000000000e+00 0.0000000000000000e+00  -5.1303218945289937e+03 5.8449020720864564e+03 0.0000000000000000e+00 5.8449020720864446e+03 -5.8049735919245250e+03 0.0000000000000000e+00 0.0000000000000000e+00 0.0000000000000000e+00 0.0000000000000000e+00  -7.1500152719337393e+03 6.2142580603258293e+03 0.0000000000000000e+00 6.2142580603258339e+03 -5.7663928248835318e+03 0.0000000000000000e+00 0.0000000000000000e+00 0.0000000000000000e+00 0.0000000000000000e+00  -5.2141926748653104e+03 5.8808955268698082e+03 0.0000000000000000e+00 5.8808955268698037e+03 -6.8727918738249073e+03 0.0000000000000000e+00 0.0000000000000000e+00 0.0000000000000000e+00 0.0000000000000000e+00  -1.6589372431578209e+02 -3.5417454385132947e+02 0.0000000000000000e+00 -3.5417454385132902e+02 -1.1851478517204858e+04 0.0000000000000000e+00 0.0000000000000000e+00 0.0000000000000000e+00 0.0000000000000000e+00  -5.3192591725199045e+03 -6.0739364815049075e+03 0.0000000000000000e+00 -6.0739364815048993e+03 -5.8976114035131232e+03 0.0000000000000000e+00 0.0000000000000000e+00 0.0000000000000000e+00 0.0000000000000000e+00  -7.1465987659141720e+03 -6.0764284244571736e+03 0.0000000000000000e+00 -6.0764284244571836e+03 -4.9807620606806186e+03 0.0000000000000000e+00 0.0000000000000000e+00 0.0000000000000000e+00 0.0000000000000000e+00  -4.7092326726548854e+03 -5.2318770208868027e+03 0.0000000000000000e+00 -5.2318770208867863e+03 -6.9624037064941658e+03 0.0000000000000000e+00 0.0000000000000000e+00 0.0000000000000000e+00 0.0000000000000000e+00  -1.3500126078049631e+01 -4.9073445505734741e+00 0.0000000000000000e+00 -4.9073445505737432e+00 -2.5551397970853987e+01 0.0000000000000000e+00 0.0000000000000000e+00 0.0000000000000000e+00 0.0000000000000000e+00  9.4662135323034402e+00 2.6586592918236511e+00 0.0000000000000000e+00 2.6586592918236613e+00 6.6351890744258776e+02 0.0000000000000000e+00 0.0000000000000000e+00 0.0000000000000000e+00 0.0000000000000000e+00  1.5341155617749908e+02 1.2600407686855978e+02 0.0000000000000000e+00 1.2600407686856012e+02 7.8753524950076701e+02 0.0000000000000000e+00 0.0000000000000000e+00 0.0000000000000000e+00 0.0000000000000000e+00  -6.0729688534951638e+03 6.1647002299072956e+03 0.0000000000000000e+00 6.1647002299072956e+03 -5.3871035283410502e+03 0.0000000000000000e+00 0.0000000000000000e+00 0.0000000000000000e+00 0.0000000000000000e+00  -5.9182052806397005e+03 6.3741413357613610e+03 0.0000000000000000e+00 6.3741413357613619e+03 -8.7012796603318329e+03 0.0000000000000000e+00 0.0000000000000000e+00 0.0000000000000000e+00 0.0000000000000000e+00  -6.8325742739704665e+03 -5.9154386082901892e+03 0.0000000000000000e+00 -5.9154386082901883e+03 -5.8755156460899343e+03 0.0000000000000000e+00 0.0000000000000000e+00 0.0000000000000000e+00 0.0000000000000000e+00  -7.2214475810125969e+03 5.9804379315268325e+03 0.0000000000000000e+00 5.9804379315268334e+03 -3.6956590164416693e+03 0.0000000000000000e+00 0.0000000000000000e+00 0.0000000000000000e+00 0.0000000000000000e+00  -6.7846418997393375e+03 -5.9582198169363382e+03 0.0000000000000000e+00 -5.9582198169363382e+03 -7.8793910424068272e+03 0.0000000000000000e+00 0.0000000000000000e+00 0.0000000000000000e+00 0.0000000000000000e+00  -1.2848217381176394e+03 -1.3027662371997908e+03 0.0000000000000000e+00 -1.3027662371997942e+03 -1.0161844450274706e+03 0.0000000000000000e+00 0.0000000000000000e+00 0.0000000000000000e+00 0.0000000000000000e+00  -4.8610264309878230e+03 -6.1789101250749063e+03 0.0000000000000000e+00 -6.1789101250749063e+03 -3.9126073409022856e+03 0.0000000000000000e+00 0.0000000000000000e+00 0.0000000000000000e+00 0.0000000000000000e+00  -5.4842983273611981e+02 -6.2534222118381479e+02 0.0000000000000000e+00 -6.2534222118381524e+02 -1.1606975896534848e+03 0.0000000000000000e+00 0.0000000000000000e+00 0.0000000000000000e+00 0.0000000000000000e+00  4.1192694045842491e+03 3.3520590704980458e+02 0.0000000000000000e+00 3.3520590704980407e+02 1.6971041784954046e+04 0.0000000000000000e+00 0.0000000000000000e+00 0.0000000000000000e+00 0.0000000000000000e+00  -7.7327704122480407e+02 -6.3312432221989866e+02 0.0000000000000000e+00 -6.3312432221989786e+02 -3.3888700606793390e+02 0.0000000000000000e+00 0.0000000000000000e+00 0.0000000000000000e+00 0.0000000000000000e+00  -1.6234632377844484e+03 1.6298381668925549e+03 0.0000000000000000e+00 1.6298381668925535e+03 -1.2979871584023788e+03 0.0000000000000000e+00 0.0000000000000000e+00 0.0000000000000000e+00 0.0000000000000000e+00  -1.1739225972916411e+03 8.3999926648447058e+02 0.0000000000000000e+00 8.3999926648447001e+02 -6.4425502725151796e+02 0.0000000000000000e+00 0.0000000000000000e+00 0.0000000000000000e+00 0.0000000000000000e+00  9.8184209803263923e+02 -6.8614385230257210e+02 0.0000000000000000e+00 -6.8614385230257187e+02 1.9295811831323576e+02 0.0000000000000000e+00 0.0000000000000000e+00 0.0000000000000000e+00 0.0000000000000000e+00  -3.7375204004301827e+03 -6.0223654339348195e+03 0.0000000000000000e+00 -6.0223654339348241e+03 -5.6068550731748865e+03 0.0000000000000000e+00 0.0000000000000000e+00 0.0000000000000000e+00 0.0000000000000000e+00  1.1359722479756554e+03 1.9045131229324167e+02 0.0000000000000000e+00 1.9045131229324156e+02 1.0221214184309367e+04 0.0000000000000000e+00 0.0000000000000000e+00 0.0000000000000000e+00 0.0000000000000000e+00  -8.4741059147156666e+03 -6.0914725427927278e+03 0.0000000000000000e+00 -6.0914725427927224e+03 -6.2155078242527052e+03 0.0000000000000000e+00 0.0000000000000000e+00 0.0000000000000000e+00 0.0000000000000000e+00  -3.6818476360298246e+03 5.8927531111900616e+03 0.0000000000000000e+00 5.8927531111900589e+03 -6.4847001044202043e+03 0.0000000000000000e+00 0.0000000000000000e+00 0.0000000000000000e+00 0.0000000000000000e+00  -5.2368211599274782e+03 -5.9377332408854782e+03 0.0000000000000000e+00 -5.9377332408854827e+03 -6.6226408283352057e+03 0.0000000000000000e+00 0.0000000000000000e+00 0.0000000000000000e+00 0.0000000000000000e+00  -7.5837215230304919e+03 6.2353591994902026e+03 0.0000000000000000e+00 6.2353591994901981e+03 -4.8422913871008732e+03 0.0000000000000000e+00 0.0000000000000000e+00 0.0000000000000000e+00 0.0000000000000000e+00  2.9385247467754511e+03 5.5016541962291230e+03 0.0000000000000000e+00 5.5016541962291240e+03 -6.5069566122188598e+03 0.0000000000000000e+00 0.0000000000000000e+00 0.0000000000000000e+00 0.0000000000000000e+00  -6.1610457119611801e+03 5.9221801646425038e+03 0.0000000000000000e+00 5.9221801646425120e+03 -7.3310687380035142e+03 0.0000000000000000e+00 0.0000000000000000e+00 0.0000000000000000e+00 0.0000000000000000e+00  -1.8062820564367004e+04 9.9550042670582370e+03 0.0000000000000000e+00 9.9550042670582370e+03 -2.0307087612006140e+04 0.0000000000000000e+00 0.0000000000000000e+00 0.0000000000000000e+00 0.0000000000000000e+00  -9.8474057334357155e+01 5.3953860503734495e+02 0.0000000000000000e+00 5.3953860503734563e+02 -1.1790092331579992e+04 0.0000000000000000e+00 0.0000000000000000e+00 0.0000000000000000e+00 0.0000000000000000e+00  -1.9535026047729434e+03 -1.1688941499608984e+03 0.0000000000000000e+00 -1.1688941499608984e+03 9.2941183690410562e+03 0.0000000000000000e+00 0.0000000000000000e+00 0.0000000000000000e+00 0.0000000000000000e+00  -6.2482335609748443e+03 -6.4155026723880655e+03 0.0000000000000000e+00 -6.4155026723880601e+03 -7.9332627192387226e+03 0.0000000000000000e+00 0.0000000000000000e+00 0.0000000000000000e+00 0.0000000000000000e+00  9.8374501719818352e+02 -1.1575060273976851e+03 0.0000000000000000e+00 -1.1575060273976856e+03 1.3558833954840926e+04 0.0000000000000000e+00 0.0000000000000000e+00 0.0000000000000000e+00 0.0000000000000000e+00  -1.0279228197814158e+04 -8.8960660647563800e+03 0.0000000000000000e+00 -8.8960660647563764e+03 -1.7485298658154778e+04 0.0000000000000000e+00 0.0000000000000000e+00 0.0000000000000000e+00 0.0000000000000000e+00  -1.4995841859256586e+03 2.4901175013542601e+02 0.0000000000000000e+00 2.4901175013541797e+02 8.5276471990858317e+03 0.0000000000000000e+00 0.0000000000000000e+00 0.0000000000000000e+00 0.0000000000000000e+00  -5.7924841297455905e+03 5.9413914294130645e+03 0.0000000000000000e+00 5.9413914294130727e+03 -4.8519848274694832e+03 0.0000000000000000e+00 0.0000000000000000e+00 0.0000000000000000e+00 0.0000000000000000e+00  -8.7718862353988461e+03 6.0803208531926930e+03 0.0000000000000000e+00 6.0803208531926803e+03 -1.0737233175552841e+04 0.0000000000000000e+00 0.0000000000000000e+00 0.0000000000000000e+00 0.0000000000000000e+00  -6.2696472425954771e+03 -6.1100182312977431e+03 0.0000000000000000e+00 -6.1100182312977458e+03 -5.0733840420259385e+03 0.0000000000000000e+00 0.0000000000000000e+00 0.0000000000000000e+00 0.0000000000000000e+00  -4.0904928387288787e+03 6.0643420817083279e+03 0.0000000000000000e+00 6.0643420817083279e+03 -2.1376918374798156e+03 0.0000000000000000e+00 0.0000000000000000e+00 0.0000000000000000e+00 0.0000000000000000e+00  -8.9038321468990180e+03 -6.3158050570814103e+03 0.0000000000000000e+00 -6.3158050570814130e+03 -1.1090015318818594e+04 0.0000000000000000e+00 0.0000000000000000e+00 0.0000000000000000e+00 0.0000000000000000e+00  -1.5020656630295593e+03 -1.3613502754943777e+03 0.0000000000000000e+00 -1.3613502754943734e+03 -1.1299888150385837e+03 0.0000000000000000e+00 0.0000000000000000e+00 0.0000000000000000e+00 0.0000000000000000e+00  -3.9001765067858423e+03 -6.1537701117092356e+03 0.0000000000000000e+00 -6.1537701117092356e+03 -1.6019886666559601e+03 0.0000000000000000e+00 0.0000000000000000e+00 0.0000000000000000e+00 0.0000000000000000e+00  1.3497439742011479e+03 9.9657879771894488e+02 0.0000000000000000e+00 9.9657879771894204e+0