<?xml version="1.0"?>
<VTKFile type="UnstructuredGrid"  version="0.1"  >
<UnstructuredGrid>
<Piece  NumberOfPoints="4855" NumberOfCells="8780">
<Points>
<DataArray  type="Float64"  NumberOfComponents="3"  format="ascii">0.9483880164242298 0.6836931311526558 0  0.9494264999197789 0.6847056440044139 0  0.9494005292759887 0.6847228078606633 0  0.9735520289385229 0.7444444444444445 0  0.9494005292759886 0.8041660810282256 0  0.94942649991978 0.8041832448844759 0  0.9483880175070514 0.8051957566534116 0  3.131175874138137e-16 0.09811450876034808 0  0.06838800723463068 0.1543033514199101 0  0.05161198249294494 0.1948042433465922 0  0.0505735000802211 0.1958167551155251 0  0.05059947072401128 0.1958339189717744 0  0.0505994707240113 0.3152771921393367 0  0.05057350008021998 0.315294355995587 0  0.05161198357913653 0.3163068688507105 0  0.06838800723463068 0.356807759691201 0  3.252606517456513e-16 0.4129966023507631 0  -1.795438797635995e-16 0.4839416311832997 0  0.07083274769489223 0.4605116403870998 0  0.07084991155114129 0.4605376110308903 0  0.07186242331670639 0.4594991286215342 0  0.1696402113702762 0.5 0  0.07186242332008326 0.5405008713818427 0  0.0708499115511413 0.5394623889691096 0  0.07083274769489219 0.5394883596129002 0  -1.925543058334256e-16 0.5160583688167003 0  1.484923295436147e-15 0.5870033976492365 0  0.06838800723463068 0.643192240308799 0  0.05161198249294541 0.6836931322354806 0  0.05057350008022109 0.6847056440044139 0  0.0505994707240113 0.6847228078606633 0  0.0505994707240113 0.8041660810282256 0  0.05057350008021999 0.804183244884476 0  0.05161198249294764 0.8051957566534106 0  0.06838800723463068 0.84569664858009 0  1.485790657174135e-15 0.9018854912396524 0  0 1 0  1 1 0  0.9999999999999987 0.9018854912396523 0  1.000000000000001 0.5870033976492375 0  1 0.5160583688167003 0  0.9291672523051078 0.5394883596129003 0  0.9291500884488585 0.5394623889691117 0  0.9281375755937461 0.5405008724680134 0  0.9281375755937372 0.4594991275319777 0  0.9291500884488586 0.4605376110308884 0  0.9291672523051077 0.4605116403870997 0  1 0.4839416311832997 0  0.9999999999999987 0.4129966023507635 0  0.948388017507054 0.31630686776452 0  0.94942649991978 0.3152943559955871 0  0.9494005292759886 0.3152771921393367 0  0.9735520289385229 0.2555555555555555 0  0.9494005292759888 0.1958339189717744 0  0.9494264999197789 0.1958167551155251 0  0.9483880164208631 0.1948042422604003 0  1.000000000000001 0.09811450876034861 0  1 0 0  0 0 0  0.1958339189717744 0.2950439151684559 0  0.1958167551155252 0.2950179445246672 0  0.3152771921393367 0.2950439151684557 0  0.1948042433481841 0.2960564269357975 0  0.3152943559955858 0.2950179445246651 0  0.1948042422604031 0.2150546830875326 0  0.3163068677645244 0.2960564269373949 0  0.1958167551155251 0.2160931665864439 0  0.4140846558147206 0.2555555555555555 0  0.1958339189717744 0.2160671959426553 0  0.3163068688489276 0.215054683089313 0  0.3152771921393367 0.2160671959426553 0  0.3152943559955858 0.2160931665864459 0  0.5405008724680257 0.3163068688507107 0  0.5572768961235196 0.356807759691201 0  0.5394623889691089 0.3152943559955871 0  0.459499128618165 0.3163068677645201 0  0.5394883596129003 0.3152771921393367 0  0.4605376110308911 0.3152943559955871 0  0.5394883596129001 0.1958339189717744 0  0.4605116403870998 0.3152771921393367 0  0.53946238896911 0.1958167551155251 0  0.4846631400496339 0.2555555555555555 0  0.5405008724680251 0.1948042422604009 0  0.4605116403870998 0.1958339189717744 0  0.5572768961235196 0.1543033514199101 0  0.46053761103089 0.1958167551155251 0  0.4594991286269881 0.1948042433554141 0  0.6847228078606633 0.2950439151684559 0  0.684705644004414 0.2950179445246672 0  0.8041660810282256 0.2950439151684557 0  0.683693131164073 0.2960564280087975 0  0.8041832448844747 0.2950179445246651 0  0.6836931322354718 0.2150546841737125 0  0.8051957566534156 0.2960564269373971 0  0.6847056440044141 0.2160931665864439 0  0.9029735447036096 0.2555555555555555 0  0.6847228078606632 0.2160671959426553 0  0.8051957577274008 0.2150546830997286 0  0.8041660810282256 0.2160671959426553 0  0.8041832448844747 0.2160931665864459 0  0.2960564280235811 0.560751313295155 0  0.3128324516790751 0.6012522041356455 0  0.2950179445246645 0.5597388004400315 0  0.2150546830875235 0.5607513132951615 0  0.2950439151684557 0.5597216365837812 0  0.2160931665864466 0.5597388004400314 0  0.2950439151684558 0.4402783634162188 0  0.2160671959426553 0.5597216365837812 0  0.2950179445246656 0.4402611995599696 0  0.2402186956051895 0.5 0  0.29605642693739 0.439248687791036 0  0.2160671959426553 0.4402783634162189 0  0.3128324516790751 0.3987477958643545 0  0.2160931665864455 0.4402611995599696 0  0.2150546830875296 0.4392486867048446 0  0.1958339189717743 0.7839328040573448 0  0.1958167551155252 0.7839068334135562 0  0.3152771921393367 0.7839328040573447 0  0.1948042422604028 0.7849453169124678 0  0.3152943559955858 0.783906833413554 0  0.1948042433465913 0.7039435730626098 0  0.3163068677645284 0.7849453158262878 0  0.1958167551155251 0.7049820554753328 0  0.4140846558147206 0.7444444444444445 0  0.1958339189717744 0.7049560848315441 0  0.3163068688486237 0.7039435719785058 0  0.3152771921393367 0.7049560848315441 0  0.3152943559955858 0.7049820554753349 0  0.4402783634162188 0.5394883596129003 0  0.4402611995599696 0.5394623889691117 0  0.5597216365837812 0.5394883596129002 0  0.4392486867048468 0.5405008724680237 0  0.5597388004400302 0.5394623889691096 0  0.4392486877998708 0.4594991286270004 0  0.5607513122089726 0.540500871381843 0  0.4402611995599696 0.4605376110308884 0  0.6585291002591651 0.5 0  0.4402783634162188 0.4605116403870998 0  0.5607513121946796 0.45949912863245 0  0.5597216365837812 0.4605116403870998 0  0.5597388004400302 0.4605376110308904 0  0.78494531690701 0.5607513132896949 0  0.8017213405679641 0.6012522041356455 0  0.7839068334135535 0.5597388004400315 0  0.7039435730626069 0.5607513122089671 0  0.7839328040573448 0.5597216365837812 0  0.7049820554753355 0.5597388004400314 0  0.7839328040573448 0.4402783634162188 0  0.7049560848315441 0.5597216365837812 0  0.7839068334135545 0.4402611995599696 0  0.7291075844940784 0.5 0  0.784945315826279 0.4392486877910359 0  0.7049560848315444 0.4402783634162188 0  0.8017213405679641 0.3987477958643545 0  0.7049820554753344 0.4402611995599696 0  0.7039435719764182 0.4392486867048443 0  0.5405008724625655 0.8051957577341393 0  0.5572768961235196 0.84569664858009 0  0.539462388969109 0.804183244884476 0  0.4594991286181648 0.8051957566534091 0  0.5394883596129003 0.8041660810282256 0  0.4605376110308911 0.804183244884476 0  0.5394883596129003 0.6847228078606633 0  0.4605116403870998 0.8041660810282256 0  0.53946238896911 0.6847056440044139 0  0.4846631400496339 0.7444444444444445 0  0.5405008713818347 0.6836931322354802 0  0.4605116403870998 0.6847228078606633 0  0.5572768961235196 0.643192240308799 0  0.46053761103089 0.6847056440044139 0  0.4594991275353449 0.6836931311526599 0  0.6847228078606633 0.7839328040573448 0  0.684705644004414 0.7839068334135562 0  0.8041660810282256 0.7839328040573447 0  0.6836931311493016 0.7849453169124578 0  0.8041832448844747 0.783906833413554 0  0.68369313223548 0.7039435730626096 0  0.805195756653417 0.7849453158262875 0  0.6847056440044141 0.7049820554753328 0  0.9029735447036096 0.7444444444444445 0  0.6847228078606633 0.7049560848315441 0  0.805195757738809 0.7039435719772094 0  0.8041660810282256 0.7049560848315441 0  0.8041832448844747 0.7049820554753349 0  0.9578164230213342 0.6948838683471341 0  0.9645772892192558 0.7062137009141434 0  0.9695236884064815 0.7184451175460498 0  0.972538971146615 0.7312896684428197 0  0.9725389711466151 0.7575992204460691 0  0.9695236884064815 0.7704437713428391 0  0.9645772892192558 0.7826751879747456 0  0.9578164230213342 0.7940050205417549 0  0.01437766570919127 0.09711967848259151 0  0.02854851642641832 0.09974531144948819 0  0.04161535472570586 0.1058251712658871 0  0.05275088139110013 0.1149743244732108 0  0.06125007411586489 0.1266135117968212 0  0.06657482449792251 0.1400058227212122 0  0.06643634307317195 0.1691277076584997 0  0.06071435336153361 0.1829418078690686 0  0.04134737123322858 0.3039103077764334 0  0.03416190609801732 0.2911362521989113 0  0.02925217947541549 0.2773267630846004 0  0.02676106927623143 0.2628837102534819 0  0.02676106927623143 0.2482274008576293 0  0.02925217947541547 0.2337843480265108 0  0.03416190609801727 0.2199748589121999 0  0.04134737123322851 0.2072008033346779 0  0.06071435387356935 0.328169304128914 0  0.06643634320569657 0.3419834039471998 0  0.06657482449792249 0.371105288389899 0  0.06125007411586481 0.3844975993142901 0  0.05275088139109994 0.3961367866379005 0  0.04161535472570563 0.4052859398452242 0  0.02854851642641818 0.411365799661623 0  0.01437766570919127 0.4139914326285196 0  0 0.4697526254167924 0  0 0.455563619650285 0  0 0.4413746138837777 0  0 0.4271856081172704 0  0.06095233986089402 0.4687284952262988 0  0.04995687430503332 0.4753797281664747 0  0.03809234373417287 0.4803165365228644 0  0.02562418374773841 0.4834284730529493 0  0.01283133446055119 0.4846459169037758 0  0.08372485599813187 0.4503967593658507 0  0.09753895276796982 0.4446747697099958 0  0.1123633055586467 0.4427231038764812 0  0.1271876590095525 0.4446747646950606 0  0.1410017577150834 0.45039674967774 0  0.1528641934757506 0.4594991149204779 0  0.161966560724962 0.471361549141524 0  0.1676885480442292 0.4851756468792086 0  0.1676885480443665 0.514824353120279 0  0.1619665607254926 0.528638450857557 0  0.1528641934768762 0.5405008850783964 0  0.1410017577169217 0.5496032503211987 0  0.1271876590121153 0.5553252353042526 0  0.1123633055618306 0.5572768961235188 0  0.09753895277155772 0.5553252302909656 0  0.08372485600180817 0.5496032406362719 0  0.0128313344605512 0.5153540830962242 0  0.0256241837477384 0.5165715269470507 0  0.03809234373417282 0.5196834634771356 0  0.04995687430503334 0.5246202718335253 0  0.06095233986089401
[...]
<PointData  Tensors="$\sigma$"> 
<DataArray  type="Float64"  Name="$\sigma$"  NumberOfComponents="9" format="ascii">-5.1512021894499094e+03 -5.8566265169280314e+03 0.0000000000000000e+00 -5.8566265169280259e+03 -6.2352220031684483e+03 0.0000000000000000e+00 0.0000000000000000e+00 0.0000000000000000e+00 0.0000000000000000e+00  -7.4113700313593399e+03 -5.6506696713781912e+03 0.0000000000000000e+00 -5.6506696713781930e+03 -5.2905417558065583e+03 0.0000000000000000e+00 0.0000000000000000e+00 0.0000000000000000e+00 0.0000000000000000e+00  -4.8496405276554351e+03 -6.0535125731941107e+03 0.0000000000000000e+00 -6.0535125731941116e+03 -6.8426178067238452e+03 0.0000000000000000e+00 0.0000000000000000e+00 0.0000000000000000e+00 0.0000000000000000e+00  9.1125553087710244e+01 7.0884251033352443e+00 0.0000000000000000e+00 7.0884251033348402e+00 -1.0172330950316840e+04 0.0000000000000000e+00 0.0000000000000000e+00 0.0000000000000000e+00 0.0000000000000000e+00  -3.6176705624554957e+03 4.4465530178552890e+03 0.0000000000000000e+00 4.4465530178552926e+03 -4.8938246898409088e+03 0.0000000000000000e+00 0.0000000000000000e+00 0.0000000000000000e+00 0.0000000000000000e+00  -8.8169165040231965e+03 7.1063277507673338e+03 0.0000000000000000e+00 7.1063277507673356e+03 -7.9351218484020892e+03 0.0000000000000000e+00 0.0000000000000000e+00 0.0000000000000000e+00 0.0000000000000000e+00  -3.2307123191763599e+03 3.7719298475274582e+03 0.0000000000000000e+00 3.7719298475274572e+03 -3.5011624823410430e+03 0.0000000000000000e+00 0.0000000000000000e+00 0.0000000000000000e+00 0.0000000000000000e+00  3.8050160519284148e+01 5.4498077756612728e-01 0.0000000000000000e+00 5.4498077756614982e-01 1.5495860009501337e+01 0.0000000000000000e+00 0.0000000000000000e+00 0.0000000000000000e+00 0.0000000000000000e+00  3.9450018969069866e+01 4.8812066650509479e+01 0.0000000000000000e+00 4.8812066650509252e+01 7.8283013291867373e+03 0.0000000000000000e+00 0.0000000000000000e+00 0.0000000000000000e+00 0.0000000000000000e+00  -3.1161401195480503e+03 3.4752324330539482e+03 0.0000000000000000e+00 3.4752324330539532e+03 -3.9845841377805878e+03 0.0000000000000000e+00 0.0000000000000000e+00 0.0000000000000000e+00 0.0000000000000000e+00  -8.6197335541417560e+03 7.1724912826675036e+03 0.0000000000000000e+00 7.1724912826674972e+03 -7.2921581189974340e+03 0.0000000000000000e+00 0.0000000000000000e+00 0.0000000000000000e+00 0.0000000000000000e+00  -3.5229149585380333e+03 4.3084691930466170e+03 0.0000000000000000e+00 4.3084691930466233e+03 -4.6694982450577318e+03 0.0000000000000000e+00 0.0000000000000000e+00 0.0000000000000000e+00 0.0000000000000000e+00  -4.1042743978928575e+03 -6.0989674525111313e+03 0.0000000000000000e+00 -6.0989674525111341e+03 -6.1104181025108928e+03 0.0000000000000000e+00 0.0000000000000000e+00 0.0000000000000000e+00 0.0000000000000000e+00  -8.8990012627679516e+03 -5.5951078508170067e+03 0.0000000000000000e+00 -5.5951078508170112e+03 -6.5112865383475664e+03 0.0000000000000000e+00 0.0000000000000000e+00 0.0000000000000000e+00 0.0000000000000000e+00  -4.2225928652010880e+03 -5.9085156645422048e+03 0.0000000000000000e+00 -5.9085156645421948e+03 -5.6817106653615838e+03 0.0000000000000000e+00 0.0000000000000000e+00 0.0000000000000000e+00 0.0000000000000000e+00  2.0862646101370379e+02 -3.0308172918852751e+01 0.0000000000000000e+00 -3.0308172918852925e+01 2.0578123377392767e+03 0.0000000000000000e+00 0.0000000000000000e+00 0.0000000000000000e+00 0.0000000000000000e+00  1.1912925380922501e+00 1.5675671867426461e-01 0.0000000000000000e+00 1.5675671867426519e-01 -6.6632795453431601e+00 0.0000000000000000e+00 0.0000000000000000e+00 0.0000000000000000e+00 0.0000000000000000e+00  -5.1558589021919932e-01 3.0140363117171082e-01 0.0000000000000000e+00 3.0140363117171104e-01 2.1434012532710591e+00 0.0000000000000000e+00 0.0000000000000000e+00 0.0000000000000000e+00 0.0000000000000000e+00  -3.0424237883965187e+01 2.9333204568677367e+01 0.0000000000000000e+00 2.9333204568677381e+01 -1.7560709385928838e+01 0.0000000000000000e+00 0.0000000000000000e+00 0.0000000000000000e+00 0.0000000000000000e+00  -7.4111728823887674e+01 1.5782861494997752e+01 0.0000000000000000e+00 1.5782861494997736e+01 -3.2255378543911043e+01 0.0000000000000000e+00 0.0000000000000000e+00 0.0000000000000000e+00 0.0000000000000000e+00  -5.0977925752171540e+00 6.6476577655750589e+01 0.0000000000000000e+00 6.6476577655750603e+01 -5.9079716307901371e+01 0.0000000000000000e+00 0.0000000000000000e+00 0.0000000000000000e+00 0.0000000000000000e+00  3.8215669139102079e+03 -2.0318333782781258e+02 0.0000000000000000e+00 -2.0318333782781315e+02 1.6525401454795541e+04 0.0000000000000000e+00 0.0000000000000000e+00 0.0000000000000000e+00 0.0000000000000000e+00  -3.1280129518235459e+01 -9.3545255408962873e+01 0.0000000000000000e+00 -9.3545255408962717e+01 -4.1310869489937410e+01 0.0000000000000000e+00 0.0000000000000000e+00 0.0000000000000000e+00 0.0000000000000000e+00  1.0135899122191161e+02 1.5973339383996040e+02 0.0000000000000000e+00 1.5973339383996040e+02 9.0902770234795057e+01 0.0000000000000000e+00 0.0000000000000000e+00 0.0000000000000000e+00 0.0000000000000000e+00  -2.3861820671835591e+01 -2.3231954992515231e+01 0.0000000000000000e+00 -2.3231954992515242e+01 -7.0385693796601378e+00 0.0000000000000000e+00 0.0000000000000000e+00 0.0000000000000000e+00 0.0000000000000000e+00  1.0022352428332990e+00 1.2450713111266411e-01 0.0000000000000000e+00 1.2450713111266352e-01 1.9981048041823939e+00 0.0000000000000000e+00 0.0000000000000000e+00 0.0000000000000000e+00 0.0000000000000000e+00  -3.7823926603359230e+00 -7.1311161645499705e+00 0.0000000000000000e+00 -7.1311161645499661e+00 1.4390291899606735e+00 0.0000000000000000e+00 0.0000000000000000e+00 0.0000000000000000e+00 0.0000000000000000e+00  8.8163995394844754e+00 -2.0867260197576591e+01 0.0000000000000000e+00 -2.0867260197576435e+01 2.0918343229291800e+03 0.0000000000000000e+00 0.0000000000000000e+00 0.0000000000000000e+00 0.0000000000000000e+00  -4.9156864460302686e+03 5.9242294955093221e+03 0.0000000000000000e+00 5.9242294955093203e+03 -6.2742975313832039e+03 0.0000000000000000e+00 0.0000000000000000e+00 0.0000000000000000e+00 0.0000000000000000e+00  -7.8849604498350836e+03 5.7216431284295431e+03 0.0000000000000000e+00 5.7216431284295368e+03 -5.0854864991009281e+03 0.0000000000000000e+00 0.0000000000000000e+00 0.0000000000000000e+00 0.0000000000000000e+00  -4.4893966909304318e+03 5.7787368048953440e+03 0.0000000000000000e+00 5.7787368048953422e+03 -6.9872852163370726e+03 0.0000000000000000e+00 0.0000000000000000e+00 0.0000000000000000e+00 0.0000000000000000e+00  -3.6263632777869880e+03 -4.3842967442206409e+03 0.0000000000000000e+00 -4.3842967442206427e+03 -4.7911863253070815e+03 0.0000000000000000e+00 0.0000000000000000e+00 0.0000000000000000e+00 0.0000000000000000e+00  -8.4814417649575571e+03 -7.0959025556159104e+03 0.0000000000000000e+00 -7.0959025556159104e+03 -7.8402291869072187e+03 0.0000000000000000e+00 0.0000000000000000e+00 0.0000000000000000e+00 0.0000000000000000e+00  -3.3015004975423358e+03 -3.6362607957776063e+03 0.0000000000000000e+00 -3.6362607957776049e+03 -3.3832222799190167e+03 0.0000000000000000e+00 0.0000000000000000e+00 0.0000000000000000e+00 0.0000000000000000e+00  1.5346520020818735e+02 -2.8613779081653945e+02 0.0000000000000000e+00 -2.8613779081653945e+02 7.4802251093039722e+03 0.0000000000000000e+00 0.0000000000000000e+00 0.0000000000000000e+00 0.0000000000000000e+00  -8.3825029028320557e+01 3.8387107645181409e+01 0.0000000000000000e+00 3.8387107645181366e+01 -3.8015165266711051e+01 0.0000000000000000e+00 0.0000000000000000e+00 0.0000000000000000e+00 0.0000000000000000e+00  4.2574773138698347e+00 8.1412888409463129e+00 0.0000000000000000e+00 8.1412888409463164e+00 5.6802239714562791e+02 0.0000000000000000e+00 0.0000000000000000e+00 0.0000000000000000e+00 0.0000000000000000e+00  3.5793271813732352e+00 -1.1119124593195762e+01 0.0000000000000000e+00 -1.1119124593195792e+01 5.8041457979697566e+02 0.0000000000000000e+00 0.0000000000000000e+00 0.0000000000000000e+00 0.0000000000000000e+00  3.8334377275127032e+01 -2.5467928620480365e+00 0.0000000000000000e+00 -2.5467928620479596e+00 -1.8418650631603796e+01 0.0000000000000000e+00 0.0000000000000000e+00 0.0000000000000000e+00 0.0000000000000000e+00  -4.9545786658245534e+00 -1.1472357926941184e+00 0.0000000000000000e+00 -1.1472357926941181e+00 -3.3341785173421448e+00 0.0000000000000000e+00 0.0000000000000000e+00 0.0000000000000000e+00 0.0000000000000000e+00  6.0065145580345036e-01 3.5441266265462956e-01 0.0000000000000000e+00 3.5441266265462917e-01 1.0427113380512771e+00 0.0000000000000000e+00 0.0000000000000000e+00 0.0000000000000000e+00 0.0000000000000000e+00  -2.4501767561786480e+01 2.7802345320695739e+01 0.0000000000000000e+00 2.7802345320695721e+01 -2.1191500675362047e+01 0.0000000000000000e+00 0.0000000000000000e+00 0.0000000000000000e+00 0.0000000000000000e+00  -3.9044341681016270e+01 -4.9070432857809692e+01 0.0000000000000000e+00 -4.9070432857809713e+01 9.9137715430000082e+00 0.0000000000000000e+00 0.0000000000000000e+00 0.0000000000000000e+00 0.0000000000000000e+00  1.6177699426502773e+01 7.0472905972526007e+01 0.0000000000000000e+00 7.0472905972526092e+01 -3.6153414050472129e+01 0.0000000000000000e+00 0.0000000000000000e+00 0.0000000000000000e+00 0.0000000000000000e+00  -2.1375304412194247e+01 -7.0207161073276183e+01 0.0000000000000000e+00 -7.0207161073276040e+01 -6.6925171774433494e+01 0.0000000000000000e+00 0.0000000000000000e+00 0.0000000000000000e+00 0.0000000000000000e+00  -1.0409373967430825e+02 -6.9636881553258675e+01 0.0000000000000000e+00 -6.9636881553258718e+01 -9.7377666669453248e+01 0.0000000000000000e+00 0.0000000000000000e+00 0.0000000000000000e+00 0.0000000000000000e+00  -4.2037269140271562e+01 -2.5958901647642350e+01 0.0000000000000000e+00 -2.5958901647642392e+01 7.4984424332417909e-01 0.0000000000000000e+00 0.0000000000000000e+00 0.0000000000000000e+00 0.0000000000000000e+00  -1.1503209604913704e+00 -6.4298461986703559e-01 0.0000000000000000e+00 -6.4298461986703537e-01 -1.8890506002734667e-01 0.0000000000000000e+00 0.0000000000000000e+00 0.0000000000000000e+00 0.0000000000000000e+00  -5.1301884811221541e+00 -1.6673529269072493e+00 0.0000000000000000e+00 -1.6673529269072480e+00 -3.5731494523772911e+00 0.0000000000000000e+00 0.0000000000000000e+00 0.0000000000000000e+00 0.0000000000000000e+00  -4.4977329435279817e+03 5.3913027301605498e+03 0.0000000000000000e+00 5.3913027301605443e+03 -5.8901763684187308e+03 0.0000000000000000e+00 0.0000000000000000e+00 0.0000000000000000e+00 0.0000000000000000e+00  -7.8370461015471546e+03 6.0257900122053989e+03 0.0000000000000000e+00 6.0257900122053952e+03 -5.5733440837200360e+03 0.0000000000000000e+00 0.0000000000000000e+00 0.0000000000000000e+00 0.0000000000000000e+00  -5.0358790218577788e+03 5.7399555110078691e+03 0.0000000000000000e+00 5.7399555110078691e+03 -6.8381725762255046e+03 0.0000000000000000e+00 0.0000000000000000e+00 0.0000000000000000e+00 0.0000000000000000e+00  1.2416567936944800e+02 5.9292009035418040e+01 0.0000000000000000e+00 5.9292009035418438e+01 -1.0112996310743587e+04 0.0000000000000000e+00 0.0000000000000000e+00 0.0000000000000000e+00 0.0000000000000000e+00  -3.4010943335015045e+03 -4.3752460486633809e+03 0.0000000000000000e+00 -4.3752460486633818e+03 -4.6999885188586077e+03 0.0000000000000000e+00 0.0000000000000000e+00 0.0000000000000000e+00 0.0000000000000000e+00  -9.1691065200731991e+03 -7.2781778708753918e+03 0.0000000000000000e+00 -7.2781778708753855e+03 -7.5962544387604366e+03 0.0000000000000000e+00 0.0000000000000000e+00 0.0000000000000000e+00 0.0000000000000000e+00  -3.1904841663989532e+03 -3.5904887380020227e+03 0.0000000000000000e+00 -3.5904887380020191e+03 -4.1905589797657740e+03 0.0000000000000000e+00 0.0000000000000000e+00 0.0000000000000000e+00 0.0000000000000000e+00  -3.8705152541382787e+01 1.0351723794421353e+01 0.0000000000000000e+00 1.0351723794421371e+01 -1.2375605583918750e+01 0.0000000000000000e+00 0.0000000000000000e+00 0.0000000000000000e+00 0.0000000000000000e+00  3.4971407425569030e+00 5.7954689489824176e+00 0.0000000000000000e+00 5.7954689489824309e+00 5.6993086899645607e+02 0.0000000000000000e+00 0.0000000000000000e+00 0.0000000000000000e+00 0.0000000000000000e+00  1.4269095922419464e+02 1.1513293990133251e+02 0.0000000000000000e+00 1.1513293990133246e+02 6.8421897178085931e+02 0.0000000000000000e+00 0.0000000000000000e+00 0.0000000000000000e+00 0.0000000000000000e+00  -6.0243596609690967e+03 5.9083086239754948e+03 0.0000000000000000e+00 5.9083086239754957e+03 -5.5333203135076965e+03 0.0000000000000000e+00 0.0000000000000000e+00 0.0000000000000000e+00 0.0000000000000000e+00  -7.7865839712961142e+03 5.9242017990833820e+03 0.0000000000000000e+00 5.9242017990833820e+03 -9.5274011177497578e+03 0.0000000000000000e+00 0.0000000000000000e+00 0.0000000000000000e+00 0.0000000000000000e+00  -6.2062414532717230e+03 -6.1029935775654094e+03 0.0000000000000000e+00 -6.1029935775654112e+03 -5.1825632107374258e+03 0.0000000000000000e+00 0.0000000000000000e+00 0.0000000000000000e+00 0.0000000000000000e+00  -4.6245313046224792e+03 6.0413127073465621e+03 0.0000000000000000e+00 6.0413127073465621e+03 -2.0317780787725958e+03 0.0000000000000000e+00 0.0000000000000000e+00 0.0000000000000000e+00 0.0000000000000000e+00  -5.2188300678790929e+03 -5.6891995107061384e+03 0.0000000000000000e+00 -5.6891995107061312e+03 -6.3756774672229585e+03 0.0000000000000000e+00 0.0000000000000000e+00 0.0000000000000000e+00 0.0000000000000000e+00  -1.1859375247428898e+03 -1.1321485813482618e+03 0.0000000000000000e+00 -1.1321485813482627e+03 -8.6142978641199034e+02 0.0000000000000000e+00 0.0000000000000000e+00 0.0000000000000000e+00 0.0000000000000000e+00  -6.0352643766752099e+03 -5.7147899180908516e+03 0.0000000000000000e+00 -5.7147899180908516e+03 -5.4976316066506697e+03 0.0000000000000000e+00 0.0000000000000000e+00 0.0000000000000000e+00 0.0000000000000000e+00  -3.6385948058325113e+02 -4.0382535967155161e+02 0.0000000000000000e+00 -4.0382535967155161e+02 -8.1287629482410250e+02 0.0000000000000000e+00 0.0000000000000000e+00 0.0000000000000000e+00 0.0000000000000000e+00  3.5881746293283904e+03 3.0772545803699734e+02 0.0000000000000000e+00 3.0772545803699859e+02 1.5891342306264749e+04 0.0000000000000000e+00 0.0000000000000000e+00 0.0000000000000000e+00 0.0000000000000000e+00  -6.1116229390556202e+02 -5.8747181773229568e+02 0.0000000000000000e+00 -5.8747181773229534e+02 -4.0534815016440893e+02 0.0000000000000000e+00 0.0000000000000000e+00 0.0000000000000000e+00 0.0000000000000000e+00  -1.2663885421451303e+03 1.3299646633001723e+03 0.0000000000000000e+00 1.3299646633001705e+03 -1.0737179737738486e+03 0.0000000000000000e+00 0.0000000000000000e+00 0.0000000000000000e+00 0.0000000000000000e+00  -1.1217878762639555e+03 8.0239118037569244e+02 0.0000000000000000e+00 8.0239118037569301e+02 -6.2626696655566707e+02 0.0000000000000000e+00 0.0000000000000000e+00 0.0000000000000000e+00 0.0000000000000000e+00  4.3517766308028484e+02 -2.0793904187266764e+02 0.0000000000000000e+00 -2.0793904187266753e+02 -1.9352028137793653e+02 0.0000000000000000e+00 0.0000000000000000e+00 0.0000000000000000e+00 0.0000000000000000e+00  -5.1229553414247966e+03 -6.4520463425281505e+03 0.0000000000000000e+00 -6.4520463425281514e+03 -6.1588150109353737e+03 0.0000000000000000e+00 0.0000000000000000e+00 0.0000000000000000e+00 0.0000000000000000e+00  7.2243695456091200e+02 -1.0363687653213184e+02 0.0000000000000000e+00 -1.0363687653213077e+02 6.9537331991497540e+03 0.0000000000000000e+00 0.0000000000000000e+00 0.0000000000000000e+00 0.0000000000000000e+00  -5.3858790464165604e+03 -5.5043295541023726e+03 0.0000000000000000e+00 -5.5043295541023754e+03 -3.5247478771158480e+03 0.0000000000000000e+00 0.0000000000000000e+00 0.0000000000000000e+00 0.0000000000000000e+00  -4.7163081507639017e+03 6.4426296181487123e+03 0.0000000000000000e+00 6.4426296181487096e+03 -7.0098489177831270e+03 0.0000000000000000e+00 0.0000000000000000e+00 0.0000000000000000e+00 0.0000000000000000e+00  -6.6504015591995412e+03 -5.9368502057658561e+03 0.0000000000000000e+00 -5.9368502057658570e+03 -8.3613930470669602e+03 0.0000000000000000e+00 0.0000000000000000e+00 0.0000000000000000e+00 0.0000000000000000e+00  -5.3879066590454186e+03 5.5345774075590771e+03 0.0000000000000000e+00 5.5345774075590880e+03 -2.7305591046507075e+03 0.0000000000000000e+00 0.0000000000000000e+00 0.0000000000000000e+00 0.0000000000000000e+00  2.3222890400463459e+02 2.1221822045637878e+03 0.0000000000000000e+00 2.1221822045637869e+03 -2.1092608873066838e+03 0.0000000000000000e+00 0.0000000000000000e+00 0.0000000000000000e+00 0.0000000000000000e+00  -6.9357677106490637e+03 5.8913710307849087e+03 0.0000000000000000e+00 5.8913710307849087e+03 -8.3971147804023203e+03 0.0000000000000000e+00 0.0000000000000000e+00 0.0000000000000000e+00 0.0000000000000000e+00  -1.2694736060961659e+04 1.0869667127429246e+04 0.0000000000000000e+00 1.0869667127429248e+04 -1.7819303362982570e+04 0.0000000000000000e+00 0.0000000000000000e+00 0.0000000000000000e+00 0.0000000000000000e+00  1.5233583707564998e+01 8.6794278063488349e+01 0.0000000000000000e+00 8.6794278063490907e+01 -1.0070063930650134e+04 0.0000000000000000e+00 0.0000000000000000e+00 0.0000000000000000e+00 0.0000000000000000e+00  2.6362962004164448e+01 -3.0742552281980993e+03 0.0000000000000000e+00 -3.0742552281981025e+03 8.1971631929720243e+03 0.0000000000000000e+00 0.0000000000000000e+00 0.0000000000000000e+00 0.0000000000000000e+00  -2.1093585931835432e+03 -1.4609397248118873e+03 0.0000000000000000e+00 -1.4609397248118878e+03 -1.0051255380679968e+03 0.0000000000000000e+00 0.0000000000000000e+00 0.0000000000000000e+00 0.0000000000000000e+00  7.2700811106268384e+02 -5.5732054438922978e+02 0.0000000000000000e+00 -5.5732054438923001e+02 1.2912278214201586e+04 0.0000000000000000e+00 0.0000000000000000e+00 0.0000000000000000e+00 0.0000000000000000e+00  -9.4350492961925174e+03 -9.9373235339997918e+03 0.0000000000000000e+00 -9.9373235339997937e+03 -1.4786654951013665e+04 0.0000000000000000e+00 0.0000000000000000e+00 0.0000000000000000e+00 0.0000000000000000e+00  5.0124616386858058e+01 1.5582975851194810e+03 0.0000000000000000e+00 1.5582975851194817e+03 4.8825311199812404e+03 0.0000000000000000e+00 0.0000000000000000e+00 0.0000000000000000e+00 0.0000000000000000e+00  -6.2706033809319360e+03 6.1560167794391773e+03 0.0000000000000000e+00 6.1560167794391691e+03 -5.3263900108494154e+03 0.0000000000000000e+00 0.0000000000000000e+00 0.0000000000000000e+00 0.0000000000000000e+00  -5.1537814245427280e+03 5.6663334534045025e+03 0.0000000000000000e+00 5.6663334534045025e+03 -6.3505509132811794e+03 0.0000000000000000e+00 0.0000000000000000e+00 0.0000000000000000e+00 0.0000000000000000e+00  -6.7726232110016190e+03 -5.8735967693625807e+03 0.0000000000000000e+00 -5.8735967693625817e+03 -6.3555423546505781e+03 0.0000000000000000e+00 0.0000000000000000e+00 0.0000000000000000e+00 0.0000000000000000e+00  -6.0957306542634460e+03 5.7567507286326863e+03 0.0000000000000000e+00 5.7567507286326909e+03 -5.3919512675860669e+03 0.0000000000000000e+00 0.0000000000000000e+00 0.0000000000000000e+00 0.0000000000000000e+00  -6.9678404963452022e+03 -5.8600317653746215e+03 0.0000000000000000e+00 -5.8600317653746197e+03 -8.1901144846003735e+03 0.0000000000000000e+00 0.0000000000000000e+00 0.0000000000000000e+00 0.0000000000000000e+00  -1.5345082318727705e+03 -1.3111089237603660e+03 0.0000000000000000e+00 -1.3111089237603662e+03 -1.0827645959388228e+03 0.0000000000000000e+00 0.0000000000000000e+00 0.0000000000000000e+00 0.0000000000000000e+00  -4.7393182173179348e+03 -6.1334244437801271e+03 0.0000000000000000e+00 -6.1334244437801290e+03 -2.8816526058532736e+03 0.0000000000000000e+00 0.0000000000000000e+00 0.0000000000000000e+00 0.0000000000000000e+00  9.7209302293900600e+02 6.1665160280117641e+02 0.0000000000000000e+00 6.1665160280117550e+02 2.1885