<?xml version="1.0"?>
<VTKFile type="UnstructuredGrid"  version="0.1"  >
<UnstructuredGrid>
<Piece  NumberOfPoints="4855" NumberOfCells="8780">
<Points>
<DataArray  type="Float64"  NumberOfComponents="3"  format="ascii">0.9483880164242298 0.6836931311526558 0  0.9494264999197789 0.6847056440044139 0  0.9494005292759887 0.6847228078606633 0  0.9735520289385229 0.7444444444444445 0  0.9494005292759886 0.8041660810282256 0  0.94942649991978 0.8041832448844759 0  0.9483880175070514 0.8051957566534116 0  3.131175874138137e-16 0.09811450876034808 0  0.06838800723463068 0.1543033514199101 0  0.05161198249294494 0.1948042433465922 0  0.0505735000802211 0.1958167551155251 0  0.05059947072401128 0.1958339189717744 0  0.0505994707240113 0.3152771921393367 0  0.05057350008021998 0.315294355995587 0  0.05161198357913653 0.3163068688507105 0  0.06838800723463068 0.356807759691201 0  3.252606517456513e-16 0.4129966023507631 0  -1.795438797635995e-16 0.4839416311832997 0  0.07083274769489223 0.4605116403870998 0  0.07084991155114129 0.4605376110308903 0  0.07186242331670639 0.4594991286215342 0  0.1696402113702762 0.5 0  0.07186242332008326 0.5405008713818427 0  0.0708499115511413 0.5394623889691096 0  0.07083274769489219 0.5394883596129002 0  -1.925543058334256e-16 0.5160583688167003 0  1.484923295436147e-15 0.5870033976492365 0  0.06838800723463068 0.643192240308799 0  0.05161198249294541 0.6836931322354806 0  0.05057350008022109 0.6847056440044139 0  0.0505994707240113 0.6847228078606633 0  0.0505994707240113 0.8041660810282256 0  0.05057350008021999 0.804183244884476 0  0.05161198249294764 0.8051957566534106 0  0.06838800723463068 0.84569664858009 0  1.485790657174135e-15 0.9018854912396524 0  0 1 0  1 1 0  0.9999999999999987 0.9018854912396523 0  1.000000000000001 0.5870033976492375 0  1 0.5160583688167003 0  0.9291672523051078 0.5394883596129003 0  0.9291500884488585 0.5394623889691117 0  0.9281375755937461 0.5405008724680134 0  0.9281375755937372 0.4594991275319777 0  0.9291500884488586 0.4605376110308884 0  0.9291672523051077 0.4605116403870997 0  1 0.4839416311832997 0  0.9999999999999987 0.4129966023507635 0  0.948388017507054 0.31630686776452 0  0.94942649991978 0.3152943559955871 0  0.9494005292759886 0.3152771921393367 0  0.9735520289385229 0.2555555555555555 0  0.9494005292759888 0.1958339189717744 0  0.9494264999197789 0.1958167551155251 0  0.9483880164208631 0.1948042422604003 0  1.000000000000001 0.09811450876034861 0  1 0 0  0 0 0  0.1958339189717744 0.2950439151684559 0  0.1958167551155252 0.2950179445246672 0  0.3152771921393367 0.2950439151684557 0  0.1948042433481841 0.2960564269357975 0  0.3152943559955858 0.2950179445246651 0  0.1948042422604031 0.2150546830875326 0  0.3163068677645244 0.2960564269373949 0  0.1958167551155251 0.2160931665864439 0  0.4140846558147206 0.2555555555555555 0  0.1958339189717744 0.2160671959426553 0  0.3163068688489276 0.215054683089313 0  0.3152771921393367 0.2160671959426553 0  0.3152943559955858 0.2160931665864459 0  0.5405008724680257 0.3163068688507107 0  0.5572768961235196 0.356807759691201 0  0.5394623889691089 0.3152943559955871 0  0.459499128618165 0.3163068677645201 0  0.5394883596129003 0.3152771921393367 0  0.4605376110308911 0.3152943559955871 0  0.5394883596129001 0.1958339189717744 0  0.4605116403870998 0.3152771921393367 0  0.53946238896911 0.1958167551155251 0  0.4846631400496339 0.2555555555555555 0  0.5405008724680251 0.1948042422604009 0  0.4605116403870998 0.1958339189717744 0  0.5572768961235196 0.1543033514199101 0  0.46053761103089 0.1958167551155251 0  0.4594991286269881 0.1948042433554141 0  0.6847228078606633 0.2950439151684559 0  0.684705644004414 0.2950179445246672 0  0.8041660810282256 0.2950439151684557 0  0.683693131164073 0.2960564280087975 0  0.8041832448844747 0.2950179445246651 0  0.6836931322354718 0.2150546841737125 0  0.8051957566534156 0.2960564269373971 0  0.6847056440044141 0.2160931665864439 0  0.9029735447036096 0.2555555555555555 0  0.6847228078606632 0.2160671959426553 0  0.8051957577274008 0.2150546830997286 0  0.8041660810282256 0.2160671959426553 0  0.8041832448844747 0.2160931665864459 0  0.2960564280235811 0.560751313295155 0  0.3128324516790751 0.6012522041356455 0  0.2950179445246645 0.5597388004400315 0  0.2150546830875235 0.5607513132951615 0  0.2950439151684557 0.5597216365837812 0  0.2160931665864466 0.5597388004400314 0  0.2950439151684558 0.4402783634162188 0  0.2160671959426553 0.5597216365837812 0  0.2950179445246656 0.4402611995599696 0  0.2402186956051895 0.5 0  0.29605642693739 0.439248687791036 0  0.2160671959426553 0.4402783634162189 0  0.3128324516790751 0.3987477958643545 0  0.2160931665864455 0.4402611995599696 0  0.2150546830875296 0.4392486867048446 0  0.1958339189717743 0.7839328040573448 0  0.1958167551155252 0.7839068334135562 0  0.3152771921393367 0.7839328040573447 0  0.1948042422604028 0.7849453169124678 0  0.3152943559955858 0.783906833413554 0  0.1948042433465913 0.7039435730626098 0  0.3163068677645284 0.7849453158262878 0  0.1958167551155251 0.7049820554753328 0  0.4140846558147206 0.7444444444444445 0  0.1958339189717744 0.7049560848315441 0  0.3163068688486237 0.7039435719785058 0  0.3152771921393367 0.7049560848315441 0  0.3152943559955858 0.7049820554753349 0  0.4402783634162188 0.5394883596129003 0  0.4402611995599696 0.5394623889691117 0  0.5597216365837812 0.5394883596129002 0  0.4392486867048468 0.5405008724680237 0  0.5597388004400302 0.5394623889691096 0  0.4392486877998708 0.4594991286270004 0  0.5607513122089726 0.540500871381843 0  0.4402611995599696 0.4605376110308884 0  0.6585291002591651 0.5 0  0.4402783634162188 0.4605116403870998 0  0.5607513121946796 0.45949912863245 0  0.5597216365837812 0.4605116403870998 0  0.5597388004400302 0.4605376110308904 0  0.78494531690701 0.5607513132896949 0  0.8017213405679641 0.6012522041356455 0  0.7839068334135535 0.5597388004400315 0  0.7039435730626069 0.5607513122089671 0  0.7839328040573448 0.5597216365837812 0  0.7049820554753355 0.5597388004400314 0  0.7839328040573448 0.4402783634162188 0  0.7049560848315441 0.5597216365837812 0  0.7839068334135545 0.4402611995599696 0  0.7291075844940784 0.5 0  0.784945315826279 0.4392486877910359 0  0.7049560848315444 0.4402783634162188 0  0.8017213405679641 0.3987477958643545 0  0.7049820554753344 0.4402611995599696 0  0.7039435719764182 0.4392486867048443 0  0.5405008724625655 0.8051957577341393 0  0.5572768961235196 0.84569664858009 0  0.539462388969109 0.804183244884476 0  0.4594991286181648 0.8051957566534091 0  0.5394883596129003 0.8041660810282256 0  0.4605376110308911 0.804183244884476 0  0.5394883596129003 0.6847228078606633 0  0.4605116403870998 0.8041660810282256 0  0.53946238896911 0.6847056440044139 0  0.4846631400496339 0.7444444444444445 0  0.5405008713818347 0.6836931322354802 0  0.4605116403870998 0.6847228078606633 0  0.5572768961235196 0.643192240308799 0  0.46053761103089 0.6847056440044139 0  0.4594991275353449 0.6836931311526599 0  0.6847228078606633 0.7839328040573448 0  0.684705644004414 0.7839068334135562 0  0.8041660810282256 0.7839328040573447 0  0.6836931311493016 0.7849453169124578 0  0.8041832448844747 0.783906833413554 0  0.68369313223548 0.7039435730626096 0  0.805195756653417 0.7849453158262875 0  0.6847056440044141 0.7049820554753328 0  0.9029735447036096 0.7444444444444445 0  0.6847228078606633 0.7049560848315441 0  0.805195757738809 0.7039435719772094 0  0.8041660810282256 0.7049560848315441 0  0.8041832448844747 0.7049820554753349 0  0.9578164230213342 0.6948838683471341 0  0.9645772892192558 0.7062137009141434 0  0.9695236884064815 0.7184451175460498 0  0.972538971146615 0.7312896684428197 0  0.9725389711466151 0.7575992204460691 0  0.9695236884064815 0.7704437713428391 0  0.9645772892192558 0.7826751879747456 0  0.9578164230213342 0.7940050205417549 0  0.01437766570919127 0.09711967848259151 0  0.02854851642641832 0.09974531144948819 0  0.04161535472570586 0.1058251712658871 0  0.05275088139110013 0.1149743244732108 0  0.06125007411586489 0.1266135117968212 0  0.06657482449792251 0.1400058227212122 0  0.06643634307317195 0.1691277076584997 0  0.06071435336153361 0.1829418078690686 0  0.04134737123322858 0.3039103077764334 0  0.03416190609801732 0.2911362521989113 0  0.02925217947541549 0.2773267630846004 0  0.02676106927623143 0.2628837102534819 0  0.02676106927623143 0.2482274008576293 0  0.02925217947541547 0.2337843480265108 0  0.03416190609801727 0.2199748589121999 0  0.04134737123322851 0.2072008033346779 0  0.06071435387356935 0.328169304128914 0  0.06643634320569657 0.3419834039471998 0  0.06657482449792249 0.371105288389899 0  0.06125007411586481 0.3844975993142901 0  0.05275088139109994 0.3961367866379005 0  0.04161535472570563 0.4052859398452242 0  0.02854851642641818 0.411365799661623 0  0.01437766570919127 0.4139914326285196 0  0 0.4697526254167924 0  0 0.455563619650285 0  0 0.4413746138837777 0  0 0.4271856081172704 0  0.06095233986089402 0.4687284952262988 0  0.04995687430503332 0.4753797281664747 0  0.03809234373417287 0.4803165365228644 0  0.02562418374773841 0.4834284730529493 0  0.01283133446055119 0.4846459169037758 0  0.08372485599813187 0.4503967593658507 0  0.09753895276796982 0.4446747697099958 0  0.1123633055586467 0.4427231038764812 0  0.1271876590095525 0.4446747646950606 0  0.1410017577150834 0.45039674967774 0  0.1528641934757506 0.4594991149204779 0  0.161966560724962 0.471361549141524 0  0.1676885480442292 0.4851756468792086 0  0.1676885480443665 0.514824353120279 0  0.1619665607254926 0.528638450857557 0  0.1528641934768762 0.5405008850783964 0  0.1410017577169217 0.5496032503211987 0  0.1271876590121153 0.5553252353042526 0  0.1123633055618306 0.5572768961235188 0  0.09753895277155772 0.5553252302909656 0  0.08372485600180817 0.5496032406362719 0  0.0128313344605512 0.5153540830962242 0  0.0256241837477384 0.5165715269470507 0  0.03809234373417282 0.5196834634771356 0  0.04995687430503334 0.5246202718335253 0  0.06095233986089401
[...]
<PointData  Tensors="$\sigma$"> 
<DataArray  type="Float64"  Name="$\sigma$"  NumberOfComponents="9" format="ascii">-3.4227360965126622e+03 -3.8171615304128286e+03 0.0000000000000000e+00 -3.8171615304128286e+03 -3.8833892228131604e+03 0.0000000000000000e+00 0.0000000000000000e+00 0.0000000000000000e+00 0.0000000000000000e+00  -8.0400177011339638e+03 -6.8078464608875356e+03 0.0000000000000000e+00 -6.8078464608875356e+03 -6.6975550117235744e+03 0.0000000000000000e+00 0.0000000000000000e+00 0.0000000000000000e+00 0.0000000000000000e+00  -3.0005625853731090e+03 -3.9818976646270262e+03 0.0000000000000000e+00 -3.9818976646270253e+03 -4.5040652786089240e+03 0.0000000000000000e+00 0.0000000000000000e+00 0.0000000000000000e+00 0.0000000000000000e+00  1.1652078054101402e+02 5.4343703434088475e+01 0.0000000000000000e+00 5.4343703434088404e+01 -6.7148289626913738e+03 0.0000000000000000e+00 0.0000000000000000e+00 0.0000000000000000e+00 0.0000000000000000e+00  -2.5752465219054216e+03 3.2344513441101772e+03 0.0000000000000000e+00 3.2344513441101781e+03 -3.6163242157415257e+03 0.0000000000000000e+00 0.0000000000000000e+00 0.0000000000000000e+00 0.0000000000000000e+00  -6.6620757657539416e+03 6.0251617456927088e+03 0.0000000000000000e+00 6.0251617456927133e+03 -6.2016346449067651e+03 0.0000000000000000e+00 0.0000000000000000e+00 0.0000000000000000e+00 0.0000000000000000e+00  -2.4965888126811369e+03 2.7171697670129738e+03 0.0000000000000000e+00 2.7171697670129743e+03 -2.3675897876303025e+03 0.0000000000000000e+00 0.0000000000000000e+00 0.0000000000000000e+00 0.0000000000000000e+00  1.1153395854851638e+01 -2.0216936200958142e+00 0.0000000000000000e+00 -2.0216936200958000e+00 3.4265063746521505e+00 0.0000000000000000e+00 0.0000000000000000e+00 0.0000000000000000e+00 0.0000000000000000e+00  8.5465259397755929e+01 3.0316771353439833e+01 0.0000000000000000e+00 3.0316771353439929e+01 6.7356316795347648e+03 0.0000000000000000e+00 0.0000000000000000e+00 0.0000000000000000e+00 0.0000000000000000e+00  -2.4072131448684049e+03 2.5619541225223456e+03 0.0000000000000000e+00 2.5619541225223484e+03 -2.6159510301042660e+03 0.0000000000000000e+00 0.0000000000000000e+00 0.0000000000000000e+00 0.0000000000000000e+00  -6.5055853969363261e+03 5.8976836440597754e+03 0.0000000000000000e+00 5.8976836440597735e+03 -5.7921370013231763e+03 0.0000000000000000e+00 0.0000000000000000e+00 0.0000000000000000e+00 0.0000000000000000e+00  -2.4862761435126431e+03 3.1625952633675811e+03 0.0000000000000000e+00 3.1625952633675820e+03 -3.4589350582663837e+03 0.0000000000000000e+00 0.0000000000000000e+00 0.0000000000000000e+00 0.0000000000000000e+00  -2.8078360046555308e+03 -3.8872597381479700e+03 0.0000000000000000e+00 -3.8872597381479741e+03 -4.1038538157861640e+03 0.0000000000000000e+00 0.0000000000000000e+00 0.0000000000000000e+00 0.0000000000000000e+00  -7.9817795263863800e+03 -6.5508183862765409e+03 0.0000000000000000e+00 -6.5508183862765445e+03 -6.7280751610880052e+03 0.0000000000000000e+00 0.0000000000000000e+00 0.0000000000000000e+00 0.0000000000000000e+00  -3.1374741931134886e+03 -3.7973450922358770e+03 0.0000000000000000e+00 -3.7973450922358720e+03 -3.6840163109110263e+03 0.0000000000000000e+00 0.0000000000000000e+00 0.0000000000000000e+00 0.0000000000000000e+00  1.3012202671548215e+02 -9.1105846633088969e+00 0.0000000000000000e+00 -9.1105846633088028e+00 2.2845391591196139e+03 0.0000000000000000e+00 0.0000000000000000e+00 0.0000000000000000e+00 0.0000000000000000e+00  6.9911762151896273e-01 -3.7421799355489005e-01 0.0000000000000000e+00 -3.7421799355488905e-01 -4.6286795834586449e+00 0.0000000000000000e+00 0.0000000000000000e+00 0.0000000000000000e+00 0.0000000000000000e+00  -1.7648466939076043e-01 2.1602984507837492e-01 0.0000000000000000e+00 2.1602984507837469e-01 9.9134899798471621e-01 0.0000000000000000e+00 0.0000000000000000e+00 0.0000000000000000e+00 0.0000000000000000e+00  -2.5987577105092647e+01 2.6441035849316865e+01 0.0000000000000000e+00 2.6441035849316890e+01 -1.5511538378467190e+01 0.0000000000000000e+00 0.0000000000000000e+00 0.0000000000000000e+00 0.0000000000000000e+00  -3.1662165056771997e+01 2.5049793392692727e+00 0.0000000000000000e+00 2.5049793392693034e+00 -1.5293986967375634e+01 0.0000000000000000e+00 0.0000000000000000e+00 0.0000000000000000e+00 0.0000000000000000e+00  -3.5186211708839423e+01 6.5410738568558131e+01 0.0000000000000000e+00 6.5410738568558088e+01 -6.1703722157166347e+01 0.0000000000000000e+00 0.0000000000000000e+00 0.0000000000000000e+00 0.0000000000000000e+00  1.8449730343778806e+03 -1.5765034327091922e+02 0.0000000000000000e+00 -1.5765034327091894e+02 1.3938976056242176e+04 0.0000000000000000e+00 0.0000000000000000e+00 0.0000000000000000e+00 0.0000000000000000e+00  -4.8789558841701393e+01 -9.3081424311531876e+01 0.0000000000000000e+00 -9.3081424311531734e+01 -4.6546309359195106e+01 0.0000000000000000e+00 0.0000000000000000e+00 0.0000000000000000e+00 0.0000000000000000e+00  5.5273362931479490e+01 9.3716528583180661e+01 0.0000000000000000e+00 9.3716528583180647e+01 3.4025955605147729e+01 0.0000000000000000e+00 0.0000000000000000e+00 0.0000000000000000e+00 0.0000000000000000e+00  -2.5373409699820002e+01 -2.1649462525406229e+01 0.0000000000000000e+00 -2.1649462525406264e+01 -6.0738291623881508e+00 0.0000000000000000e+00 0.0000000000000000e+00 0.0000000000000000e+00 0.0000000000000000e+00  1.4972711961728893e-01 -2.3361855999210962e-01 0.0000000000000000e+00 -2.3361855999210945e-01 7.1918471072454504e-01 0.0000000000000000e+00 0.0000000000000000e+00 0.0000000000000000e+00 0.0000000000000000e+00  -2.0619617917931879e-01 -4.5414651136044766e+00 0.0000000000000000e+00 -4.5414651136044748e+00 7.4515128056640201e-01 0.0000000000000000e+00 0.0000000000000000e+00 0.0000000000000000e+00 0.0000000000000000e+00  6.6125145162756723e+01 -6.1881321658006968e+01 0.0000000000000000e+00 -6.1881321658007010e+01 2.4097938145249100e+03 0.0000000000000000e+00 0.0000000000000000e+00 0.0000000000000000e+00 0.0000000000000000e+00  -3.3172157021837584e+03 3.8907144658510465e+03 0.0000000000000000e+00 3.8907144658510474e+03 -3.8288359490372977e+03 0.0000000000000000e+00 0.0000000000000000e+00 0.0000000000000000e+00 0.0000000000000000e+00  -7.5921891710912232e+03 6.3879576390914308e+03 0.0000000000000000e+00 6.3879576390914253e+03 -5.8407863565141215e+03 0.0000000000000000e+00 0.0000000000000000e+00 0.0000000000000000e+00 0.0000000000000000e+00  -2.8456207027938917e+03 3.7458919962326117e+03 0.0000000000000000e+00 3.7458919962326149e+03 -4.6778575357726650e+03 0.0000000000000000e+00 0.0000000000000000e+00 0.0000000000000000e+00 0.0000000000000000e+00  -2.4769955408338901e+03 -3.1385316409942989e+03 0.0000000000000000e+00 -3.1385316409942984e+03 -3.4944983893162234e+03 0.0000000000000000e+00 0.0000000000000000e+00 0.0000000000000000e+00 0.0000000000000000e+00  -6.3581636338882272e+03 -5.7353864007137563e+03 0.0000000000000000e+00 -5.7353864007137572e+03 -5.9107433748070025e+03 0.0000000000000000e+00 0.0000000000000000e+00 0.0000000000000000e+00 0.0000000000000000e+00  -2.4566754900731635e+03 -2.6316164057495184e+03 0.0000000000000000e+00 -2.6316164057495171e+03 -2.2995685436977042e+03 0.0000000000000000e+00 0.0000000000000000e+00 0.0000000000000000e+00 0.0000000000000000e+00  2.4346674697564666e+02 -2.2327235156862528e+02 0.0000000000000000e+00 -2.2327235156862520e+02 6.3478593186588623e+03 0.0000000000000000e+00 0.0000000000000000e+00 0.0000000000000000e+00 0.0000000000000000e+00  -6.2536150034529967e+01 3.1561598790257968e+01 0.0000000000000000e+00 3.1561598790257953e+01 -3.0649909826057424e+01 0.0000000000000000e+00 0.0000000000000000e+00 0.0000000000000000e+00 0.0000000000000000e+00  2.6113563815772878e+00 6.8413325902063145e+00 0.0000000000000000e+00 6.8413325902063145e+00 4.6027377804593181e+02 0.0000000000000000e+00 0.0000000000000000e+00 0.0000000000000000e+00 0.0000000000000000e+00  3.1681456512235648e+00 -8.1144793029120859e+00 0.0000000000000000e+00 -8.1144793029120930e+00 4.7085761529009494e+02 0.0000000000000000e+00 0.0000000000000000e+00 0.0000000000000000e+00 0.0000000000000000e+00  1.4692875396418753e+01 -2.7074952698028243e+00 0.0000000000000000e+00 -2.7074952698028083e+00 -1.7558726714324408e+01 0.0000000000000000e+00 0.0000000000000000e+00 0.0000000000000000e+00 0.0000000000000000e+00  -1.1725782388293227e+00 -4.7164879312548347e-01 0.0000000000000000e+00 -4.7164879312548069e-01 -3.3801250424045493e+00 0.0000000000000000e+00 0.0000000000000000e+00 0.0000000000000000e+00 0.0000000000000000e+00  4.9068893323583058e-02 3.2284712345234284e-01 0.0000000000000000e+00 3.2284712345234257e-01 6.1347645922866711e-01 0.0000000000000000e+00 0.0000000000000000e+00 0.0000000000000000e+00 0.0000000000000000e+00  -2.9770409009503783e+01 3.1954722496209392e+01 0.0000000000000000e+00 3.1954722496209413e+01 -2.1028944154750494e+01 0.0000000000000000e+00 0.0000000000000000e+00 0.0000000000000000e+00 0.0000000000000000e+00  -4.0210573666650440e+01 -2.1924209515122953e+01 0.0000000000000000e+00 -2.1924209515122961e+01 -8.1718978996678739e+00 0.0000000000000000e+00 0.0000000000000000e+00 0.0000000000000000e+00 0.0000000000000000e+00  -4.7724191705180727e+00 6.7544264162631649e+01 0.0000000000000000e+00 6.7544264162631677e+01 -4.5858983834537831e+01 0.0000000000000000e+00 0.0000000000000000e+00 0.0000000000000000e+00 0.0000000000000000e+00  -3.3096914185371752e+01 -7.1810632793950830e+01 0.0000000000000000e+00 -7.1810632793950816e+01 -5.8047556686572968e+01 0.0000000000000000e+00 0.0000000000000000e+00 0.0000000000000000e+00 0.0000000000000000e+00  -5.1038914640603942e+01 -2.7521649811144698e+01 0.0000000000000000e+00 -2.7521649811144691e+01 -5.7915916160552484e+01 0.0000000000000000e+00 0.0000000000000000e+00 0.0000000000000000e+00 0.0000000000000000e+00  -3.5042167931124901e+01 -1.9188993890214512e+01 0.0000000000000000e+00 -1.9188993890214526e+01 -1.5981315836679680e-01 0.0000000000000000e+00 0.0000000000000000e+00 0.0000000000000000e+00 0.0000000000000000e+00  -3.4790712828563797e-01 -3.5698068028840357e-01 0.0000000000000000e+00 -3.5698068028840385e-01 -1.0416585245002487e-01 0.0000000000000000e+00 0.0000000000000000e+00 0.0000000000000000e+00 0.0000000000000000e+00  -3.8003076378340523e+00 -1.0689763578105052e+00 0.0000000000000000e+00 -1.0689763578105027e+00 -2.5801774096813870e+00 0.0000000000000000e+00 0.0000000000000000e+00 0.0000000000000000e+00 0.0000000000000000e+00  -3.0731798230460095e+03 3.5624037584107323e+03 0.0000000000000000e+00 3.5624037584107318e+03 -3.6208777236261035e+03 0.0000000000000000e+00 0.0000000000000000e+00 0.0000000000000000e+00 0.0000000000000000e+00  -7.8247283721896729e+03 6.6797550024857064e+03 0.0000000000000000e+00 6.6797550024857055e+03 -6.3612649871816420e+03 0.0000000000000000e+00 0.0000000000000000e+00 0.0000000000000000e+00 0.0000000000000000e+00  -3.0572120463131810e+03 3.9195962949189884e+03 0.0000000000000000e+00 3.9195962949189893e+03 -4.5900279433173009e+03 0.0000000000000000e+00 0.0000000000000000e+00 0.0000000000000000e+00 0.0000000000000000e+00  1.3769219310712452e+02 4.4854564052410808e+01 0.0000000000000000e+00 4.4854564052410964e+01 -6.6840968684482650e+03 0.0000000000000000e+00 0.0000000000000000e+00 0.0000000000000000e+00 0.0000000000000000e+00  -2.3243726425878017e+03 -3.1364786459736483e+03 0.0000000000000000e+00 -3.1364786459736479e+03 -3.4532485130952496e+03 0.0000000000000000e+00 0.0000000000000000e+00 0.0000000000000000e+00 0.0000000000000000e+00  -7.4671371035176762e+03 -6.6879544918841220e+03 0.0000000000000000e+00 -6.6879544918841211e+03 -6.4391576972946468e+03 0.0000000000000000e+00 0.0000000000000000e+00 0.0000000000000000e+00 0.0000000000000000e+00  -2.3786755664325447e+03 -2.5630107759317580e+03 0.0000000000000000e+00 -2.5630107759317561e+03 -2.7994538653026411e+03 0.0000000000000000e+00 0.0000000000000000e+00 0.0000000000000000e+00 0.0000000000000000e+00  -4.1553690564027747e+01 1.4814363122078412e+01 0.0000000000000000e+00 1.4814363122078422e+01 -7.9799627637866815e+00 0.0000000000000000e+00 0.0000000000000000e+00 0.0000000000000000e+00 0.0000000000000000e+00  1.9871034777158707e+00 5.2847514960956179e+00 0.0000000000000000e+00 5.2847514960956223e+00 4.6311428681670048e+02 0.0000000000000000e+00 0.0000000000000000e+00 0.0000000000000000e+00 0.0000000000000000e+00  1.2458075868994288e+02 9.9086137584740626e+01 0.0000000000000000e+00 9.9086137584740655e+01 5.6233168700182569e+02 0.0000000000000000e+00 0.0000000000000000e+00 0.0000000000000000e+00 0.0000000000000000e+00  -6.1080889660187331e+03 6.2441999960719722e+03 0.0000000000000000e+00 6.2441999960719713e+03 -5.0990822018941590e+03 0.0000000000000000e+00 0.0000000000000000e+00 0.0000000000000000e+00 0.0000000000000000e+00  -5.1200482602830898e+03 5.6410016176856625e+03 0.0000000000000000e+00 5.6410016176856625e+03 -6.6346543974320721e+03 0.0000000000000000e+00 0.0000000000000000e+00 0.0000000000000000e+00 0.0000000000000000e+00  -5.9846162696990359e+03 -5.0783309981720013e+03 0.0000000000000000e+00 -5.0783309981720013e+03 -3.7655505559116395e+03 0.0000000000000000e+00 0.0000000000000000e+00 0.0000000000000000e+00 0.0000000000000000e+00  -6.2693261606887154e+03 5.6727637333431649e+03 0.0000000000000000e+00 5.6727637333431649e+03 -5.3064908875729479e+03 0.0000000000000000e+00 0.0000000000000000e+00 0.0000000000000000e+00 0.0000000000000000e+00  -4.6949806985306632e+03 -5.6732062309020139e+03 0.0000000000000000e+00 -5.6732062309020030e+03 -7.8308344459106947e+03 0.0000000000000000e+00 0.0000000000000000e+00 0.0000000000000000e+00 0.0000000000000000e+00  -1.0689594389844196e+03 -9.8661920250538924e+02 0.0000000000000000e+00 -9.8661920250538822e+02 -7.4063288298327416e+02 0.0000000000000000e+00 0.0000000000000000e+00 0.0000000000000000e+00 0.0000000000000000e+00  -6.5759433958212294e+03 -6.1745120916218657e+03 0.0000000000000000e+00 -6.1745120916218684e+03 -4.9393910436504457e+03 0.0000000000000000e+00 0.0000000000000000e+00 0.0000000000000000e+00 0.0000000000000000e+00  -3.7302086532659558e+02 -4.0783372731932150e+02 0.0000000000000000e+00 -4.0783372731932201e+02 -7.3405452811726070e+02 0.0000000000000000e+00 0.0000000000000000e+00 0.0000000000000000e+00 0.0000000000000000e+00  3.5576454094570176e+03 3.8536647624002620e+02 0.0000000000000000e+00 3.8536647624002643e+02 1.5295274071641070e+04 0.0000000000000000e+00 0.0000000000000000e+00 0.0000000000000000e+00 0.0000000000000000e+00  -5.1073882895519978e+02 -5.2612979955485241e+02 0.0000000000000000e+00 -5.2612979955485196e+02 -3.9929421064950526e+02 0.0000000000000000e+00 0.0000000000000000e+00 0.0000000000000000e+00 0.0000000000000000e+00  -1.2493788920731877e+03 1.1961459580859885e+03 0.0000000000000000e+00 1.1961459580859878e+03 -8.9388527811092945e+02 0.0000000000000000e+00 0.0000000000000000e+00 0.0000000000000000e+00 0.0000000000000000e+00  -9.8185957044385032e+02 7.2510434461288355e+02 0.0000000000000000e+00 7.2510434461288446e+02 -5.7290083280653744e+02 0.0000000000000000e+00 0.0000000000000000e+00 0.0000000000000000e+00 0.0000000000000000e+00  4.1602412721062996e+02 -1.2954955543081169e+02 0.0000000000000000e+00 -1.2954955543081186e+02 -2.9362478663197584e+02 0.0000000000000000e+00 0.0000000000000000e+00 0.0000000000000000e+00 0.0000000000000000e+00  -4.9287882912212172e+03 -6.0025487209468984e+03 0.0000000000000000e+00 -6.0025487209468974e+03 -5.1662429742230197e+03 0.0000000000000000e+00 0.0000000000000000e+00 0.0000000000000000e+00 0.0000000000000000e+00  5.2685174568524712e+02 -2.3821764240588047e+02 0.0000000000000000e+00 -2.3821764240587979e+02 5.0339943227460999e+03 0.0000000000000000e+00 0.0000000000000000e+00 0.0000000000000000e+00 0.0000000000000000e+00  -7.8927518482419373e+03 -5.5825912950903885e+03 0.0000000000000000e+00 -5.5825912950903885e+03 -6.2124825626487491e+03 0.0000000000000000e+00 0.0000000000000000e+00 0.0000000000000000e+00 0.0000000000000000e+00  -4.8136425079624551e+03 6.2453311531045656e+03 0.0000000000000000e+00 6.2453311531045647e+03 -5.6757841323422472e+03 0.0000000000000000e+00 0.0000000000000000e+00 0.0000000000000000e+00 0.0000000000000000e+00  -4.5722983244283387e+03 -5.9897029115398309e+03 0.0000000000000000e+00 -5.9897029115398327e+03 -6.9484894569856870e+03 0.0000000000000000e+00 0.0000000000000000e+00 0.0000000000000000e+00 0.0000000000000000e+00  -7.5952897360668385e+03 5.4478315056292686e+03 0.0000000000000000e+00 5.4478315056292759e+03 -5.5519385792110152e+03 0.0000000000000000e+00 0.0000000000000000e+00 0.0000000000000000e+00 0.0000000000000000e+00  2.8032004117139161e+02 -1.8155538275162596e+02 0.0000000000000000e+00 -1.8155538275162579e+02 8.8511367280810884e+02 0.0000000000000000e+00 0.0000000000000000e+00 0.0000000000000000e+00 0.0000000000000000e+00  -5.0006842146054996e+03 6.0231332625585219e+03 0.0000000000000000e+00 6.0231332625585255e+03 -7.2201334305009241e+03 0.0000000000000000e+00 0.0000000000000000e+00 0.0000000000000000e+00 0.0000000000000000e+00  -3.2283656151067830e+03 4.6595860667513871e+03 0.0000000000000000e+00 4.6595860667513889e+03 -5.7839497493131839e+03 0.0000000000000000e+00 0.0000000000000000e+00 0.0000000000000000e+00 0.0000000000000000e+00  1.4930323459113984e+02 -5.7991655226024747e+01 0.0000000000000000e+00 -5.7991655226024015e+01 -6.7516509385572117e+03 0.0000000000000000e+00 0.0000000000000000e+00 0.0000000000000000e+00 0.0000000000000000e+00  1.6953119194786295e+03 -3.2766972574950610e+03 0.0000000000000000e+00 -3.2766972574950614e+03 3.7870272819823936e+03 0.0000000000000000e+00 0.0000000000000000e+00 0.0000000000000000e+00 0.0000000000000000e+00  5.4215106109090947e+01 7.0857769043885048e+02 0.0000000000000000e+00 7.0857769043884980e+02 1.6512040056713117e+03 0.0000000000000000e+00 0.0000000000000000e+00 0.0000000000000000e+00 0.0000000000000000e+00  1.5894971328578747e+03 -5.4828930637111606e+00 0.0000000000000000e+00 -5.4828930637115443e+00 1.3135521155098859e+04 0.0000000000000000e+00 0.0000000000000000e+00 0.0000000000000000e+00 0.0000000000000000e+00  -2.7855639531585080e+03 -4.6919680319956642e+03 0.0000000000000000e+00 -4.6919680319956633e+03 -6.1723036763226819e+03 0.0000000000000000e+00 0.0000000000000000e+00 0.0000000000000000e+00 0.0000000000000000e+00  1.4842127070841211e+03 2.8579616055418005e+03 0.0000000000000000e+00 2.8579616055417996e+03 3.4408820048518819e+03 0.0000000000000000e+00 0.0000000000000000e+00 0.0000000000000000e+00 0.0000000000000000e+00  -5.9779637831550363e+03 5.1478079993335377e+03 0.0000000000000000e+00 5.1478079993335377e+03 -3.8864223932597292e+03 0.0000000000000000e+00 0.0000000000000000e+00 0.0000000000000000e+00 0.0000000000000000e+00  -5.3268416801235398e+03 5.8993158452335692e+03 0.0000000000000000e+00 5.8993158452335692e+03 -8.2159292034280406e+03 0.0000000000000000e+00 0.0000000000000000e+00 0.0000000000000000e+00 0.0000000000000000e+00  -6.3352141966342933e+03 -6.1396014660199162e+03 0.0000000000000000e+00 -6.1396014660199162e+03 -4.8501041151256732e+03 0.0000000000000000e+00 0.0000000000000000e+00 0.0000000000000000e+00 0.0000000000000000e+00  -6.4691798600132706e+03 6.0588802410554763e+03 0.0000000000000000e+00 6.0588802410554763e+03 -4.8418664606749699e+03 0.0000000000000000e+00 0.0000000000000000e+00 0.0000000000000000e+00 0.0000000000000000e+00  -5.4358733188480928e+03 -5.6709066288892782e+03 0.0000000000000000e+00 -5.6709066288892800e+03 -6.8856118272276562e+03 0.0000000000000000e+00 0.0000000000000000e+00 0.0000000000000000e+00 0.0000000000000000e+00  -1.5038010197806232e+03 -1.1939653431538850e+03 0.0000000000000000e+00 -1.1939653431538843e+03 -9.2792620774829425e+02 0.0000000000000000e+00 0.0000000000000000e+00 0.0000000000000000e+00 0.0000000000000000e+00  -5.6578396512856716e+03 -5.6846833057240901e+03 0.0000000000000000e+00 -5.6846833057240910e+03 -5.2537596952617714e+03 0.0000000000000000e+00 0.0000000000000000e+00 0.0000000000000000e+00 0.0000000000000000e+00  5.5138025388650044e+02 1.3935754601690806e+02 0.0000000000000000e+00 1.3935754601690755e+0