<?xml version="1.0"?>
<VTKFile type="UnstructuredGrid"  version="0.1"  >
<UnstructuredGrid>
<Piece  NumberOfPoints="4855" NumberOfCells="8780">
<Points>
<DataArray  type="Float64"  NumberOfComponents="3"  format="ascii">0.9483880164242298 0.6836931311526558 0  0.9494264999197789 0.6847056440044139 0  0.9494005292759887 0.6847228078606633 0  0.9735520289385229 0.7444444444444445 0  0.9494005292759886 0.8041660810282256 0  0.94942649991978 0.8041832448844759 0  0.9483880175070514 0.8051957566534116 0  3.131175874138137e-16 0.09811450876034808 0  0.06838800723463068 0.1543033514199101 0  0.05161198249294494 0.1948042433465922 0  0.0505735000802211 0.1958167551155251 0  0.05059947072401128 0.1958339189717744 0  0.0505994707240113 0.3152771921393367 0  0.05057350008021998 0.315294355995587 0  0.05161198357913653 0.3163068688507105 0  0.06838800723463068 0.356807759691201 0  3.252606517456513e-16 0.4129966023507631 0  -1.795438797635995e-16 0.4839416311832997 0  0.07083274769489223 0.4605116403870998 0  0.07084991155114129 0.4605376110308903 0  0.07186242331670639 0.4594991286215342 0  0.1696402113702762 0.5 0  0.07186242332008326 0.5405008713818427 0  0.0708499115511413 0.5394623889691096 0  0.07083274769489219 0.5394883596129002 0  -1.925543058334256e-16 0.5160583688167003 0  1.484923295436147e-15 0.5870033976492365 0  0.06838800723463068 0.643192240308799 0  0.05161198249294541 0.6836931322354806 0  0.05057350008022109 0.6847056440044139 0  0.0505994707240113 0.6847228078606633 0  0.0505994707240113 0.8041660810282256 0  0.05057350008021999 0.804183244884476 0  0.05161198249294764 0.8051957566534106 0  0.06838800723463068 0.84569664858009 0  1.485790657174135e-15 0.9018854912396524 0  0 1 0  1 1 0  0.9999999999999987 0.9018854912396523 0  1.000000000000001 0.5870033976492375 0  1 0.5160583688167003 0  0.9291672523051078 0.5394883596129003 0  0.9291500884488585 0.5394623889691117 0  0.9281375755937461 0.5405008724680134 0  0.9281375755937372 0.4594991275319777 0  0.9291500884488586 0.4605376110308884 0  0.9291672523051077 0.4605116403870997 0  1 0.4839416311832997 0  0.9999999999999987 0.4129966023507635 0  0.948388017507054 0.31630686776452 0  0.94942649991978 0.3152943559955871 0  0.9494005292759886 0.3152771921393367 0  0.9735520289385229 0.2555555555555555 0  0.9494005292759888 0.1958339189717744 0  0.9494264999197789 0.1958167551155251 0  0.9483880164208631 0.1948042422604003 0  1.000000000000001 0.09811450876034861 0  1 0 0  0 0 0  0.1958339189717744 0.2950439151684559 0  0.1958167551155252 0.2950179445246672 0  0.3152771921393367 0.2950439151684557 0  0.1948042433481841 0.2960564269357975 0  0.3152943559955858 0.2950179445246651 0  0.1948042422604031 0.2150546830875326 0  0.3163068677645244 0.2960564269373949 0  0.1958167551155251 0.2160931665864439 0  0.4140846558147206 0.2555555555555555 0  0.1958339189717744 0.2160671959426553 0  0.3163068688489276 0.215054683089313 0  0.3152771921393367 0.2160671959426553 0  0.3152943559955858 0.2160931665864459 0  0.5405008724680257 0.3163068688507107 0  0.5572768961235196 0.356807759691201 0  0.5394623889691089 0.3152943559955871 0  0.459499128618165 0.3163068677645201 0  0.5394883596129003 0.3152771921393367 0  0.4605376110308911 0.3152943559955871 0  0.5394883596129001 0.1958339189717744 0  0.4605116403870998 0.3152771921393367 0  0.53946238896911 0.1958167551155251 0  0.4846631400496339 0.2555555555555555 0  0.5405008724680251 0.1948042422604009 0  0.4605116403870998 0.1958339189717744 0  0.5572768961235196 0.1543033514199101 0  0.46053761103089 0.1958167551155251 0  0.4594991286269881 0.1948042433554141 0  0.6847228078606633 0.2950439151684559 0  0.684705644004414 0.2950179445246672 0  0.8041660810282256 0.2950439151684557 0  0.683693131164073 0.2960564280087975 0  0.8041832448844747 0.2950179445246651 0  0.6836931322354718 0.2150546841737125 0  0.8051957566534156 0.2960564269373971 0  0.6847056440044141 0.2160931665864439 0  0.9029735447036096 0.2555555555555555 0  0.6847228078606632 0.2160671959426553 0  0.8051957577274008 0.2150546830997286 0  0.8041660810282256 0.2160671959426553 0  0.8041832448844747 0.2160931665864459 0  0.2960564280235811 0.560751313295155 0  0.3128324516790751 0.6012522041356455 0  0.2950179445246645 0.5597388004400315 0  0.2150546830875235 0.5607513132951615 0  0.2950439151684557 0.5597216365837812 0  0.2160931665864466 0.5597388004400314 0  0.2950439151684558 0.4402783634162188 0  0.2160671959426553 0.5597216365837812 0  0.2950179445246656 0.4402611995599696 0  0.2402186956051895 0.5 0  0.29605642693739 0.439248687791036 0  0.2160671959426553 0.4402783634162189 0  0.3128324516790751 0.3987477958643545 0  0.2160931665864455 0.4402611995599696 0  0.2150546830875296 0.4392486867048446 0  0.1958339189717743 0.7839328040573448 0  0.1958167551155252 0.7839068334135562 0  0.3152771921393367 0.7839328040573447 0  0.1948042422604028 0.7849453169124678 0  0.3152943559955858 0.783906833413554 0  0.1948042433465913 0.7039435730626098 0  0.3163068677645284 0.7849453158262878 0  0.1958167551155251 0.7049820554753328 0  0.4140846558147206 0.7444444444444445 0  0.1958339189717744 0.7049560848315441 0  0.3163068688486237 0.7039435719785058 0  0.3152771921393367 0.7049560848315441 0  0.3152943559955858 0.7049820554753349 0  0.4402783634162188 0.5394883596129003 0  0.4402611995599696 0.5394623889691117 0  0.5597216365837812 0.5394883596129002 0  0.4392486867048468 0.5405008724680237 0  0.5597388004400302 0.5394623889691096 0  0.4392486877998708 0.4594991286270004 0  0.5607513122089726 0.540500871381843 0  0.4402611995599696 0.4605376110308884 0  0.6585291002591651 0.5 0  0.4402783634162188 0.4605116403870998 0  0.5607513121946796 0.45949912863245 0  0.5597216365837812 0.4605116403870998 0  0.5597388004400302 0.4605376110308904 0  0.78494531690701 0.5607513132896949 0  0.8017213405679641 0.6012522041356455 0  0.7839068334135535 0.5597388004400315 0  0.7039435730626069 0.5607513122089671 0  0.7839328040573448 0.5597216365837812 0  0.7049820554753355 0.5597388004400314 0  0.7839328040573448 0.4402783634162188 0  0.7049560848315441 0.5597216365837812 0  0.7839068334135545 0.4402611995599696 0  0.7291075844940784 0.5 0  0.784945315826279 0.4392486877910359 0  0.7049560848315444 0.4402783634162188 0  0.8017213405679641 0.3987477958643545 0  0.7049820554753344 0.4402611995599696 0  0.7039435719764182 0.4392486867048443 0  0.5405008724625655 0.8051957577341393 0  0.5572768961235196 0.84569664858009 0  0.539462388969109 0.804183244884476 0  0.4594991286181648 0.8051957566534091 0  0.5394883596129003 0.8041660810282256 0  0.4605376110308911 0.804183244884476 0  0.5394883596129003 0.6847228078606633 0  0.4605116403870998 0.8041660810282256 0  0.53946238896911 0.6847056440044139 0  0.4846631400496339 0.7444444444444445 0  0.5405008713818347 0.6836931322354802 0  0.4605116403870998 0.6847228078606633 0  0.5572768961235196 0.643192240308799 0  0.46053761103089 0.6847056440044139 0  0.4594991275353449 0.6836931311526599 0  0.6847228078606633 0.7839328040573448 0  0.684705644004414 0.7839068334135562 0  0.8041660810282256 0.7839328040573447 0  0.6836931311493016 0.7849453169124578 0  0.8041832448844747 0.783906833413554 0  0.68369313223548 0.7039435730626096 0  0.805195756653417 0.7849453158262875 0  0.6847056440044141 0.7049820554753328 0  0.9029735447036096 0.7444444444444445 0  0.6847228078606633 0.7049560848315441 0  0.805195757738809 0.7039435719772094 0  0.8041660810282256 0.7049560848315441 0  0.8041832448844747 0.7049820554753349 0  0.9578164230213342 0.6948838683471341 0  0.9645772892192558 0.7062137009141434 0  0.9695236884064815 0.7184451175460498 0  0.972538971146615 0.7312896684428197 0  0.9725389711466151 0.7575992204460691 0  0.9695236884064815 0.7704437713428391 0  0.9645772892192558 0.7826751879747456 0  0.9578164230213342 0.7940050205417549 0  0.01437766570919127 0.09711967848259151 0  0.02854851642641832 0.09974531144948819 0  0.04161535472570586 0.1058251712658871 0  0.05275088139110013 0.1149743244732108 0  0.06125007411586489 0.1266135117968212 0  0.06657482449792251 0.1400058227212122 0  0.06643634307317195 0.1691277076584997 0  0.06071435336153361 0.1829418078690686 0  0.04134737123322858 0.3039103077764334 0  0.03416190609801732 0.2911362521989113 0  0.02925217947541549 0.2773267630846004 0  0.02676106927623143 0.2628837102534819 0  0.02676106927623143 0.2482274008576293 0  0.02925217947541547 0.2337843480265108 0  0.03416190609801727 0.2199748589121999 0  0.04134737123322851 0.2072008033346779 0  0.06071435387356935 0.328169304128914 0  0.06643634320569657 0.3419834039471998 0  0.06657482449792249 0.371105288389899 0  0.06125007411586481 0.3844975993142901 0  0.05275088139109994 0.3961367866379005 0  0.04161535472570563 0.4052859398452242 0  0.02854851642641818 0.411365799661623 0  0.01437766570919127 0.4139914326285196 0  0 0.4697526254167924 0  0 0.455563619650285 0  0 0.4413746138837777 0  0 0.4271856081172704 0  0.06095233986089402 0.4687284952262988 0  0.04995687430503332 0.4753797281664747 0  0.03809234373417287 0.4803165365228644 0  0.02562418374773841 0.4834284730529493 0  0.01283133446055119 0.4846459169037758 0  0.08372485599813187 0.4503967593658507 0  0.09753895276796982 0.4446747697099958 0  0.1123633055586467 0.4427231038764812 0  0.1271876590095525 0.4446747646950606 0  0.1410017577150834 0.45039674967774 0  0.1528641934757506 0.4594991149204779 0  0.161966560724962 0.471361549141524 0  0.1676885480442292 0.4851756468792086 0  0.1676885480443665 0.514824353120279 0  0.1619665607254926 0.528638450857557 0  0.1528641934768762 0.5405008850783964 0  0.1410017577169217 0.5496032503211987 0  0.1271876590121153 0.5553252353042526 0  0.1123633055618306 0.5572768961235188 0  0.09753895277155772 0.5553252302909656 0  0.08372485600180817 0.5496032406362719 0  0.0128313344605512 0.5153540830962242 0  0.0256241837477384 0.5165715269470507 0  0.03809234373417282 0.5196834634771356 0  0.04995687430503334 0.5246202718335253 0  0.06095233986089401
[...]
<PointData  Tensors="$\sigma$"> 
<DataArray  type="Float64"  Name="$\sigma$"  NumberOfComponents="9" format="ascii">-2.3510896125890481e+03 -2.5857070662633300e+03 0.0000000000000000e+00 -2.5857070662633305e+03 -2.5048501525028664e+03 0.0000000000000000e+00 0.0000000000000000e+00 0.0000000000000000e+00 0.0000000000000000e+00  -5.0674725971899852e+03 -4.3057387542358256e+03 0.0000000000000000e+00 -4.3057387542358247e+03 -4.2210750745597734e+03 0.0000000000000000e+00 0.0000000000000000e+00 0.0000000000000000e+00 0.0000000000000000e+00  -1.9319360994334215e+03 -2.6956208036269554e+03 0.0000000000000000e+00 -2.6956208036269554e+03 -3.0699779815840102e+03 0.0000000000000000e+00 0.0000000000000000e+00 0.0000000000000000e+00 0.0000000000000000e+00  1.0285075471290605e+02 4.7732576829074034e+01 0.0000000000000000e+00 4.7732576829074077e+01 -4.4283609256831578e+03 0.0000000000000000e+00 0.0000000000000000e+00 0.0000000000000000e+00 0.0000000000000000e+00  -1.7002618134914239e+03 2.2048225476843577e+03 0.0000000000000000e+00 2.2048225476843591e+03 -2.5198489115336265e+03 0.0000000000000000e+00 0.0000000000000000e+00 0.0000000000000000e+00 0.0000000000000000e+00  -4.0921828929323046e+03 3.6966401896495777e+03 0.0000000000000000e+00 3.6966401896495759e+03 -3.8771472433442386e+03 0.0000000000000000e+00 0.0000000000000000e+00 0.0000000000000000e+00 0.0000000000000000e+00  -1.7758412671407468e+03 1.8567175558377944e+03 0.0000000000000000e+00 1.8567175558377965e+03 -1.5075558513482979e+03 0.0000000000000000e+00 0.0000000000000000e+00 0.0000000000000000e+00 0.0000000000000000e+00  -5.8536408942605274e+00 -3.3781784767642189e+00 0.0000000000000000e+00 -3.3781784767642229e+00 -5.6516351127283659e+00 0.0000000000000000e+00 0.0000000000000000e+00 0.0000000000000000e+00 0.0000000000000000e+00  9.3180710021390738e+01 3.7081339859818137e+01 0.0000000000000000e+00 3.7081339859818215e+01 5.1552881767133185e+03 0.0000000000000000e+00 0.0000000000000000e+00 0.0000000000000000e+00 0.0000000000000000e+00  -1.7212616130980782e+03 1.7997902787263106e+03 0.0000000000000000e+00 1.7997902787263106e+03 -1.6522729044321870e+03 0.0000000000000000e+00 0.0000000000000000e+00 0.0000000000000000e+00 0.0000000000000000e+00  -4.0645965989085666e+03 3.6107377906133188e+03 0.0000000000000000e+00 3.6107377906133188e+03 -3.6978845513648130e+03 0.0000000000000000e+00 0.0000000000000000e+00 0.0000000000000000e+00 0.0000000000000000e+00  -1.6129586546359194e+03 2.1649977013835842e+03 0.0000000000000000e+00 2.1649977013835842e+03 -2.3940744518560373e+03 0.0000000000000000e+00 0.0000000000000000e+00 0.0000000000000000e+00 0.0000000000000000e+00  -1.8827294813744741e+03 -2.5983930028738810e+03 0.0000000000000000e+00 -2.5983930028738814e+03 -2.8642047273780595e+03 0.0000000000000000e+00 0.0000000000000000e+00 0.0000000000000000e+00 0.0000000000000000e+00  -4.9661292137893188e+03 -4.1187186863063762e+03 0.0000000000000000e+00 -4.1187186863063780e+03 -4.1298190251598917e+03 0.0000000000000000e+00 0.0000000000000000e+00 0.0000000000000000e+00 0.0000000000000000e+00  -2.2183525375697950e+03 -2.6019540729804794e+03 0.0000000000000000e+00 -2.6019540729804789e+03 -2.4941082592708267e+03 0.0000000000000000e+00 0.0000000000000000e+00 0.0000000000000000e+00 0.0000000000000000e+00  8.3154155520747324e+01 -1.5499609902372857e+01 0.0000000000000000e+00 -1.5499609902372756e+01 1.8712499163953994e+03 0.0000000000000000e+00 0.0000000000000000e+00 0.0000000000000000e+00 0.0000000000000000e+00  5.9126933072833499e-01 -4.0637657378929842e-01 0.0000000000000000e+00 -4.0637657378929792e-01 -2.9732402530416042e+00 0.0000000000000000e+00 0.0000000000000000e+00 0.0000000000000000e+00 0.0000000000000000e+00  -7.5779292442364893e-02 1.7605229500241432e-01 0.0000000000000000e+00 1.7605229500241393e-01 4.0439091751968570e-01 0.0000000000000000e+00 0.0000000000000000e+00 0.0000000000000000e+00 0.0000000000000000e+00  -2.0576479639485822e+01 2.0629173110319840e+01 0.0000000000000000e+00 2.0629173110319854e+01 -1.1671372548142244e+01 0.0000000000000000e+00 0.0000000000000000e+00 0.0000000000000000e+00 0.0000000000000000e+00  -1.2698531546085732e+01 1.6331845577060737e+00 0.0000000000000000e+00 1.6331845577060953e+00 -1.4647363237048953e+01 0.0000000000000000e+00 0.0000000000000000e+00 0.0000000000000000e+00 0.0000000000000000e+00  -4.2416000713058587e+01 5.5800540991517586e+01 0.0000000000000000e+00 5.5800540991517558e+01 -5.0772514158734197e+01 0.0000000000000000e+00 0.0000000000000000e+00 0.0000000000000000e+00 0.0000000000000000e+00  3.2916488517028874e+03 -4.8561133049542555e+01 0.0000000000000000e+00 -4.8561133049542555e+01 1.4777556491969215e+04 0.0000000000000000e+00 0.0000000000000000e+00 0.0000000000000000e+00 0.0000000000000000e+00  -4.7649858751511687e+01 -7.7695114584401338e+01 0.0000000000000000e+00 -7.7695114584401310e+01 -4.0478256511645732e+01 0.0000000000000000e+00 0.0000000000000000e+00 0.0000000000000000e+00 0.0000000000000000e+00  2.3499815459270380e+01 4.6890303235835198e+01 0.0000000000000000e+00 4.6890303235835205e+01 1.9639169866346973e+00 0.0000000000000000e+00 0.0000000000000000e+00 0.0000000000000000e+00 0.0000000000000000e+00  -2.1120255713382608e+01 -1.7456842299470271e+01 0.0000000000000000e+00 -1.7456842299470281e+01 -5.3887232955947928e+00 0.0000000000000000e+00 0.0000000000000000e+00 0.0000000000000000e+00 0.0000000000000000e+00  -1.1484486096180238e-01 -2.5105608237208055e-01 0.0000000000000000e+00 -2.5105608237208077e-01 2.1695368274873375e-01 0.0000000000000000e+00 0.0000000000000000e+00 0.0000000000000000e+00 0.0000000000000000e+00  1.2844397077916154e+00 -2.2962489137326654e+00 0.0000000000000000e+00 -2.2962489137326640e+00 9.5860457639223254e-02 0.0000000000000000e+00 0.0000000000000000e+00 0.0000000000000000e+00 0.0000000000000000e+00  6.5931977450686304e+01 -4.1056064208109561e+01 0.0000000000000000e+00 -4.1056064208109625e+01 1.9416336184544068e+03 0.0000000000000000e+00 0.0000000000000000e+00 0.0000000000000000e+00 0.0000000000000000e+00  -2.2342734513699293e+03 2.6195137056436160e+03 0.0000000000000000e+00 2.6195137056436160e+03 -2.4895630772860500e+03 0.0000000000000000e+00 0.0000000000000000e+00 0.0000000000000000e+00 0.0000000000000000e+00  -4.7622629690651420e+03 3.9040818686184066e+03 0.0000000000000000e+00 3.9040818686184070e+03 -3.5529162355922076e+03 0.0000000000000000e+00 0.0000000000000000e+00 0.0000000000000000e+00 0.0000000000000000e+00  -1.7985502896642859e+03 2.4977240268203459e+03 0.0000000000000000e+00 2.4977240268203459e+03 -3.1870866082483672e+03 0.0000000000000000e+00 0.0000000000000000e+00 0.0000000000000000e+00 0.0000000000000000e+00  -1.6090287191175560e+03 -2.1707695455093271e+03 0.0000000000000000e+00 -2.1707695455093267e+03 -2.4434271533761698e+03 0.0000000000000000e+00 0.0000000000000000e+00 0.0000000000000000e+00 0.0000000000000000e+00  -4.0082593338885649e+03 -3.5436458397895317e+03 0.0000000000000000e+00 -3.5436458397895317e+03 -3.7478866484371461e+03 0.0000000000000000e+00 0.0000000000000000e+00 0.0000000000000000e+00 0.0000000000000000e+00  -1.7523584569882908e+03 -1.8321185187505030e+03 0.0000000000000000e+00 -1.8321185187505032e+03 -1.5018143743547055e+03 0.0000000000000000e+00 0.0000000000000000e+00 0.0000000000000000e+00 0.0000000000000000e+00  2.5502829061813523e+02 -1.7206267910614051e+02 0.0000000000000000e+00 -1.7206267910614051e+02 4.8385646190492898e+03 0.0000000000000000e+00 0.0000000000000000e+00 0.0000000000000000e+00 0.0000000000000000e+00  -4.2672246880360341e+01 2.4863611003288685e+01 0.0000000000000000e+00 2.4863611003288661e+01 -2.2168237740984843e+01 0.0000000000000000e+00 0.0000000000000000e+00 0.0000000000000000e+00 0.0000000000000000e+00  7.2019202342718913e-01 5.2919291298759656e+00 0.0000000000000000e+00 5.2919291298759594e+00 3.5120388390874973e+02 0.0000000000000000e+00 0.0000000000000000e+00 0.0000000000000000e+00 0.0000000000000000e+00  1.5498972202139147e+00 -5.4910313466973673e+00 0.0000000000000000e+00 -5.4910313466973664e+00 3.5776473892531442e+02 0.0000000000000000e+00 0.0000000000000000e+00 0.0000000000000000e+00 0.0000000000000000e+00  -2.3907360341096648e+00 -3.0961900468081387e+00 0.0000000000000000e+00 -3.0961900468081405e+00 -1.6621862583581098e+01 0.0000000000000000e+00 0.0000000000000000e+00 0.0000000000000000e+00 0.0000000000000000e+00  1.7294264450691665e-01 -3.0971231673546162e-01 0.0000000000000000e+00 -3.0971231673546085e-01 -2.7513186880799281e+00 0.0000000000000000e+00 0.0000000000000000e+00 0.0000000000000000e+00 0.0000000000000000e+00  -1.0625494015066969e-01 2.3020048613530369e-01 0.0000000000000000e+00 2.3020048613530344e-01 2.5431199902314389e-01 0.0000000000000000e+00 0.0000000000000000e+00 0.0000000000000000e+00 0.0000000000000000e+00  -2.9520546609034295e+01 2.8791476082853212e+01 0.0000000000000000e+00 2.8791476082853240e+01 -1.6837518859533034e+01 0.0000000000000000e+00 0.0000000000000000e+00 0.0000000000000000e+00 0.0000000000000000e+00  -3.3476473727950314e+01 -1.8339205585233374e+00 0.0000000000000000e+00 -1.8339205585233624e+00 -1.9971704405312884e+01 0.0000000000000000e+00 0.0000000000000000e+00 0.0000000000000000e+00 0.0000000000000000e+00  -1.6982570943619862e+01 5.7522647020623843e+01 0.0000000000000000e+00 5.7522647020623872e+01 -4.4309449049837269e+01 0.0000000000000000e+00 0.0000000000000000e+00 0.0000000000000000e+00 0.0000000000000000e+00  -3.7322932237431381e+01 -6.4090856799901218e+01 0.0000000000000000e+00 -6.4090856799901161e+01 -4.5732880252611601e+01 0.0000000000000000e+00 0.0000000000000000e+00 0.0000000000000000e+00 0.0000000000000000e+00  -2.5127170854822470e+01 -1.2368995364662684e+01 0.0000000000000000e+00 -1.2368995364662743e+01 -3.8458016951747950e+01 0.0000000000000000e+00 0.0000000000000000e+00 0.0000000000000000e+00 0.0000000000000000e+00  -2.6078069258240795e+01 -1.3431928926360607e+01 0.0000000000000000e+00 -1.3431928926360623e+01 -2.7119048494831666e+00 0.0000000000000000e+00 0.0000000000000000e+00 0.0000000000000000e+00 0.0000000000000000e+00  2.3594020097718965e-02 -1.8081566365597704e-01 0.0000000000000000e+00 -1.8081566365597751e-01 1.0679185011647532e-01 0.0000000000000000e+00 0.0000000000000000e+00 0.0000000000000000e+00 0.0000000000000000e+00  -2.2033108797224825e+00 -6.2148333645801979e-01 0.0000000000000000e+00 -6.2148333645802045e-01 -1.5405541304576533e+00 0.0000000000000000e+00 0.0000000000000000e+00 0.0000000000000000e+00 0.0000000000000000e+00  -2.1711153088983542e+03 2.4338710821163340e+03 0.0000000000000000e+00 2.4338710821163349e+03 -2.2976084242894967e+03 0.0000000000000000e+00 0.0000000000000000e+00 0.0000000000000000e+00 0.0000000000000000e+00  -4.8619090930149168e+03 4.1268226561361662e+03 0.0000000000000000e+00 4.1268226561361662e+03 -4.0069057759191905e+03 0.0000000000000000e+00 0.0000000000000000e+00 0.0000000000000000e+00 0.0000000000000000e+00  -1.9249696939230837e+03 2.6375894616680148e+03 0.0000000000000000e+00 2.6375894616680139e+03 -3.1071013129193689e+03 0.0000000000000000e+00 0.0000000000000000e+00 0.0000000000000000e+00 0.0000000000000000e+00  1.0354386910202294e+02 3.7943110630956951e+01 0.0000000000000000e+00 3.7943110630956909e+01 -4.4309105632202300e+03 0.0000000000000000e+00 0.0000000000000000e+00 0.0000000000000000e+00 0.0000000000000000e+00  -1.5720237315544159e+03 -2.2192389203041048e+03 0.0000000000000000e+00 -2.2192389203041048e+03 -2.4717220000162811e+03 0.0000000000000000e+00 0.0000000000000000e+00 0.0000000000000000e+00 0.0000000000000000e+00  -4.5885213756907160e+03 -4.0862825000661960e+03 0.0000000000000000e+00 -4.0862825000661960e+03 -4.0417206104971683e+03 0.0000000000000000e+00 0.0000000000000000e+00 0.0000000000000000e+00 0.0000000000000000e+00  -1.7436699384462468e+03 -1.7936030494594286e+03 0.0000000000000000e+00 -1.7936030494594279e+03 -1.7779371766264223e+03 0.0000000000000000e+00 0.0000000000000000e+00 0.0000000000000000e+00 0.0000000000000000e+00  -3.6620774139403544e+01 1.5934648749226632e+01 0.0000000000000000e+00 1.5934648749226634e+01 -4.8742609651321382e+00 0.0000000000000000e+00 0.0000000000000000e+00 0.0000000000000000e+00 0.0000000000000000e+00  4.1449084639519518e-01 4.1077731234097747e+00 0.0000000000000000e+00 4.1077731234097810e+00 3.5655322891758294e+02 0.0000000000000000e+00 0.0000000000000000e+00 0.0000000000000000e+00 0.0000000000000000e+00  1.0075472500315692e+02 7.8764145444910028e+01 0.0000000000000000e+00 7.8764145444910028e+01 4.2945630539097988e+02 0.0000000000000000e+00 0.0000000000000000e+00 0.0000000000000000e+00 0.0000000000000000e+00  -5.6359654867595364e+03 4.6848600510883780e+03 0.0000000000000000e+00 4.6848600510883780e+03 -3.4730387834468556e+03 0.0000000000000000e+00 0.0000000000000000e+00 0.0000000000000000e+00 0.0000000000000000e+00  -4.2507496630204050e+03 5.5174841500129587e+03 0.0000000000000000e+00 5.5174841500129578e+03 -7.6714237074546081e+03 0.0000000000000000e+00 0.0000000000000000e+00 0.0000000000000000e+00 0.0000000000000000e+00  -4.2090812969405115e+03 -3.5189283695506933e+03 0.0000000000000000e+00 -3.5189283695506942e+03 -2.5345124056323912e+03 0.0000000000000000e+00 0.0000000000000000e+00 0.0000000000000000e+00 0.0000000000000000e+00  -6.6457690937698753e+03 5.9667157302952510e+03 0.0000000000000000e+00 5.9667157302952519e+03 -4.5604246370428418e+03 0.0000000000000000e+00 0.0000000000000000e+00 0.0000000000000000e+00 0.0000000000000000e+00  -3.2111654075218248e+03 -3.8617110870452198e+03 0.0000000000000000e+00 -3.8617110870452175e+03 -5.4651749341994609e+03 0.0000000000000000e+00 0.0000000000000000e+00 0.0000000000000000e+00 0.0000000000000000e+00  -8.4548451821978199e+02 -7.5981644325074330e+02 0.0000000000000000e+00 -7.5981644325074330e+02 -5.6730539047774346e+02 0.0000000000000000e+00 0.0000000000000000e+00 0.0000000000000000e+00 0.0000000000000000e+00  -4.6111465590052458e+03 -4.3870870687323841e+03 0.0000000000000000e+00 -4.3870870687323868e+03 -3.4206839477646868e+03 0.0000000000000000e+00 0.0000000000000000e+00 0.0000000000000000e+00 0.0000000000000000e+00  -3.2560869597944139e+02 -3.6039919182994419e+02 0.0000000000000000e+00 -3.6039919182994419e+02 -5.9378971333760978e+02 0.0000000000000000e+00 0.0000000000000000e+00 0.0000000000000000e+00 0.0000000000000000e+00  2.6369555624251225e+03 -1.3247700069749166e+02 0.0000000000000000e+00 -1.3247700069749175e+02 1.5257157533235397e+04 0.0000000000000000e+00 0.0000000000000000e+00 0.0000000000000000e+00 0.0000000000000000e+00  -3.8546551069860845e+02 -4.1085776947626039e+02 0.0000000000000000e+00 -4.1085776947626044e+02 -3.2391744610360701e+02 0.0000000000000000e+00 0.0000000000000000e+00 0.0000000000000000e+00 0.0000000000000000e+00  -1.0575474962621452e+03 9.3715310403290277e+02 0.0000000000000000e+00 9.3715310403290232e+02 -6.5395030055386724e+02 0.0000000000000000e+00 0.0000000000000000e+00 0.0000000000000000e+00 0.0000000000000000e+00  -7.5701425310738739e+02 5.6638963664800929e+02 0.0000000000000000e+00 5.6638963664800963e+02 -4.3535323699322146e+02 0.0000000000000000e+00 0.0000000000000000e+00 0.0000000000000000e+00 0.0000000000000000e+00  2.7159152477047559e+02 5.9921820705883420e+00 0.0000000000000000e+00 5.9921820705882265e+00 -3.7783680738812160e+02 0.0000000000000000e+00 0.0000000000000000e+00 0.0000000000000000e+00 0.0000000000000000e+00  -3.4830740206664937e+03 -4.0295084563867285e+03 0.0000000000000000e+00 -4.0295084563867276e+03 -3.5844959549081109e+03 0.0000000000000000e+00 0.0000000000000000e+00 0.0000000000000000e+00 0.0000000000000000e+00  3.3192011353178503e+02 -3.0955133642247944e+02 0.0000000000000000e+00 -3.0955133642247978e+02 3.2397311434691546e+03 0.0000000000000000e+00 0.0000000000000000e+00 0.0000000000000000e+00 0.0000000000000000e+00  -6.6616306580271457e+03 -5.3678075438483684e+03 0.0000000000000000e+00 -5.3678075438483693e+03 -5.4206528363949701e+03 0.0000000000000000e+00 0.0000000000000000e+00 0.0000000000000000e+00 0.0000000000000000e+00  -3.4522486583184523e+03 4.1952552805250980e+03 0.0000000000000000e+00 4.1952552805250953e+03 -3.7848580892440218e+03 0.0000000000000000e+00 0.0000000000000000e+00 0.0000000000000000e+00 0.0000000000000000e+00  -2.8104948178030204e+03 -3.8990710881758177e+03 0.0000000000000000e+00 -3.8990710881758177e+03 -4.4971560989431637e+03 0.0000000000000000e+00 0.0000000000000000e+00 0.0000000000000000e+00 0.0000000000000000e+00  -6.6363490752123953e+03 5.3470315665511553e+03 0.0000000000000000e+00 5.3470315665511571e+03 -5.1749094605228975e+03 0.0000000000000000e+00 0.0000000000000000e+00 0.0000000000000000e+00 0.0000000000000000e+00  1.2459012881683032e+02 -1.5333692170252715e+02 0.0000000000000000e+00 -1.5333692170252712e+02 3.7399552143609930e+02 0.0000000000000000e+00 0.0000000000000000e+00 0.0000000000000000e+00 0.0000000000000000e+00  -3.0461955447609794e+03 3.9667895722715589e+03 0.0000000000000000e+00 3.9667895722715580e+03 -4.7672787136993838e+03 0.0000000000000000e+00 0.0000000000000000e+00 0.0000000000000000e+00 0.0000000000000000e+00  -1.7049709585596559e+03 2.7163081340923745e+03 0.0000000000000000e+00 2.7163081340923745e+03 -3.4898065244022250e+03 0.0000000000000000e+00 0.0000000000000000e+00 0.0000000000000000e+00 0.0000000000000000e+00  1.5826659336954086e+02 -7.8203136110192645e+01 0.0000000000000000e+00 -7.8203136110192418e+01 -4.5274477822322187e+03 0.0000000000000000e+00 0.0000000000000000e+00 0.0000000000000000e+00 0.0000000000000000e+00  1.2344536899014379e+03 -2.3063317632850249e+03 0.0000000000000000e+00 -2.3063317632850244e+03 2.8698165222741745e+03 0.0000000000000000e+00 0.0000000000000000e+00 0.0000000000000000e+00 0.0000000000000000e+00  4.2422753357423062e+01 4.0040801552282892e+02 0.0000000000000000e+00 4.0040801552282886e+02 9.7424542751705974e+02 0.0000000000000000e+00 0.0000000000000000e+00 0.0000000000000000e+00 0.0000000000000000e+00  1.4147706725197881e+03 -1.2331971847683363e+02 0.0000000000000000e+00 -1.2331971847683391e+02 1.4392307649881412e+04 0.0000000000000000e+00 0.0000000000000000e+00 0.0000000000000000e+00 0.0000000000000000e+00  -1.5385648642673507e+03 -2.8509365848708253e+03 0.0000000000000000e+00 -2.8509365848708248e+03 -4.0825170614947288e+03 0.0000000000000000e+00 0.0000000000000000e+00 0.0000000000000000e+00 0.0000000000000000e+00  1.0882548258587526e+03 2.1392446198962070e+03 0.0000000000000000e+00 2.1392446198962057e+03 2.8103416538541801e+03 0.0000000000000000e+00 0.0000000000000000e+00 0.0000000000000000e+00 0.0000000000000000e+00  -4.2044171409085811e+03 3.5433398409915371e+03 0.0000000000000000e+00 3.5433398409915371e+03 -2.6330794876710906e+03 0.0000000000000000e+00 0.0000000000000000e+00 0.0000000000000000e+00 0.0000000000000000e+00  -3.6959657458642814e+03 4.4224279769731666e+03 0.0000000000000000e+00 4.4224279769731666e+03 -5.8950349976402222e+03 0.0000000000000000e+00 0.0000000000000000e+00 0.0000000000000000e+00 0.0000000000000000e+00  -5.7768600659683279e+03 -4.6431531541281156e+03 0.0000000000000000e+00 -4.6431531541281156e+03 -3.2502680748046796e+03 0.0000000000000000e+00 0.0000000000000000e+00 0.0000000000000000e+00 0.0000000000000000e+00  -4.6036203633198775e+03 4.2774609993095091e+03 0.0000000000000000e+00 4.2774609993095091e+03 -3.3663605408445706e+03 0.0000000000000000e+00 0.0000000000000000e+00 0.0000000000000000e+00 0.0000000000000000e+00  -3.7783022477288532e+03 -4.8214754181341905e+03 0.0000000000000000e+00 -4.8214754181341905e+03 -7.0681767245432566e+03 0.0000000000000000e+00 0.0000000000000000e+00 0.0000000000000000e+00 0.0000000000000000e+00  -1.2295853253759653e+03 -9.2939796682001065e+02 0.0000000000000000e+00 -9.2939796682001077e+02 -6.8067541691639474e+02 0.0000000000000000e+00 0.0000000000000000e+00 0.0000000000000000e+00 0.0000000000000000e+00  -6.3101733938180842e+03 -6.0469068285446519e+03 0.0000000000000000e+00 -6.0469068285446519e+03 -4.7567194625440889e+03 0.0000000000000000e+00 0.0000000000000000e+00 0.0000000000000000e+00 0.0000000000000000e+00  2.5320760445318075e+02 -1.2144746557333717e+02 0.0000000000000000e+00 -1.2144746557333711