<?xml version="1.0"?>
<VTKFile type="UnstructuredGrid"  version="0.1"  >
<UnstructuredGrid>
<Piece  NumberOfPoints="4855" NumberOfCells="8780">
<Points>
<DataArray  type="Float64"  NumberOfComponents="3"  format="ascii">0.9483880164242298 0.6836931311526558 0  0.9494264999197789 0.6847056440044139 0  0.9494005292759887 0.6847228078606633 0  0.9735520289385229 0.7444444444444445 0  0.9494005292759886 0.8041660810282256 0  0.94942649991978 0.8041832448844759 0  0.9483880175070514 0.8051957566534116 0  3.131175874138137e-16 0.09811450876034808 0  0.06838800723463068 0.1543033514199101 0  0.05161198249294494 0.1948042433465922 0  0.0505735000802211 0.1958167551155251 0  0.05059947072401128 0.1958339189717744 0  0.0505994707240113 0.3152771921393367 0  0.05057350008021998 0.315294355995587 0  0.05161198357913653 0.3163068688507105 0  0.06838800723463068 0.356807759691201 0  3.252606517456513e-16 0.4129966023507631 0  -1.795438797635995e-16 0.4839416311832997 0  0.07083274769489223 0.4605116403870998 0  0.07084991155114129 0.4605376110308903 0  0.07186242331670639 0.4594991286215342 0  0.1696402113702762 0.5 0  0.07186242332008326 0.5405008713818427 0  0.0708499115511413 0.5394623889691096 0  0.07083274769489219 0.5394883596129002 0  -1.925543058334256e-16 0.5160583688167003 0  1.484923295436147e-15 0.5870033976492365 0  0.06838800723463068 0.643192240308799 0  0.05161198249294541 0.6836931322354806 0  0.05057350008022109 0.6847056440044139 0  0.0505994707240113 0.6847228078606633 0  0.0505994707240113 0.8041660810282256 0  0.05057350008021999 0.804183244884476 0  0.05161198249294764 0.8051957566534106 0  0.06838800723463068 0.84569664858009 0  1.485790657174135e-15 0.9018854912396524 0  0 1 0  1 1 0  0.9999999999999987 0.9018854912396523 0  1.000000000000001 0.5870033976492375 0  1 0.5160583688167003 0  0.9291672523051078 0.5394883596129003 0  0.9291500884488585 0.5394623889691117 0  0.9281375755937461 0.5405008724680134 0  0.9281375755937372 0.4594991275319777 0  0.9291500884488586 0.4605376110308884 0  0.9291672523051077 0.4605116403870997 0  1 0.4839416311832997 0  0.9999999999999987 0.4129966023507635 0  0.948388017507054 0.31630686776452 0  0.94942649991978 0.3152943559955871 0  0.9494005292759886 0.3152771921393367 0  0.9735520289385229 0.2555555555555555 0  0.9494005292759888 0.1958339189717744 0  0.9494264999197789 0.1958167551155251 0  0.9483880164208631 0.1948042422604003 0  1.000000000000001 0.09811450876034861 0  1 0 0  0 0 0  0.1958339189717744 0.2950439151684559 0  0.1958167551155252 0.2950179445246672 0  0.3152771921393367 0.2950439151684557 0  0.1948042433481841 0.2960564269357975 0  0.3152943559955858 0.2950179445246651 0  0.1948042422604031 0.2150546830875326 0  0.3163068677645244 0.2960564269373949 0  0.1958167551155251 0.2160931665864439 0  0.4140846558147206 0.2555555555555555 0  0.1958339189717744 0.2160671959426553 0  0.3163068688489276 0.215054683089313 0  0.3152771921393367 0.2160671959426553 0  0.3152943559955858 0.2160931665864459 0  0.5405008724680257 0.3163068688507107 0  0.5572768961235196 0.356807759691201 0  0.5394623889691089 0.3152943559955871 0  0.459499128618165 0.3163068677645201 0  0.5394883596129003 0.3152771921393367 0  0.4605376110308911 0.3152943559955871 0  0.5394883596129001 0.1958339189717744 0  0.4605116403870998 0.3152771921393367 0  0.53946238896911 0.1958167551155251 0  0.4846631400496339 0.2555555555555555 0  0.5405008724680251 0.1948042422604009 0  0.4605116403870998 0.1958339189717744 0  0.5572768961235196 0.1543033514199101 0  0.46053761103089 0.1958167551155251 0  0.4594991286269881 0.1948042433554141 0  0.6847228078606633 0.2950439151684559 0  0.684705644004414 0.2950179445246672 0  0.8041660810282256 0.2950439151684557 0  0.683693131164073 0.2960564280087975 0  0.8041832448844747 0.2950179445246651 0  0.6836931322354718 0.2150546841737125 0  0.8051957566534156 0.2960564269373971 0  0.6847056440044141 0.2160931665864439 0  0.9029735447036096 0.2555555555555555 0  0.6847228078606632 0.2160671959426553 0  0.8051957577274008 0.2150546830997286 0  0.8041660810282256 0.2160671959426553 0  0.8041832448844747 0.2160931665864459 0  0.2960564280235811 0.560751313295155 0  0.3128324516790751 0.6012522041356455 0  0.2950179445246645 0.5597388004400315 0  0.2150546830875235 0.5607513132951615 0  0.2950439151684557 0.5597216365837812 0  0.2160931665864466 0.5597388004400314 0  0.2950439151684558 0.4402783634162188 0  0.2160671959426553 0.5597216365837812 0  0.2950179445246656 0.4402611995599696 0  0.2402186956051895 0.5 0  0.29605642693739 0.439248687791036 0  0.2160671959426553 0.4402783634162189 0  0.3128324516790751 0.3987477958643545 0  0.2160931665864455 0.4402611995599696 0  0.2150546830875296 0.4392486867048446 0  0.1958339189717743 0.7839328040573448 0  0.1958167551155252 0.7839068334135562 0  0.3152771921393367 0.7839328040573447 0  0.1948042422604028 0.7849453169124678 0  0.3152943559955858 0.783906833413554 0  0.1948042433465913 0.7039435730626098 0  0.3163068677645284 0.7849453158262878 0  0.1958167551155251 0.7049820554753328 0  0.4140846558147206 0.7444444444444445 0  0.1958339189717744 0.7049560848315441 0  0.3163068688486237 0.7039435719785058 0  0.3152771921393367 0.7049560848315441 0  0.3152943559955858 0.7049820554753349 0  0.4402783634162188 0.5394883596129003 0  0.4402611995599696 0.5394623889691117 0  0.5597216365837812 0.5394883596129002 0  0.4392486867048468 0.5405008724680237 0  0.5597388004400302 0.5394623889691096 0  0.4392486877998708 0.4594991286270004 0  0.5607513122089726 0.540500871381843 0  0.4402611995599696 0.4605376110308884 0  0.6585291002591651 0.5 0  0.4402783634162188 0.4605116403870998 0  0.5607513121946796 0.45949912863245 0  0.5597216365837812 0.4605116403870998 0  0.5597388004400302 0.4605376110308904 0  0.78494531690701 0.5607513132896949 0  0.8017213405679641 0.6012522041356455 0  0.7839068334135535 0.5597388004400315 0  0.7039435730626069 0.5607513122089671 0  0.7839328040573448 0.5597216365837812 0  0.7049820554753355 0.5597388004400314 0  0.7839328040573448 0.4402783634162188 0  0.7049560848315441 0.5597216365837812 0  0.7839068334135545 0.4402611995599696 0  0.7291075844940784 0.5 0  0.784945315826279 0.4392486877910359 0  0.7049560848315444 0.4402783634162188 0  0.8017213405679641 0.3987477958643545 0  0.7049820554753344 0.4402611995599696 0  0.7039435719764182 0.4392486867048443 0  0.5405008724625655 0.8051957577341393 0  0.5572768961235196 0.84569664858009 0  0.539462388969109 0.804183244884476 0  0.4594991286181648 0.8051957566534091 0  0.5394883596129003 0.8041660810282256 0  0.4605376110308911 0.804183244884476 0  0.5394883596129003 0.6847228078606633 0  0.4605116403870998 0.8041660810282256 0  0.53946238896911 0.6847056440044139 0  0.4846631400496339 0.7444444444444445 0  0.5405008713818347 0.6836931322354802 0  0.4605116403870998 0.6847228078606633 0  0.5572768961235196 0.643192240308799 0  0.46053761103089 0.6847056440044139 0  0.4594991275353449 0.6836931311526599 0  0.6847228078606633 0.7839328040573448 0  0.684705644004414 0.7839068334135562 0  0.8041660810282256 0.7839328040573447 0  0.6836931311493016 0.7849453169124578 0  0.8041832448844747 0.783906833413554 0  0.68369313223548 0.7039435730626096 0  0.805195756653417 0.7849453158262875 0  0.6847056440044141 0.7049820554753328 0  0.9029735447036096 0.7444444444444445 0  0.6847228078606633 0.7049560848315441 0  0.805195757738809 0.7039435719772094 0  0.8041660810282256 0.7049560848315441 0  0.8041832448844747 0.7049820554753349 0  0.9578164230213342 0.6948838683471341 0  0.9645772892192558 0.7062137009141434 0  0.9695236884064815 0.7184451175460498 0  0.972538971146615 0.7312896684428197 0  0.9725389711466151 0.7575992204460691 0  0.9695236884064815 0.7704437713428391 0  0.9645772892192558 0.7826751879747456 0  0.9578164230213342 0.7940050205417549 0  0.01437766570919127 0.09711967848259151 0  0.02854851642641832 0.09974531144948819 0  0.04161535472570586 0.1058251712658871 0  0.05275088139110013 0.1149743244732108 0  0.06125007411586489 0.1266135117968212 0  0.06657482449792251 0.1400058227212122 0  0.06643634307317195 0.1691277076584997 0  0.06071435336153361 0.1829418078690686 0  0.04134737123322858 0.3039103077764334 0  0.03416190609801732 0.2911362521989113 0  0.02925217947541549 0.2773267630846004 0  0.02676106927623143 0.2628837102534819 0  0.02676106927623143 0.2482274008576293 0  0.02925217947541547 0.2337843480265108 0  0.03416190609801727 0.2199748589121999 0  0.04134737123322851 0.2072008033346779 0  0.06071435387356935 0.328169304128914 0  0.06643634320569657 0.3419834039471998 0  0.06657482449792249 0.371105288389899 0  0.06125007411586481 0.3844975993142901 0  0.05275088139109994 0.3961367866379005 0  0.04161535472570563 0.4052859398452242 0  0.02854851642641818 0.411365799661623 0  0.01437766570919127 0.4139914326285196 0  0 0.4697526254167924 0  0 0.455563619650285 0  0 0.4413746138837777 0  0 0.4271856081172704 0  0.06095233986089402 0.4687284952262988 0  0.04995687430503332 0.4753797281664747 0  0.03809234373417287 0.4803165365228644 0  0.02562418374773841 0.4834284730529493 0  0.01283133446055119 0.4846459169037758 0  0.08372485599813187 0.4503967593658507 0  0.09753895276796982 0.4446747697099958 0  0.1123633055586467 0.4427231038764812 0  0.1271876590095525 0.4446747646950606 0  0.1410017577150834 0.45039674967774 0  0.1528641934757506 0.4594991149204779 0  0.161966560724962 0.471361549141524 0  0.1676885480442292 0.4851756468792086 0  0.1676885480443665 0.514824353120279 0  0.1619665607254926 0.528638450857557 0  0.1528641934768762 0.5405008850783964 0  0.1410017577169217 0.5496032503211987 0  0.1271876590121153 0.5553252353042526 0  0.1123633055618306 0.5572768961235188 0  0.09753895277155772 0.5553252302909656 0  0.08372485600180817 0.5496032406362719 0  0.0128313344605512 0.5153540830962242 0  0.0256241837477384 0.5165715269470507 0  0.03809234373417282 0.5196834634771356 0  0.04995687430503334 0.5246202718335253 0  0.06095233986089401
[...]
<PointData  Tensors="$\sigma$"> 
<DataArray  type="Float64"  Name="$\sigma$"  NumberOfComponents="9" format="ascii">-4.8087217007095760e+03 -5.7228953081557402e+03 0.0000000000000000e+00 -5.7228953081557402e+03 -6.5853608235109668e+03 0.0000000000000000e+00 0.0000000000000000e+00 0.0000000000000000e+00 0.0000000000000000e+00  -7.2093535662493177e+03 -6.0684749397899232e+03 0.0000000000000000e+00 -6.0684749397899232e+03 -5.3503680860338754e+03 0.0000000000000000e+00 0.0000000000000000e+00 0.0000000000000000e+00 0.0000000000000000e+00  -5.1657510585455057e+03 -5.8738645584914693e+03 0.0000000000000000e+00 -5.8738645584914666e+03 -6.0344590480604975e+03 0.0000000000000000e+00 0.0000000000000000e+00 0.0000000000000000e+00 0.0000000000000000e+00  -4.7586585350708766e+01 -3.8087051301823578e+02 0.0000000000000000e+00 -3.8087051301823578e+02 -1.1526467061002462e+04 0.0000000000000000e+00 0.0000000000000000e+00 0.0000000000000000e+00 0.0000000000000000e+00  -5.0766742174982737e+03 6.0486175721802847e+03 0.0000000000000000e+00 6.0486175721802992e+03 -6.7175513422162967e+03 0.0000000000000000e+00 0.0000000000000000e+00 0.0000000000000000e+00 0.0000000000000000e+00  -8.2368434380320214e+03 5.9859202578642480e+03 0.0000000000000000e+00 5.9859202578642444e+03 -6.1564443934976298e+03 0.0000000000000000e+00 0.0000000000000000e+00 0.0000000000000000e+00 0.0000000000000000e+00  -3.8011343978468849e+03 5.2502246757628345e+03 0.0000000000000000e+00 5.2502246757628336e+03 -4.9537481855929454e+03 0.0000000000000000e+00 0.0000000000000000e+00 0.0000000000000000e+00 0.0000000000000000e+00  7.4522891762352174e+01 4.0051234985381932e+00 0.0000000000000000e+00 4.0051234985382145e+00 3.0407836364295456e+01 0.0000000000000000e+00 0.0000000000000000e+00 0.0000000000000000e+00 0.0000000000000000e+00  -3.0494383031455314e+01 7.8310894619408984e+01 0.0000000000000000e+00 7.8310894619408572e+01 8.2988468315709561e+03 0.0000000000000000e+00 0.0000000000000000e+00 0.0000000000000000e+00 0.0000000000000000e+00  -4.2393587062541901e+03 4.7083484472243063e+03 0.0000000000000000e+00 4.7083484472243099e+03 -6.1322192812123521e+03 0.0000000000000000e+00 0.0000000000000000e+00 0.0000000000000000e+00 0.0000000000000000e+00  -7.5462642373672952e+03 6.2768533123352418e+03 0.0000000000000000e+00 6.2768533123352408e+03 -5.0347107172430442e+03 0.0000000000000000e+00 0.0000000000000000e+00 0.0000000000000000e+00 0.0000000000000000e+00  -5.0738730393556734e+03 5.8172775804486937e+03 0.0000000000000000e+00 5.8172775804486973e+03 -6.4095880948987869e+03 0.0000000000000000e+00 0.0000000000000000e+00 0.0000000000000000e+00 0.0000000000000000e+00  -4.7715473650783870e+03 -5.8640141343397418e+03 0.0000000000000000e+00 -5.8640141343397418e+03 -5.8649286596430493e+03 0.0000000000000000e+00 0.0000000000000000e+00 0.0000000000000000e+00 0.0000000000000000e+00  -8.6066476329947636e+03 -6.0316074073332447e+03 0.0000000000000000e+00 -6.0316074073332593e+03 -5.5393236744132582e+03 0.0000000000000000e+00 0.0000000000000000e+00 0.0000000000000000e+00 0.0000000000000000e+00  -3.6297339681717808e+03 -5.7198754747032808e+03 0.0000000000000000e+00 -5.7198754747032663e+03 -6.5161221188568470e+03 0.0000000000000000e+00 0.0000000000000000e+00 0.0000000000000000e+00 0.0000000000000000e+00  3.3850955483249368e+02 -6.3189287655518411e+00 0.0000000000000000e+00 -6.3189287655513091e+00 1.1245519037242618e+03 0.0000000000000000e+00 0.0000000000000000e+00 0.0000000000000000e+00 0.0000000000000000e+00  3.2577349447057178e+00 2.9783886652837643e+00 0.0000000000000000e+00 2.9783886652837732e+00 -8.0583788347004344e+00 0.0000000000000000e+00 0.0000000000000000e+00 0.0000000000000000e+00 0.0000000000000000e+00  -3.2504117311577998e+00 1.0295537859073582e+00 0.0000000000000000e+00 1.0295537859073591e+00 3.5642443125246506e+00 0.0000000000000000e+00 0.0000000000000000e+00 0.0000000000000000e+00 0.0000000000000000e+00  -4.3018826464658680e+01 3.2628985949820738e+01 0.0000000000000000e+00 3.2628985949820716e+01 -1.7073123306533585e+01 0.0000000000000000e+00 0.0000000000000000e+00 0.0000000000000000e+00 0.0000000000000000e+00  -2.9064640207076189e+02 1.8427739982420718e+02 0.0000000000000000e+00 1.8427739982420721e+02 -2.1235729109546961e+02 0.0000000000000000e+00 0.0000000000000000e+00 0.0000000000000000e+00 0.0000000000000000e+00  7.6232354138870463e+01 3.7751266217333963e+01 0.0000000000000000e+00 3.7751266217333900e+01 -2.0328600372741519e+01 0.0000000000000000e+00 0.0000000000000000e+00 0.0000000000000000e+00 0.0000000000000000e+00  6.6092629327404165e+03 -3.0119216955668333e+02 0.0000000000000000e+00 -3.0119216955668321e+02 1.9534195497687793e+04 0.0000000000000000e+00 0.0000000000000000e+00 0.0000000000000000e+00 0.0000000000000000e+00  1.6045843315096526e+01 -7.3194962044633897e+01 0.0000000000000000e+00 -7.3194962044633769e+01 -2.5486695366114180e+01 0.0000000000000000e+00 0.0000000000000000e+00 0.0000000000000000e+00 0.0000000000000000e+00  1.1311713153115720e+02 2.0129213929707817e+02 0.0000000000000000e+00 2.0129213929707817e+02 1.3763160283625072e+02 0.0000000000000000e+00 0.0000000000000000e+00 0.0000000000000000e+00 0.0000000000000000e+00  -2.7368829920949945e+01 -2.9276489833771780e+01 0.0000000000000000e+00 -2.9276489833771770e+01 -1.5756806200170320e+01 0.0000000000000000e+00 0.0000000000000000e+00 0.0000000000000000e+00 0.0000000000000000e+00  2.3875799064825431e-01 5.6280676642383909e-01 0.0000000000000000e+00 5.6280676642383720e-01 2.9196070836026204e+00 0.0000000000000000e+00 0.0000000000000000e+00 0.0000000000000000e+00 0.0000000000000000e+00  -9.2391306563146678e+00 -8.6623619371631637e+00 0.0000000000000000e+00 -8.6623619371631602e+00 -8.0769624181510360e-02 0.0000000000000000e+00 0.0000000000000000e+00 0.0000000000000000e+00 0.0000000000000000e+00  -3.1178338727842846e+01 -7.9778659282938776e+01 0.0000000000000000e+00 -7.9778659282938577e+01 1.2442255659654109e+03 0.0000000000000000e+00 0.0000000000000000e+00 0.0000000000000000e+00 0.0000000000000000e+00  -4.9068442488069741e+03 5.6691029309775986e+03 0.0000000000000000e+00 5.6691029309775895e+03 -7.0301061214415085e+03 0.0000000000000000e+00 0.0000000000000000e+00 0.0000000000000000e+00 0.0000000000000000e+00  -7.0192655095177506e+03 6.0767328289826737e+03 0.0000000000000000e+00 6.0767328289826692e+03 -4.1722786563981235e+03 0.0000000000000000e+00 0.0000000000000000e+00 0.0000000000000000e+00 0.0000000000000000e+00  -5.1156999291339416e+03 5.7877990550945224e+03 0.0000000000000000e+00 5.7877990550945315e+03 -6.8057892073248140e+03 0.0000000000000000e+00 0.0000000000000000e+00 0.0000000000000000e+00 0.0000000000000000e+00  -5.3244405523364594e+03 -6.0666043387830741e+03 0.0000000000000000e+00 -6.0666043387830796e+03 -6.7828261526915003e+03 0.0000000000000000e+00 0.0000000000000000e+00 0.0000000000000000e+00 0.0000000000000000e+00  -7.6559940781289233e+03 -6.0686934477765753e+03 0.0000000000000000e+00 -6.0686934477765753e+03 -6.0924185676295901e+03 0.0000000000000000e+00 0.0000000000000000e+00 0.0000000000000000e+00 0.0000000000000000e+00  -3.9247035169838600e+03 -4.9044504834704640e+03 0.0000000000000000e+00 -4.9044504834704640e+03 -4.6963943578896333e+03 0.0000000000000000e+00 0.0000000000000000e+00 0.0000000000000000e+00 0.0000000000000000e+00  5.7199092344212097e+01 -3.4981376698750694e+02 0.0000000000000000e+00 -3.4981376698750836e+02 7.9577744725866869e+03 0.0000000000000000e+00 0.0000000000000000e+00 0.0000000000000000e+00 0.0000000000000000e+00  -1.0908616755645760e+02 4.6666191215022025e+01 0.0000000000000000e+00 4.6666191215022074e+01 -4.3993310521617467e+01 0.0000000000000000e+00 0.0000000000000000e+00 0.0000000000000000e+00 0.0000000000000000e+00  2.5362676938198807e+00 1.0941924439465870e+01 0.0000000000000000e+00 1.0941924439465875e+01 6.4334079534484897e+02 0.0000000000000000e+00 0.0000000000000000e+00 0.0000000000000000e+00 0.0000000000000000e+00  4.7301156386100868e-01 -1.5442073189934368e+01 0.0000000000000000e+00 -1.5442073189934396e+01 6.5483077757122715e+02 0.0000000000000000e+00 0.0000000000000000e+00 0.0000000000000000e+00 0.0000000000000000e+00  6.7212026970962839e+01 -2.5311766186238507e+00 0.0000000000000000e+00 -2.5311766186237072e+00 -2.1011779399241735e+01 0.0000000000000000e+00 0.0000000000000000e+00 0.0000000000000000e+00 0.0000000000000000e+00  -1.3778833125050603e+01 -2.5241691909478789e+00 0.0000000000000000e+00 -2.5241691909478789e+00 -1.4732198453277914e+00 0.0000000000000000e+00 0.0000000000000000e+00 0.0000000000000000e+00 0.0000000000000000e+00  8.1845429812765946e-01 6.7967051371663112e-01 0.0000000000000000e+00 6.7967051371663123e-01 1.1455754121610694e-01 0.0000000000000000e+00 0.0000000000000000e+00 0.0000000000000000e+00 0.0000000000000000e+00  -1.8304370802135036e+01 1.0174432493473656e+01 0.0000000000000000e+00 1.0174432493473615e+01 -1.0257276163709626e+01 0.0000000000000000e+00 0.0000000000000000e+00 0.0000000000000000e+00 0.0000000000000000e+00  -4.6938471245816082e+01 -6.6483885000561287e+01 0.0000000000000000e+00 -6.6483885000561315e+01 2.0821551036314322e+01 0.0000000000000000e+00 0.0000000000000000e+00 0.0000000000000000e+00 0.0000000000000000e+00  5.8048587042205611e+01 6.4274981118211699e+01 0.0000000000000000e+00 6.4274981118211741e+01 -1.8617964025114173e+01 0.0000000000000000e+00 0.0000000000000000e+00 0.0000000000000000e+00 0.0000000000000000e+00  -1.3943689705833940e+01 -6.7671177575874765e+01 0.0000000000000000e+00 -6.7671177575874694e+01 -6.4790974578101029e+01 0.0000000000000000e+00 0.0000000000000000e+00 0.0000000000000000e+00 0.0000000000000000e+00  -1.9629770795028659e+02 -1.5358802924424617e+02 0.0000000000000000e+00 -1.5358802924424612e+02 -1.7487100546014292e+02 0.0000000000000000e+00 0.0000000000000000e+00 0.0000000000000000e+00 0.0000000000000000e+00  -4.6926937560596230e+01 -3.1739876748333437e+01 0.0000000000000000e+00 -3.1739876748333476e+01 -9.0915457896139475e+00 0.0000000000000000e+00 0.0000000000000000e+00 0.0000000000000000e+00 0.0000000000000000e+00  -7.2611246905354832e-01 -2.8981011979332399e-01 0.0000000000000000e+00 -2.8981011979332216e-01 2.7917820723765199e+00 0.0000000000000000e+00 0.0000000000000000e+00 0.0000000000000000e+00 0.0000000000000000e+00  -3.9828253809624328e+00 -1.5942129912972973e+00 0.0000000000000000e+00 -1.5942129912972960e+00 -3.8017680737610462e+00 0.0000000000000000e+00 0.0000000000000000e+00 0.0000000000000000e+00 0.0000000000000000e+00  -4.9523340418723119e+03 5.7082655788593756e+03 0.0000000000000000e+00 5.7082655788593665e+03 -6.5790582202188561e+03 0.0000000000000000e+00 0.0000000000000000e+00 0.0000000000000000e+00 0.0000000000000000e+00  -6.5938382255017277e+03 6.0745059969227968e+03 0.0000000000000000e+00 6.0745059969227950e+03 -4.6076283235635901e+03 0.0000000000000000e+00 0.0000000000000000e+00 0.0000000000000000e+00 0.0000000000000000e+00  -5.5983478457497840e+03 5.8154420407457537e+03 0.0000000000000000e+00 5.8154420407457583e+03 -6.7863351239489657e+03 0.0000000000000000e+00 0.0000000000000000e+00 0.0000000000000000e+00 0.0000000000000000e+00  -4.5573781213724197e+02 3.1089747999147971e+01 0.0000000000000000e+00 3.1089747999148766e+01 -1.1931540790208592e+04 0.0000000000000000e+00 0.0000000000000000e+00 0.0000000000000000e+00 0.0000000000000000e+00  -4.9477629090922055e+03 -5.9756355264219319e+03 0.0000000000000000e+00 -5.9756355264219219e+03 -6.1323962377799444e+03 0.0000000000000000e+00 0.0000000000000000e+00 0.0000000000000000e+00 0.0000000000000000e+00  -7.8029672741154718e+03 -6.2082184821132196e+03 0.0000000000000000e+00 -6.2082184821132259e+03 -5.4705988887784388e+03 0.0000000000000000e+00 0.0000000000000000e+00 0.0000000000000000e+00 0.0000000000000000e+00  -4.3714357024128540e+03 -4.9296046288116077e+03 0.0000000000000000e+00 -4.9296046288116058e+03 -6.2413652320017118e+03 0.0000000000000000e+00 0.0000000000000000e+00 0.0000000000000000e+00 0.0000000000000000e+00  -2.4099141306888857e+01 2.9456209339123712e-01 0.0000000000000000e+00 2.9456209339109352e-01 -2.0810138019965624e+01 0.0000000000000000e+00 0.0000000000000000e+00 0.0000000000000000e+00 0.0000000000000000e+00  6.7547099945084934e+00 4.5505438744345783e+00 0.0000000000000000e+00 4.5505438744345561e+00 6.5070377403747625e+02 0.0000000000000000e+00 0.0000000000000000e+00 0.0000000000000000e+00 0.0000000000000000e+00  1.5247562637801190e+02 1.2482789450977366e+02 0.0000000000000000e+00 1.2482789450977376e+02 7.7557229327928644e+02 0.0000000000000000e+00 0.0000000000000000e+00 0.0000000000000000e+00 0.0000000000000000e+00  -6.4461038400359039e+03 6.0791538076304287e+03 0.0000000000000000e+00 6.0791538076304269e+03 -5.7427660248290867e+03 0.0000000000000000e+00 0.0000000000000000e+00 0.0000000000000000e+00 0.0000000000000000e+00  -5.0636527231089858e+03 6.2534171680926238e+03 0.0000000000000000e+00 6.2534171680926220e+03 -7.7583938234975458e+03 0.0000000000000000e+00 0.0000000000000000e+00 0.0000000000000000e+00 0.0000000000000000e+00  -6.1696465371911463e+03 -5.9023113165124232e+03 0.0000000000000000e+00 -5.9023113165124296e+03 -5.6453870360949213e+03 0.0000000000000000e+00 0.0000000000000000e+00 0.0000000000000000e+00 0.0000000000000000e+00  -7.5437627146255818e+03 5.9623959177174038e+03 0.0000000000000000e+00 5.9623959177174083e+03 -4.2635853384001821e+03 0.0000000000000000e+00 0.0000000000000000e+00 0.0000000000000000e+00 0.0000000000000000e+00  -8.1670101603901230e+03 -5.8471094181130147e+03 0.0000000000000000e+00 -5.8471094181130084e+03 -8.6353089889731327e+03 0.0000000000000000e+00 0.0000000000000000e+00 0.0000000000000000e+00 0.0000000000000000e+00  -1.2628265426750825e+03 -1.2608582788641647e+03 0.0000000000000000e+00 -1.2608582788641670e+03 -9.7926298289533179e+02 0.0000000000000000e+00 0.0000000000000000e+00 0.0000000000000000e+00 0.0000000000000000e+00  -3.8211128361986152e+03 -6.1260196754886729e+03 0.0000000000000000e+00 -6.1260196754886792e+03 -3.0897631846077252e+03 0.0000000000000000e+00 0.0000000000000000e+00 0.0000000000000000e+00 0.0000000000000000e+00  -4.3670232118736737e+02 -4.9832018083868547e+02 0.0000000000000000e+00 -4.9832018083868525e+02 -1.0000700518009138e+03 0.0000000000000000e+00 0.0000000000000000e+00 0.0000000000000000e+00 0.0000000000000000e+00  3.8251229923215442e+03 3.3484509629237556e+02 0.0000000000000000e+00 3.3484509629237573e+02 1.6546492116709152e+04 0.0000000000000000e+00 0.0000000000000000e+00 0.0000000000000000e+00 0.0000000000000000e+00  -7.2754254655288321e+02 -6.2596856214406660e+02 0.0000000000000000e+00 -6.2596856214406591e+02 -3.6194849199390114e+02 0.0000000000000000e+00 0.0000000000000000e+00 0.0000000000000000e+00 0.0000000000000000e+00  -1.4456181844571545e+03 1.5019397236814862e+03 0.0000000000000000e+00 1.5019397236814862e+03 -1.2348141709556396e+03 0.0000000000000000e+00 0.0000000000000000e+00 0.0000000000000000e+00 0.0000000000000000e+00  -1.2002935806606345e+03 8.4555760169961741e+02 0.0000000000000000e+00 8.4555760169961661e+02 -6.3455721508462170e+02 0.0000000000000000e+00 0.0000000000000000e+00 0.0000000000000000e+00 0.0000000000000000e+00  5.0437116404572458e+02 -2.4540293893863222e+02 0.0000000000000000e+00 -2.4540293893863193e+02 -1.9380777345034193e+02 0.0000000000000000e+00 0.0000000000000000e+00 0.0000000000000000e+00 0.0000000000000000e+00  -4.2807391654544463e+03 -6.0956324709984128e+03 0.0000000000000000e+00 -6.0956324709984110e+03 -5.6272764398778672e+03 0.0000000000000000e+00 0.0000000000000000e+00 0.0000000000000000e+00 0.0000000000000000e+00  9.1746368490490727e+02 4.2760727080777606e+01 0.0000000000000000e+00 4.2760727080777762e+01 9.2581665178342610e+03 0.0000000000000000e+00 0.0000000000000000e+00 0.0000000000000000e+00 0.0000000000000000e+00  -7.3786217860507259e+03 -5.9594688460294601e+03 0.0000000000000000e+00 -5.9594688460294583e+03 -5.2895548957534975e+03 0.0000000000000000e+00 0.0000000000000000e+00 0.0000000000000000e+00 0.0000000000000000e+00  -4.3789348274639005e+03 5.9327677757436049e+03 0.0000000000000000e+00 5.9327677757436086e+03 -6.6189303090853482e+03 0.0000000000000000e+00 0.0000000000000000e+00 0.0000000000000000e+00 0.0000000000000000e+00  -5.5188810289998501e+03 -5.8230700041567943e+03 0.0000000000000000e+00 -5.8230700041567970e+03 -7.1774117630092933e+03 0.0000000000000000e+00 0.0000000000000000e+00 0.0000000000000000e+00 0.0000000000000000e+00  -6.5425999354122514e+03 6.0978150109119406e+03 0.0000000000000000e+00 6.0978150109119406e+03 -3.7607872182755573e+03 0.0000000000000000e+00 0.0000000000000000e+00 0.0000000000000000e+00 0.0000000000000000e+00  1.9975064762876459e+03 5.6021935531461450e+03 0.0000000000000000e+00 5.6021935531461450e+03 -6.9110656700013396e+03 0.0000000000000000e+00 0.0000000000000000e+00 0.0000000000000000e+00 0.0000000000000000e+00  -6.2205545202252506e+03 5.7450588697591284e+03 0.0000000000000000e+00 5.7450588697591311e+03 -7.7997028941856142e+03 0.0000000000000000e+00 0.0000000000000000e+00 0.0000000000000000e+00 0.0000000000000000e+00  -1.6991754383115585e+04 9.7040037594024761e+03 0.0000000000000000e+00 9.7040037594024743e+03 -1.9577657759178284e+04 0.0000000000000000e+00 0.0000000000000000e+00 0.0000000000000000e+00 0.0000000000000000e+00  -2.6570057105682503e+02 3.8209563988641662e+02 0.0000000000000000e+00 3.8209563988641912e+02 -1.2228651811689437e+04 0.0000000000000000e+00 0.0000000000000000e+00 0.0000000000000000e+00 0.0000000000000000e+00  -1.8746776807493036e+03 -1.1808801420822053e+03 0.0000000000000000e+00 -1.1808801420822049e+03 9.2859250072393643e+03 0.0000000000000000e+00 0.0000000000000000e+00 0.0000000000000000e+00 0.0000000000000000e+00  -4.6798874581636992e+03 -5.8684355232394655e+03 0.0000000000000000e+00 -5.8684355232394610e+03 -7.5065259650129210e+03 0.0000000000000000e+00 0.0000000000000000e+00 0.0000000000000000e+00 0.0000000000000000e+00  9.6214629859903732e+02 -1.0134236591498020e+03 0.0000000000000000e+00 -1.0134236591498006e+03 1.3418612982803083e+04 0.0000000000000000e+00 0.0000000000000000e+00 0.0000000000000000e+00 0.0000000000000000e+00  -1.1417795570935767e+04 -8.9085015538607076e+03 0.0000000000000000e+00 -8.9085015538607095e+03 -1.7238953828570498e+04 0.0000000000000000e+00 0.0000000000000000e+00 0.0000000000000000e+00 0.0000000000000000e+00  -1.5013608662778479e+03 9.1025069335605167e+01 0.0000000000000000e+00 9.1025069335597252e+01 7.9365219325755770e+03 0.0000000000000000e+00 0.0000000000000000e+00 0.0000000000000000e+00 0.0000000000000000e+00  -5.2880111212760803e+03 5.9115966234771940e+03 0.0000000000000000e+00 5.9115966234771995e+03 -4.4931156970257653e+03 0.0000000000000000e+00 0.0000000000000000e+00 0.0000000000000000e+00 0.0000000000000000e+00  -1.0000365549583614e+04 5.9535641331154729e+03 0.0000000000000000e+00 5.9535641331154684e+03 -1.1323438780353825e+04 0.0000000000000000e+00 0.0000000000000000e+00 0.0000000000000000e+00 0.0000000000000000e+00  -6.8524252939082307e+03 -6.0554975341974441e+03 0.0000000000000000e+00 -6.0554975341974459e+03 -5.9422380282881777e+03 0.0000000000000000e+00 0.0000000000000000e+00 0.0000000000000000e+00 0.0000000000000000e+00  -2.9254340097323493e+03 6.0413511757054239e+03 0.0000000000000000e+00 6.0413511757054257e+03 -1.4215757542821216e+03 0.0000000000000000e+00 0.0000000000000000e+00 0.0000000000000000e+00 0.0000000000000000e+00  -6.3704324008069407e+03 -6.1743034125963959e+03 0.0000000000000000e+00 -6.1743034125963941e+03 -8.3440751966155549e+03 0.0000000000000000e+00 0.0000000000000000e+00 0.0000000000000000e+00 0.0000000000000000e+00  -1.4831294766446958e+03 -1.3442776247237930e+03 0.0000000000000000e+00 -1.3442776247237916e+03 -1.1327035892082968e+03 0.0000000000000000e+00 0.0000000000000000e+00 0.0000000000000000e+00 0.0000000000000000e+00  -5.4954679474881195e+03 -6.0934734644316950e+03 0.0000000000000000e+00 -6.0934734644316959e+03 -3.2519243660051898e+03 0.0000000000000000e+00 0.0000000000000000e+00 0.0000000000000000e+00 0.0000000000000000e+00  1.3379670174204123e+03 1.0139414299708650e+03 0.0000000000000000e+00 1.0139414299708635e+03 