<?xml version="1.0"?>
<VTKFile type="UnstructuredGrid"  version="0.1"  >
<UnstructuredGrid>
<Piece  NumberOfPoints="4855" NumberOfCells="8780">
<Points>
<DataArray  type="Float64"  NumberOfComponents="3"  format="ascii">0.9483880164242298 0.6836931311526558 0  0.9494264999197789 0.6847056440044139 0  0.9494005292759887 0.6847228078606633 0  0.9735520289385229 0.7444444444444445 0  0.9494005292759886 0.8041660810282256 0  0.94942649991978 0.8041832448844759 0  0.9483880175070514 0.8051957566534116 0  3.131175874138137e-16 0.09811450876034808 0  0.06838800723463068 0.1543033514199101 0  0.05161198249294494 0.1948042433465922 0  0.0505735000802211 0.1958167551155251 0  0.05059947072401128 0.1958339189717744 0  0.0505994707240113 0.3152771921393367 0  0.05057350008021998 0.315294355995587 0  0.05161198357913653 0.3163068688507105 0  0.06838800723463068 0.356807759691201 0  3.252606517456513e-16 0.4129966023507631 0  -1.795438797635995e-16 0.4839416311832997 0  0.07083274769489223 0.4605116403870998 0  0.07084991155114129 0.4605376110308903 0  0.07186242331670639 0.4594991286215342 0  0.1696402113702762 0.5 0  0.07186242332008326 0.5405008713818427 0  0.0708499115511413 0.5394623889691096 0  0.07083274769489219 0.5394883596129002 0  -1.925543058334256e-16 0.5160583688167003 0  1.484923295436147e-15 0.5870033976492365 0  0.06838800723463068 0.643192240308799 0  0.05161198249294541 0.6836931322354806 0  0.05057350008022109 0.6847056440044139 0  0.0505994707240113 0.6847228078606633 0  0.0505994707240113 0.8041660810282256 0  0.05057350008021999 0.804183244884476 0  0.05161198249294764 0.8051957566534106 0  0.06838800723463068 0.84569664858009 0  1.485790657174135e-15 0.9018854912396524 0  0 1 0  1 1 0  0.9999999999999987 0.9018854912396523 0  1.000000000000001 0.5870033976492375 0  1 0.5160583688167003 0  0.9291672523051078 0.5394883596129003 0  0.9291500884488585 0.5394623889691117 0  0.9281375755937461 0.5405008724680134 0  0.9281375755937372 0.4594991275319777 0  0.9291500884488586 0.4605376110308884 0  0.9291672523051077 0.4605116403870997 0  1 0.4839416311832997 0  0.9999999999999987 0.4129966023507635 0  0.948388017507054 0.31630686776452 0  0.94942649991978 0.3152943559955871 0  0.9494005292759886 0.3152771921393367 0  0.9735520289385229 0.2555555555555555 0  0.9494005292759888 0.1958339189717744 0  0.9494264999197789 0.1958167551155251 0  0.9483880164208631 0.1948042422604003 0  1.000000000000001 0.09811450876034861 0  1 0 0  0 0 0  0.1958339189717744 0.2950439151684559 0  0.1958167551155252 0.2950179445246672 0  0.3152771921393367 0.2950439151684557 0  0.1948042433481841 0.2960564269357975 0  0.3152943559955858 0.2950179445246651 0  0.1948042422604031 0.2150546830875326 0  0.3163068677645244 0.2960564269373949 0  0.1958167551155251 0.2160931665864439 0  0.4140846558147206 0.2555555555555555 0  0.1958339189717744 0.2160671959426553 0  0.3163068688489276 0.215054683089313 0  0.3152771921393367 0.2160671959426553 0  0.3152943559955858 0.2160931665864459 0  0.5405008724680257 0.3163068688507107 0  0.5572768961235196 0.356807759691201 0  0.5394623889691089 0.3152943559955871 0  0.459499128618165 0.3163068677645201 0  0.5394883596129003 0.3152771921393367 0  0.4605376110308911 0.3152943559955871 0  0.5394883596129001 0.1958339189717744 0  0.4605116403870998 0.3152771921393367 0  0.53946238896911 0.1958167551155251 0  0.4846631400496339 0.2555555555555555 0  0.5405008724680251 0.1948042422604009 0  0.4605116403870998 0.1958339189717744 0  0.5572768961235196 0.1543033514199101 0  0.46053761103089 0.1958167551155251 0  0.4594991286269881 0.1948042433554141 0  0.6847228078606633 0.2950439151684559 0  0.684705644004414 0.2950179445246672 0  0.8041660810282256 0.2950439151684557 0  0.683693131164073 0.2960564280087975 0  0.8041832448844747 0.2950179445246651 0  0.6836931322354718 0.2150546841737125 0  0.8051957566534156 0.2960564269373971 0  0.6847056440044141 0.2160931665864439 0  0.9029735447036096 0.2555555555555555 0  0.6847228078606632 0.2160671959426553 0  0.8051957577274008 0.2150546830997286 0  0.8041660810282256 0.2160671959426553 0  0.8041832448844747 0.2160931665864459 0  0.2960564280235811 0.560751313295155 0  0.3128324516790751 0.6012522041356455 0  0.2950179445246645 0.5597388004400315 0  0.2150546830875235 0.5607513132951615 0  0.2950439151684557 0.5597216365837812 0  0.2160931665864466 0.5597388004400314 0  0.2950439151684558 0.4402783634162188 0  0.2160671959426553 0.5597216365837812 0  0.2950179445246656 0.4402611995599696 0  0.2402186956051895 0.5 0  0.29605642693739 0.439248687791036 0  0.2160671959426553 0.4402783634162189 0  0.3128324516790751 0.3987477958643545 0  0.2160931665864455 0.4402611995599696 0  0.2150546830875296 0.4392486867048446 0  0.1958339189717743 0.7839328040573448 0  0.1958167551155252 0.7839068334135562 0  0.3152771921393367 0.7839328040573447 0  0.1948042422604028 0.7849453169124678 0  0.3152943559955858 0.783906833413554 0  0.1948042433465913 0.7039435730626098 0  0.3163068677645284 0.7849453158262878 0  0.1958167551155251 0.7049820554753328 0  0.4140846558147206 0.7444444444444445 0  0.1958339189717744 0.7049560848315441 0  0.3163068688486237 0.7039435719785058 0  0.3152771921393367 0.7049560848315441 0  0.3152943559955858 0.7049820554753349 0  0.4402783634162188 0.5394883596129003 0  0.4402611995599696 0.5394623889691117 0  0.5597216365837812 0.5394883596129002 0  0.4392486867048468 0.5405008724680237 0  0.5597388004400302 0.5394623889691096 0  0.4392486877998708 0.4594991286270004 0  0.5607513122089726 0.540500871381843 0  0.4402611995599696 0.4605376110308884 0  0.6585291002591651 0.5 0  0.4402783634162188 0.4605116403870998 0  0.5607513121946796 0.45949912863245 0  0.5597216365837812 0.4605116403870998 0  0.5597388004400302 0.4605376110308904 0  0.78494531690701 0.5607513132896949 0  0.8017213405679641 0.6012522041356455 0  0.7839068334135535 0.5597388004400315 0  0.7039435730626069 0.5607513122089671 0  0.7839328040573448 0.5597216365837812 0  0.7049820554753355 0.5597388004400314 0  0.7839328040573448 0.4402783634162188 0  0.7049560848315441 0.5597216365837812 0  0.7839068334135545 0.4402611995599696 0  0.7291075844940784 0.5 0  0.784945315826279 0.4392486877910359 0  0.7049560848315444 0.4402783634162188 0  0.8017213405679641 0.3987477958643545 0  0.7049820554753344 0.4402611995599696 0  0.7039435719764182 0.4392486867048443 0  0.5405008724625655 0.8051957577341393 0  0.5572768961235196 0.84569664858009 0  0.539462388969109 0.804183244884476 0  0.4594991286181648 0.8051957566534091 0  0.5394883596129003 0.8041660810282256 0  0.4605376110308911 0.804183244884476 0  0.5394883596129003 0.6847228078606633 0  0.4605116403870998 0.8041660810282256 0  0.53946238896911 0.6847056440044139 0  0.4846631400496339 0.7444444444444445 0  0.5405008713818347 0.6836931322354802 0  0.4605116403870998 0.6847228078606633 0  0.5572768961235196 0.643192240308799 0  0.46053761103089 0.6847056440044139 0  0.4594991275353449 0.6836931311526599 0  0.6847228078606633 0.7839328040573448 0  0.684705644004414 0.7839068334135562 0  0.8041660810282256 0.7839328040573447 0  0.6836931311493016 0.7849453169124578 0  0.8041832448844747 0.783906833413554 0  0.68369313223548 0.7039435730626096 0  0.805195756653417 0.7849453158262875 0  0.6847056440044141 0.7049820554753328 0  0.9029735447036096 0.7444444444444445 0  0.6847228078606633 0.7049560848315441 0  0.805195757738809 0.7039435719772094 0  0.8041660810282256 0.7049560848315441 0  0.8041832448844747 0.7049820554753349 0  0.9578164230213342 0.6948838683471341 0  0.9645772892192558 0.7062137009141434 0  0.9695236884064815 0.7184451175460498 0  0.972538971146615 0.7312896684428197 0  0.9725389711466151 0.7575992204460691 0  0.9695236884064815 0.7704437713428391 0  0.9645772892192558 0.7826751879747456 0  0.9578164230213342 0.7940050205417549 0  0.01437766570919127 0.09711967848259151 0  0.02854851642641832 0.09974531144948819 0  0.04161535472570586 0.1058251712658871 0  0.05275088139110013 0.1149743244732108 0  0.06125007411586489 0.1266135117968212 0  0.06657482449792251 0.1400058227212122 0  0.06643634307317195 0.1691277076584997 0  0.06071435336153361 0.1829418078690686 0  0.04134737123322858 0.3039103077764334 0  0.03416190609801732 0.2911362521989113 0  0.02925217947541549 0.2773267630846004 0  0.02676106927623143 0.2628837102534819 0  0.02676106927623143 0.2482274008576293 0  0.02925217947541547 0.2337843480265108 0  0.03416190609801727 0.2199748589121999 0  0.04134737123322851 0.2072008033346779 0  0.06071435387356935 0.328169304128914 0  0.06643634320569657 0.3419834039471998 0  0.06657482449792249 0.371105288389899 0  0.06125007411586481 0.3844975993142901 0  0.05275088139109994 0.3961367866379005 0  0.04161535472570563 0.4052859398452242 0  0.02854851642641818 0.411365799661623 0  0.01437766570919127 0.4139914326285196 0  0 0.4697526254167924 0  0 0.455563619650285 0  0 0.4413746138837777 0  0 0.4271856081172704 0  0.06095233986089402 0.4687284952262988 0  0.04995687430503332 0.4753797281664747 0  0.03809234373417287 0.4803165365228644 0  0.02562418374773841 0.4834284730529493 0  0.01283133446055119 0.4846459169037758 0  0.08372485599813187 0.4503967593658507 0  0.09753895276796982 0.4446747697099958 0  0.1123633055586467 0.4427231038764812 0  0.1271876590095525 0.4446747646950606 0  0.1410017577150834 0.45039674967774 0  0.1528641934757506 0.4594991149204779 0  0.161966560724962 0.471361549141524 0  0.1676885480442292 0.4851756468792086 0  0.1676885480443665 0.514824353120279 0  0.1619665607254926 0.528638450857557 0  0.1528641934768762 0.5405008850783964 0  0.1410017577169217 0.5496032503211987 0  0.1271876590121153 0.5553252353042526 0  0.1123633055618306 0.5572768961235188 0  0.09753895277155772 0.5553252302909656 0  0.08372485600180817 0.5496032406362719 0  0.0128313344605512 0.5153540830962242 0  0.0256241837477384 0.5165715269470507 0  0.03809234373417282 0.5196834634771356 0  0.04995687430503334 0.5246202718335253 0  0.06095233986089401
[...]
<PointData  Tensors="$\sigma$"> 
<DataArray  type="Float64"  Name="$\sigma$"  NumberOfComponents="9" format="ascii">-6.0543664984344377e+02 -6.3227170013572174e+02 0.0000000000000000e+00 -6.3227170013572174e+02 -5.0750587104637992e+02 0.0000000000000000e+00 0.0000000000000000e+00 0.0000000000000000e+00 0.0000000000000000e+00  -9.6500556987716345e+02 -8.0793522810955460e+02 0.0000000000000000e+00 -8.0793522810955460e+02 -8.8384988904305089e+02 0.0000000000000000e+00 0.0000000000000000e+00 0.0000000000000000e+00 0.0000000000000000e+00  -4.3424875048268467e+02 -6.8288525032106020e+02 0.0000000000000000e+00 -6.8288525032106020e+02 -7.5459966134486729e+02 0.0000000000000000e+00 0.0000000000000000e+00 0.0000000000000000e+00 0.0000000000000000e+00  6.3722275536470512e+01 1.7086826656690928e+01 0.0000000000000000e+00 1.7086826656690928e+01 -1.1025990692626945e+03 0.0000000000000000e+00 0.0000000000000000e+00 0.0000000000000000e+00 0.0000000000000000e+00  -4.0839927219893332e+02 5.4338991764048774e+02 0.0000000000000000e+00 5.4338991764048774e+02 -6.0770660882074719e+02 0.0000000000000000e+00 0.0000000000000000e+00 0.0000000000000000e+00 0.0000000000000000e+00  -7.1001902203642896e+02 6.6914362845557548e+02 0.0000000000000000e+00 6.6914362845557548e+02 -8.0293323543727513e+02 0.0000000000000000e+00 0.0000000000000000e+00 0.0000000000000000e+00 0.0000000000000000e+00  -4.7137526077984677e+02 4.3487561118969495e+02 0.0000000000000000e+00 4.3487561118969495e+02 -2.2823662320151482e+02 0.0000000000000000e+00 0.0000000000000000e+00 0.0000000000000000e+00 0.0000000000000000e+00  -7.3640454445240362e+00 -2.2512965185262019e+00 0.0000000000000000e+00 -2.2512965185262019e+00 -7.5787833565707414e+00 0.0000000000000000e+00 0.0000000000000000e+00 0.0000000000000000e+00 0.0000000000000000e+00  3.6267398238268903e+01 3.0649215583562246e+01 0.0000000000000000e+00 3.0649215583562246e+01 1.3766933871821193e+03 0.0000000000000000e+00 0.0000000000000000e+00 0.0000000000000000e+00 0.0000000000000000e+00  -4.6478183971039863e+02 4.4216644242648209e+02 0.0000000000000000e+00 4.4216644242648209e+02 -2.6024186580604174e+02 0.0000000000000000e+00 0.0000000000000000e+00 0.0000000000000000e+00 0.0000000000000000e+00  -7.1971473206062944e+02 6.4485836211903620e+02 0.0000000000000000e+00 6.4485836211903620e+02 -7.7753361606613987e+02 0.0000000000000000e+00 0.0000000000000000e+00 0.0000000000000000e+00 0.0000000000000000e+00  -3.6648201721925074e+02 5.3725194664123126e+02 0.0000000000000000e+00 5.3725194664123126e+02 -5.7851506535943429e+02 0.0000000000000000e+00 0.0000000000000000e+00 0.0000000000000000e+00 0.0000000000000000e+00  -4.2248800976167115e+02 -6.1864534141320462e+02 0.0000000000000000e+00 -6.1864534141320462e+02 -7.0212169079397768e+02 0.0000000000000000e+00 0.0000000000000000e+00 0.0000000000000000e+00 0.0000000000000000e+00  -9.3551042258896177e+02 -7.8113280841855021e+02 0.0000000000000000e+00 -7.8113280841855021e+02 -8.4097414741408784e+02 0.0000000000000000e+00 0.0000000000000000e+00 0.0000000000000000e+00 0.0000000000000000e+00  -5.6182070566281209e+02 -6.3610120203422468e+02 0.0000000000000000e+00 -6.3610120203422468e+02 -5.2095635513364766e+02 0.0000000000000000e+00 0.0000000000000000e+00 0.0000000000000000e+00 0.0000000000000000e+00  1.8623119939469611e+01 -6.6126618129648129e+00 0.0000000000000000e+00 -6.6126618129648147e+00 5.1582660002027615e+02 0.0000000000000000e+00 0.0000000000000000e+00 0.0000000000000000e+00 0.0000000000000000e+00  -5.0754328989581286e-02 -7.4198400977124615e-02 0.0000000000000000e+00 -7.4198400977124615e-02 -6.4328190631797122e-01 0.0000000000000000e+00 0.0000000000000000e+00 0.0000000000000000e+00 0.0000000000000000e+00  -4.3176528128996070e-02 2.7373316132763503e-02 0.0000000000000000e+00 2.7373316132763503e-02 2.5456417420146760e-02 0.0000000000000000e+00 0.0000000000000000e+00 0.0000000000000000e+00 0.0000000000000000e+00  -1.0036845046721499e+01 5.8303776883783316e+00 0.0000000000000000e+00 5.8303776883783316e+00 -2.3806241206414471e+00 0.0000000000000000e+00 0.0000000000000000e+00 0.0000000000000000e+00 0.0000000000000000e+00  1.3602472844693717e-01 5.7895946014041000e+00 0.0000000000000000e+00 5.7895946014041000e+00 -1.2600959190755141e+01 0.0000000000000000e+00 0.0000000000000000e+00 0.0000000000000000e+00 0.0000000000000000e+00  -2.3609349355770057e+01 2.0035794001287659e+01 0.0000000000000000e+00 2.0035794001287659e+01 -1.3499697619705687e+01 0.0000000000000000e+00 0.0000000000000000e+00 0.0000000000000000e+00 0.0000000000000000e+00  4.6929293029028383e+02 5.8362406816096843e+01 0.0000000000000000e+00 5.8362406816096843e+01 6.0337841871865576e+03 0.0000000000000000e+00 0.0000000000000000e+00 0.0000000000000000e+00 0.0000000000000000e+00  -2.1961155179278514e+01 -2.4179615005793675e+01 0.0000000000000000e+00 -2.4179615005793675e+01 -1.5087118518423313e+01 0.0000000000000000e+00 0.0000000000000000e+00 0.0000000000000000e+00 0.0000000000000000e+00  -9.5780154364109782e-01 -2.7382809336289653e+00 0.0000000000000000e+00 -2.7382809336289653e+00 -1.1556722204020749e+01 0.0000000000000000e+00 0.0000000000000000e+00 0.0000000000000000e+00 0.0000000000000000e+00  -9.7302483822340395e+00 -5.7266146339263013e+00 0.0000000000000000e+00 -5.7266146339263013e+00 -1.2982130146876525e+00 0.0000000000000000e+00 0.0000000000000000e+00 0.0000000000000000e+00 0.0000000000000000e+00  -4.6102573679001849e-02 -4.3966566461259633e-02 0.0000000000000000e+00 -4.3966566461259703e-02 3.2180815875188590e-02 0.0000000000000000e+00 0.0000000000000000e+00 0.0000000000000000e+00 0.0000000000000000e+00  1.4788271302616454e-01 -1.2977107892099332e-01 0.0000000000000000e+00 -1.2977107892099332e-01 -4.1196096006568922e-01 0.0000000000000000e+00 0.0000000000000000e+00 0.0000000000000000e+00 0.0000000000000000e+00  9.7755446696128185e+00 -5.7313512812928966e+00 0.0000000000000000e+00 -5.7313512812928966e+00 5.1429389041710442e+02 0.0000000000000000e+00 0.0000000000000000e+00 0.0000000000000000e+00 0.0000000000000000e+00  -5.4343629121636525e+02 6.3309257751273867e+02 0.0000000000000000e+00 6.3309257751273867e+02 -5.2121620870354184e+02 0.0000000000000000e+00 0.0000000000000000e+00 0.0000000000000000e+00 0.0000000000000000e+00  -9.1787018530468924e+02 7.2031650400677279e+02 0.0000000000000000e+00 7.2031650400677279e+02 -7.1694540956213029e+02 0.0000000000000000e+00 0.0000000000000000e+00 0.0000000000000000e+00 0.0000000000000000e+00  -3.7657731831046834e+02 6.1729832613041549e+02 0.0000000000000000e+00 6.1729832613041549e+02 -7.8860748398598605e+02 0.0000000000000000e+00 0.0000000000000000e+00 0.0000000000000000e+00 0.0000000000000000e+00  -3.6326608674835074e+02 -5.3760376019916328e+02 0.0000000000000000e+00 -5.3760376019916328e+02 -5.8058468753578165e+02 0.0000000000000000e+00 0.0000000000000000e+00 0.0000000000000000e+00 0.0000000000000000e+00  -7.0571617400978266e+02 -6.2429840562872153e+02 0.0000000000000000e+00 -6.2429840562872153e+02 -7.6509639772384003e+02 0.0000000000000000e+00 0.0000000000000000e+00 0.0000000000000000e+00 0.0000000000000000e+00  -4.5761552937589880e+02 -4.3958172155283432e+02 0.0000000000000000e+00 -4.3958172155283444e+02 -2.4110654047491846e+02 0.0000000000000000e+00 0.0000000000000000e+00 0.0000000000000000e+00 0.0000000000000000e+00  9.3837883552463666e+01 -5.2703089205844329e+01 0.0000000000000000e+00 -5.2703089205844329e+01 1.2590605559467197e+03 0.0000000000000000e+00 0.0000000000000000e+00 0.0000000000000000e+00 0.0000000000000000e+00  -7.6414009535324130e+00 7.3584640431559016e+00 0.0000000000000000e+00 7.3584640431559016e+00 -4.1028876116760520e+00 0.0000000000000000e+00 0.0000000000000000e+00 0.0000000000000000e+00 0.0000000000000000e+00  -8.7567925252779921e-01 1.2400127945833523e+00 0.0000000000000000e+00 1.2400127945833523e+00 9.6135571715539868e+01 0.0000000000000000e+00 0.0000000000000000e+00 0.0000000000000000e+00 0.0000000000000000e+00  -1.0249373182840855e+00 -9.7407876874824639e-01 0.0000000000000000e+00 -9.7407876874824717e-01 9.7703957436159570e+01 0.0000000000000000e+00 0.0000000000000000e+00 0.0000000000000000e+00 0.0000000000000000e+00  -7.2585766992687422e+00 -2.1802217553884757e+00 0.0000000000000000e+00 -2.1802217553884757e+00 -7.6412093442262368e+00 0.0000000000000000e+00 0.0000000000000000e+00 0.0000000000000000e+00 0.0000000000000000e+00  -4.8781090292850438e-02 -7.4743210820673853e-02 0.0000000000000000e+00 -7.4743210820673769e-02 -6.7235830646214112e-01 0.0000000000000000e+00 0.0000000000000000e+00 0.0000000000000000e+00 0.0000000000000000e+00  -5.2297831188682760e-02 2.5407375226348856e-02 0.0000000000000000e+00 2.5407375226348852e-02 1.7969717200531875e-02 0.0000000000000000e+00 0.0000000000000000e+00 0.0000000000000000e+00 0.0000000000000000e+00  -1.2855616349587248e+01 8.7340853651086103e+00 0.0000000000000000e+00 8.7340853651086103e+00 -3.8414935340714309e+00 0.0000000000000000e+00 0.0000000000000000e+00 0.0000000000000000e+00 0.0000000000000000e+00  -8.3106972873752767e+00 8.8667621908211487e+00 0.0000000000000000e+00 8.8667621908211487e+00 -1.2583723739518165e+01 0.0000000000000000e+00 0.0000000000000000e+00 0.0000000000000000e+00 0.0000000000000000e+00  -1.4882059229845192e+01 1.8549558058540455e+01 0.0000000000000000e+00 1.8549558058540455e+01 -1.7074777049833902e+01 0.0000000000000000e+00 0.0000000000000000e+00 0.0000000000000000e+00 0.0000000000000000e+00  -2.1137443491771581e+01 -2.1878696858111802e+01 0.0000000000000000e+00 -2.1878696858111805e+01 -1.4744834717956644e+01 0.0000000000000000e+00 0.0000000000000000e+00 0.0000000000000000e+00 0.0000000000000000e+00  -3.0304591397473728e+00 -7.5088163628318023e+00 0.0000000000000000e+00 -7.5088163628318005e+00 -1.4794293651785797e+01 0.0000000000000000e+00 0.0000000000000000e+00 0.0000000000000000e+00 0.0000000000000000e+00  -1.1194570295172952e+01 -4.6446176714028908e+00 0.0000000000000000e+00 -4.6446176714028908e+00 -8.7777068962450844e-01 0.0000000000000000e+00 0.0000000000000000e+00 0.0000000000000000e+00 0.0000000000000000e+00  -1.9046799637329862e-02 -3.5172530421102639e-02 0.0000000000000000e+00 -3.5172530421102653e-02 3.4517467894637298e-02 0.0000000000000000e+00 0.0000000000000000e+00 0.0000000000000000e+00 0.0000000000000000e+00  -4.9892675908150796e-01 -2.4847804576865798e-01 0.0000000000000000e+00 -2.4847804576865803e-01 -4.1996742024680622e-02 0.0000000000000000e+00 0.0000000000000000e+00 0.0000000000000000e+00 0.0000000000000000e+00  -6.1832457106255447e+02 6.1405477638298578e+02 0.0000000000000000e+00 6.1405477638298578e+02 -4.4643089739123900e+02 0.0000000000000000e+00 0.0000000000000000e+00 0.0000000000000000e+00 0.0000000000000000e+00  -9.0369994076029366e+02 7.8726827852166059e+02 0.0000000000000000e+00 7.8726827852166059e+02 -8.6611473760472234e+02 0.0000000000000000e+00 0.0000000000000000e+00 0.0000000000000000e+00 0.0000000000000000e+00  -4.4105719314837421e+02 6.6280570470117186e+02 0.0000000000000000e+00 6.6280570470117186e+02 -7.7263287582111514e+02 0.0000000000000000e+00 0.0000000000000000e+00 0.0000000000000000e+00 0.0000000000000000e+00  5.8791604881669606e+01 1.2314484681512688e+01 0.0000000000000000e+00 1.2314484681512688e+01 -1.1025991482779395e+03 0.0000000000000000e+00 0.0000000000000000e+00 0.0000000000000000e+00 0.0000000000000000e+00  -3.6496913498739161e+02 -5.6720766701734738e+02 0.0000000000000000e+00 -5.6720766701734738e+02 -5.9911237150153147e+02 0.0000000000000000e+00 0.0000000000000000e+00 0.0000000000000000e+00 0.0000000000000000e+00  -7.8602840422153554e+02 -6.9947708639658481e+02 0.0000000000000000e+00 -6.9947708639658481e+02 -8.1269528241089074e+02 0.0000000000000000e+00 0.0000000000000000e+00 0.0000000000000000e+00 0.0000000000000000e+00  -4.6308694244531398e+02 -4.2601972266085977e+02 0.0000000000000000e+00 -4.2601972266085977e+02 -2.8385237375815467e+02 0.0000000000000000e+00 0.0000000000000000e+00 0.0000000000000000e+00 0.0000000000000000e+00  -9.2414524094225339e+00 6.7128286800434980e+00 0.0000000000000000e+00 6.7128286800434980e+00 -3.4090034680955533e-01 0.0000000000000000e+00 0.0000000000000000e+00 0.0000000000000000e+00 0.0000000000000000e+00  -1.2861825145675572e+00 8.8966970545594137e-01 0.0000000000000000e+00 8.8966970545594193e-01 9.8282234610593989e+01 0.0000000000000000e+00 0.0000000000000000e+00 0.0000000000000000e+00 0.0000000000000000e+00  3.1435982234196569e+01 2.3442411885894227e+01 0.0000000000000000e+00 2.3442411885894227e+01 1.1752667754243636e+02 0.0000000000000000e+00 0.0000000000000000e+00 0.0000000000000000e+00 0.0000000000000000e+00  -1.4806913478881308e+03 1.1468337619669476e+03 0.0000000000000000e+00 1.1468337619669476e+03 -7.7089933155199878e+02 0.0000000000000000e+00 0.0000000000000000e+00 0.0000000000000000e+00 0.0000000000000000e+00  -9.9391167384725225e+02 1.3680900650152485e+03 0.0000000000000000e+00 1.3680900650152485e+03 -1.8424662975027809e+03 0.0000000000000000e+00 0.0000000000000000e+00 0.0000000000000000e+00 0.0000000000000000e+00  -1.0927806755249267e+03 -8.7154675350638695e+02 0.0000000000000000e+00 -8.7154675350638695e+02 -5.6773600364432707e+02 0.0000000000000000e+00 0.0000000000000000e+00 0.0000000000000000e+00 0.0000000000000000e+00  -1.8180822591688645e+03 1.5384071556621916e+03 0.0000000000000000e+00 1.5384071556621916e+03 -1.1368465377120338e+03 0.0000000000000000e+00 0.0000000000000000e+00 0.0000000000000000e+00 0.0000000000000000e+00  -7.8412387822852770e+02 -9.4654147630971318e+02 0.0000000000000000e+00 -9.4654147630971318e+02 -1.2904427720905419e+03 0.0000000000000000e+00 0.0000000000000000e+00 0.0000000000000000e+00 0.0000000000000000e+00  -2.5918235742333900e+02 -2.0882131691613515e+02 0.0000000000000000e+00 -2.0882131691613515e+02 -1.5898281622823487e+02 0.0000000000000000e+00 0.0000000000000000e+00 0.0000000000000000e+00 0.0000000000000000e+00  -1.1808515020412597e+03 -1.1107036354875040e+03 0.0000000000000000e+00 -1.1107036354875040e+03 -8.5027971458284071e+02 0.0000000000000000e+00 0.0000000000000000e+00 0.0000000000000000e+00 0.0000000000000000e+00  -9.8418030558942334e+01 -1.3235510412253379e+02 0.0000000000000000e+00 -1.3235510412253379e+02 -1.8497717875375704e+02 0.0000000000000000e+00 0.0000000000000000e+00 0.0000000000000000e+00 0.0000000000000000e+00  4.5975636952348532e+02 -4.1634508087305596e+02 0.0000000000000000e+00 -4.1634508087305596e+02 4.8026950203958531e+03 0.0000000000000000e+00 0.0000000000000000e+00 0.0000000000000000e+00 0.0000000000000000e+00  -1.1589115577689462e+02 -1.1684199961023263e+02 0.0000000000000000e+00 -1.1684199961023263e+02 -8.2379838584323167e+01 0.0000000000000000e+00 0.0000000000000000e+00 0.0000000000000000e+00 0.0000000000000000e+00  -3.7994421896692654e+02 2.7945471081522510e+02 0.0000000000000000e+00 2.7945471081522510e+02 -1.5959162767699860e+02 0.0000000000000000e+00 0.0000000000000000e+00 0.0000000000000000e+00 0.0000000000000000e+00  -2.2478866346033894e+02 1.5817503151246615e+02 0.0000000000000000e+00 1.5817503151246615e+02 -1.0207524433713741e+02 0.0000000000000000e+00 0.0000000000000000e+00 0.0000000000000000e+00 0.0000000000000000e+00  2.2441718992574330e+01 9.5585121474219804e+01 0.0000000000000000e+00 9.5585121474219804e+01 -2.1105235092241858e+02 0.0000000000000000e+00 0.0000000000000000e+00 0.0000000000000000e+00 0.0000000000000000e+00  -8.6635590872890896e+02 -9.8400775479644767e+02 0.0000000000000000e+00 -9.8400775479644767e+02 -8.3302093321923940e+02 0.0000000000000000e+00 0.0000000000000000e+00 0.0000000000000000e+00 0.0000000000000000e+00  5.6143167567986190e+01 -1.8013051357362093e+02 0.0000000000000000e+00 -1.8013051357362093e+02 7.7083947484610326e+02 0.0000000000000000e+00 0.0000000000000000e+00 0.0000000000000000e+00 0.0000000000000000e+00  -1.2973344361960517e+03 -1.0357228251744798e+03 0.0000000000000000e+00 -1.0357228251744798e+03 -1.0733225052912865e+03 0.0000000000000000e+00 0.0000000000000000e+00 0.0000000000000000e+00 0.0000000000000000e+00  -8.5209497715482496e+02 1.0086424490958418e+03 0.0000000000000000e+00 1.0086424490958418e+03 -8.7986762516316878e+02 0.0000000000000000e+00 0.0000000000000000e+00 0.0000000000000000e+00 0.0000000000000000e+00  -5.7145375680300492e+02 -9.0416236703165475e+02 0.0000000000000000e+00 -9.0416236703165475e+02 -1.0725187923703199e+03 0.0000000000000000e+00 0.0000000000000000e+00 0.0000000000000000e+00 0.0000000000000000e+00  -1.3067285450174772e+03 1.0550054636288512e+03 0.0000000000000000e+00 1.0550054636288512e+03 -1.0346175581213195e+03 0.0000000000000000e+00 0.0000000000000000e+00 0.0000000000000000e+00 0.0000000000000000e+00  -2.7470436149376116e+00 2.7578318300291716e+01 0.0000000000000000e+00 2.7578318300291716e+01 4.3106873345987566e+01 0.0000000000000000e+00 0.0000000000000000e+00 0.0000000000000000e+00 0.0000000000000000e+00  -6.3539160582054956e+02 9.1241392717399810e+02 0.0000000000000000e+00 9.1241392717399810e+02 -1.1480849778040840e+03 0.0000000000000000e+00 0.0000000000000000e+00 0.0000000000000000e+00 0.0000000000000000e+00  2.0709833827630671e+01 2.0037607854680220e+02 0.0000000000000000e+00 2.0037607854680220e+02 -5.6007558508123441e+02 0.0000000000000000e+00 0.0000000000000000e+00 0.0000000000000000e+00 0.0000000000000000e+00  8.0246487218071977e+01 -2.6060022458964710e+01 0.0000000000000000e+00 -2.6060022458964710e+01 -1.1102891219358492e+03 0.0000000000000000e+00 0.0000000000000000e+00 0.0000000000000000e+00 0.0000000000000000e+00  2.3710522286195632e+02 -5.8826882964199058e+02 0.0000000000000000e+00 -5.8826882964199058e+02 1.0086311209893096e+03 0.0000000000000000e+00 0.0000000000000000e+00 0.0000000000000000e+00 0.0000000000000000e+00  -6.7463588867547415e+01 7.9629944464401854e+00 0.0000000000000000e+00 7.9629944464401854e+00 2.1808650962515273e+02 0.0000000000000000e+00 0.0000000000000000e+00 0.0000000000000000e+00 0.0000000000000000e+00  1.3869689701098605e+02 -8.4168931356025865e+01 0.0000000000000000e+00 -8.4168931356025865e+01 4.1802978969975957e+03 0.0000000000000000e+00 0.0000000000000000e+00 0.0000000000000000e+00 0.0000000000000000e+00  8.5253339261293036e+01 -2.2075364885981955e+02 0.0000000000000000e+00 -2.2075364885981955e+02 -7.1754713333839743e+02 0.0000000000000000e+00 0.0000000000000000e+00 0.0000000000000000e+00 0.0000000000000000e+00  1.6319973172215867e+02 5.3928051631369635e+02 0.0000000000000000e+00 5.3928051631369635e+02 1.0217660479197687e+03 0.0000000000000000e+00 0.0000000000000000e+00 0.0000000000000000e+00 0.0000000000000000e+00  -1.0813963348425655e+03 8.5551783137700966e+02 0.0000000000000000e+00 8.5551783137700966e+02 -5.8633311850224595e+02 0.0000000000000000e+00 0.0000000000000000e+00 0.0000000000000000e+00 0.0000000000000000e+00  -8.1927089986718363e+02 1.0274674091259344e+03 0.0000000000000000e+00 1.0274674091259344e+03 -1.3419215483589612e+03 0.0000000000000000e+00 0.0000000000000000e+00 0.0000000000000000e+00 0.0000000000000000e+00  -1.4936532156905932e+03 -1.1576051334917843e+03 0.0000000000000000e+00 -1.1576051334917843e+03 -7.1951517948995559e+02 0.0000000000000000e+00 0.0000000000000000e+00 0.0000000000000000e+00 0.0000000000000000e+00  -1.2150571767684978e+03 1.0813911385164085e+03 0.0000000000000000e+00 1.0813911385164085e+03 -8.2899087290783837e+02 0.0000000000000000e+00 0.0000000000000000e+00 0.0000000000000000e+00 0.0000000000000000e+00  -9.8073355689625475e+02 -1.2618417617834764e+03 0.0000000000000000e+00 -1.2618417617834764e+03 -1.7554644145142645e+03 0.0000000000000000e+00 0.0000000000000000e+00 0.0000000000000000e+00 0.0000000000000000e+00  -4.0821379663659042e+02 -2.6486927675181846e+02 0.0000000000000000e+00 -2.6486927675181846e+02 -1.6033877147757121e+02 0.0000000000000000e+00 0.0000000000000000e+00 0.0000000000000000e+00 0.0000000000000000e+00  -1.7153283695530176e+03 -1.5720028370104196e+03 0.0000000000000000e+00 -1.5720028370104196e+03 -1.2042675903059865e+03 0.0000000000000000e+00 0.0000000000000000e+00 0.0000000000000000e+00 0.0000000000000000e+00  5.8758032522186188e+00 -1.3821320733531238e+02 0.0000000000000000e+00 -1.382132073353