<?xml version="1.0"?>
<VTKFile type="UnstructuredGrid"  version="0.1"  >
<UnstructuredGrid>
<Piece  NumberOfPoints="4855" NumberOfCells="8780">
<Points>
<DataArray  type="Float64"  NumberOfComponents="3"  format="ascii">0.9483880164242298 0.6836931311526558 0  0.9494264999197789 0.6847056440044139 0  0.9494005292759887 0.6847228078606633 0  0.9735520289385229 0.7444444444444445 0  0.9494005292759886 0.8041660810282256 0  0.94942649991978 0.8041832448844759 0  0.9483880175070514 0.8051957566534116 0  3.131175874138137e-16 0.09811450876034808 0  0.06838800723463068 0.1543033514199101 0  0.05161198249294494 0.1948042433465922 0  0.0505735000802211 0.1958167551155251 0  0.05059947072401128 0.1958339189717744 0  0.0505994707240113 0.3152771921393367 0  0.05057350008021998 0.315294355995587 0  0.05161198357913653 0.3163068688507105 0  0.06838800723463068 0.356807759691201 0  3.252606517456513e-16 0.4129966023507631 0  -1.795438797635995e-16 0.4839416311832997 0  0.07083274769489223 0.4605116403870998 0  0.07084991155114129 0.4605376110308903 0  0.07186242331670639 0.4594991286215342 0  0.1696402113702762 0.5 0  0.07186242332008326 0.5405008713818427 0  0.0708499115511413 0.5394623889691096 0  0.07083274769489219 0.5394883596129002 0  -1.925543058334256e-16 0.5160583688167003 0  1.484923295436147e-15 0.5870033976492365 0  0.06838800723463068 0.643192240308799 0  0.05161198249294541 0.6836931322354806 0  0.05057350008022109 0.6847056440044139 0  0.0505994707240113 0.6847228078606633 0  0.0505994707240113 0.8041660810282256 0  0.05057350008021999 0.804183244884476 0  0.05161198249294764 0.8051957566534106 0  0.06838800723463068 0.84569664858009 0  1.485790657174135e-15 0.9018854912396524 0  0 1 0  1 1 0  0.9999999999999987 0.9018854912396523 0  1.000000000000001 0.5870033976492375 0  1 0.5160583688167003 0  0.9291672523051078 0.5394883596129003 0  0.9291500884488585 0.5394623889691117 0  0.9281375755937461 0.5405008724680134 0  0.9281375755937372 0.4594991275319777 0  0.9291500884488586 0.4605376110308884 0  0.9291672523051077 0.4605116403870997 0  1 0.4839416311832997 0  0.9999999999999987 0.4129966023507635 0  0.948388017507054 0.31630686776452 0  0.94942649991978 0.3152943559955871 0  0.9494005292759886 0.3152771921393367 0  0.9735520289385229 0.2555555555555555 0  0.9494005292759888 0.1958339189717744 0  0.9494264999197789 0.1958167551155251 0  0.9483880164208631 0.1948042422604003 0  1.000000000000001 0.09811450876034861 0  1 0 0  0 0 0  0.1958339189717744 0.2950439151684559 0  0.1958167551155252 0.2950179445246672 0  0.3152771921393367 0.2950439151684557 0  0.1948042433481841 0.2960564269357975 0  0.3152943559955858 0.2950179445246651 0  0.1948042422604031 0.2150546830875326 0  0.3163068677645244 0.2960564269373949 0  0.1958167551155251 0.2160931665864439 0  0.4140846558147206 0.2555555555555555 0  0.1958339189717744 0.2160671959426553 0  0.3163068688489276 0.215054683089313 0  0.3152771921393367 0.2160671959426553 0  0.3152943559955858 0.2160931665864459 0  0.5405008724680257 0.3163068688507107 0  0.5572768961235196 0.356807759691201 0  0.5394623889691089 0.3152943559955871 0  0.459499128618165 0.3163068677645201 0  0.5394883596129003 0.3152771921393367 0  0.4605376110308911 0.3152943559955871 0  0.5394883596129001 0.1958339189717744 0  0.4605116403870998 0.3152771921393367 0  0.53946238896911 0.1958167551155251 0  0.4846631400496339 0.2555555555555555 0  0.5405008724680251 0.1948042422604009 0  0.4605116403870998 0.1958339189717744 0  0.5572768961235196 0.1543033514199101 0  0.46053761103089 0.1958167551155251 0  0.4594991286269881 0.1948042433554141 0  0.6847228078606633 0.2950439151684559 0  0.684705644004414 0.2950179445246672 0  0.8041660810282256 0.2950439151684557 0  0.683693131164073 0.2960564280087975 0  0.8041832448844747 0.2950179445246651 0  0.6836931322354718 0.2150546841737125 0  0.8051957566534156 0.2960564269373971 0  0.6847056440044141 0.2160931665864439 0  0.9029735447036096 0.2555555555555555 0  0.6847228078606632 0.2160671959426553 0  0.8051957577274008 0.2150546830997286 0  0.8041660810282256 0.2160671959426553 0  0.8041832448844747 0.2160931665864459 0  0.2960564280235811 0.560751313295155 0  0.3128324516790751 0.6012522041356455 0  0.2950179445246645 0.5597388004400315 0  0.2150546830875235 0.5607513132951615 0  0.2950439151684557 0.5597216365837812 0  0.2160931665864466 0.5597388004400314 0  0.2950439151684558 0.4402783634162188 0  0.2160671959426553 0.5597216365837812 0  0.2950179445246656 0.4402611995599696 0  0.2402186956051895 0.5 0  0.29605642693739 0.439248687791036 0  0.2160671959426553 0.4402783634162189 0  0.3128324516790751 0.3987477958643545 0  0.2160931665864455 0.4402611995599696 0  0.2150546830875296 0.4392486867048446 0  0.1958339189717743 0.7839328040573448 0  0.1958167551155252 0.7839068334135562 0  0.3152771921393367 0.7839328040573447 0  0.1948042422604028 0.7849453169124678 0  0.3152943559955858 0.783906833413554 0  0.1948042433465913 0.7039435730626098 0  0.3163068677645284 0.7849453158262878 0  0.1958167551155251 0.7049820554753328 0  0.4140846558147206 0.7444444444444445 0  0.1958339189717744 0.7049560848315441 0  0.3163068688486237 0.7039435719785058 0  0.3152771921393367 0.7049560848315441 0  0.3152943559955858 0.7049820554753349 0  0.4402783634162188 0.5394883596129003 0  0.4402611995599696 0.5394623889691117 0  0.5597216365837812 0.5394883596129002 0  0.4392486867048468 0.5405008724680237 0  0.5597388004400302 0.5394623889691096 0  0.4392486877998708 0.4594991286270004 0  0.5607513122089726 0.540500871381843 0  0.4402611995599696 0.4605376110308884 0  0.6585291002591651 0.5 0  0.4402783634162188 0.4605116403870998 0  0.5607513121946796 0.45949912863245 0  0.5597216365837812 0.4605116403870998 0  0.5597388004400302 0.4605376110308904 0  0.78494531690701 0.5607513132896949 0  0.8017213405679641 0.6012522041356455 0  0.7839068334135535 0.5597388004400315 0  0.7039435730626069 0.5607513122089671 0  0.7839328040573448 0.5597216365837812 0  0.7049820554753355 0.5597388004400314 0  0.7839328040573448 0.4402783634162188 0  0.7049560848315441 0.5597216365837812 0  0.7839068334135545 0.4402611995599696 0  0.7291075844940784 0.5 0  0.784945315826279 0.4392486877910359 0  0.7049560848315444 0.4402783634162188 0  0.8017213405679641 0.3987477958643545 0  0.7049820554753344 0.4402611995599696 0  0.7039435719764182 0.4392486867048443 0  0.5405008724625655 0.8051957577341393 0  0.5572768961235196 0.84569664858009 0  0.539462388969109 0.804183244884476 0  0.4594991286181648 0.8051957566534091 0  0.5394883596129003 0.8041660810282256 0  0.4605376110308911 0.804183244884476 0  0.5394883596129003 0.6847228078606633 0  0.4605116403870998 0.8041660810282256 0  0.53946238896911 0.6847056440044139 0  0.4846631400496339 0.7444444444444445 0  0.5405008713818347 0.6836931322354802 0  0.4605116403870998 0.6847228078606633 0  0.5572768961235196 0.643192240308799 0  0.46053761103089 0.6847056440044139 0  0.4594991275353449 0.6836931311526599 0  0.6847228078606633 0.7839328040573448 0  0.684705644004414 0.7839068334135562 0  0.8041660810282256 0.7839328040573447 0  0.6836931311493016 0.7849453169124578 0  0.8041832448844747 0.783906833413554 0  0.68369313223548 0.7039435730626096 0  0.805195756653417 0.7849453158262875 0  0.6847056440044141 0.7049820554753328 0  0.9029735447036096 0.7444444444444445 0  0.6847228078606633 0.7049560848315441 0  0.805195757738809 0.7039435719772094 0  0.8041660810282256 0.7049560848315441 0  0.8041832448844747 0.7049820554753349 0  0.9578164230213342 0.6948838683471341 0  0.9645772892192558 0.7062137009141434 0  0.9695236884064815 0.7184451175460498 0  0.972538971146615 0.7312896684428197 0  0.9725389711466151 0.7575992204460691 0  0.9695236884064815 0.7704437713428391 0  0.9645772892192558 0.7826751879747456 0  0.9578164230213342 0.7940050205417549 0  0.01437766570919127 0.09711967848259151 0  0.02854851642641832 0.09974531144948819 0  0.04161535472570586 0.1058251712658871 0  0.05275088139110013 0.1149743244732108 0  0.06125007411586489 0.1266135117968212 0  0.06657482449792251 0.1400058227212122 0  0.06643634307317195 0.1691277076584997 0  0.06071435336153361 0.1829418078690686 0  0.04134737123322858 0.3039103077764334 0  0.03416190609801732 0.2911362521989113 0  0.02925217947541549 0.2773267630846004 0  0.02676106927623143 0.2628837102534819 0  0.02676106927623143 0.2482274008576293 0  0.02925217947541547 0.2337843480265108 0  0.03416190609801727 0.2199748589121999 0  0.04134737123322851 0.2072008033346779 0  0.06071435387356935 0.328169304128914 0  0.06643634320569657 0.3419834039471998 0  0.06657482449792249 0.371105288389899 0  0.06125007411586481 0.3844975993142901 0  0.05275088139109994 0.3961367866379005 0  0.04161535472570563 0.4052859398452242 0  0.02854851642641818 0.411365799661623 0  0.01437766570919127 0.4139914326285196 0  0 0.4697526254167924 0  0 0.455563619650285 0  0 0.4413746138837777 0  0 0.4271856081172704 0  0.06095233986089402 0.4687284952262988 0  0.04995687430503332 0.4753797281664747 0  0.03809234373417287 0.4803165365228644 0  0.02562418374773841 0.4834284730529493 0  0.01283133446055119 0.4846459169037758 0  0.08372485599813187 0.4503967593658507 0  0.09753895276796982 0.4446747697099958 0  0.1123633055586467 0.4427231038764812 0  0.1271876590095525 0.4446747646950606 0  0.1410017577150834 0.45039674967774 0  0.1528641934757506 0.4594991149204779 0  0.161966560724962 0.471361549141524 0  0.1676885480442292 0.4851756468792086 0  0.1676885480443665 0.514824353120279 0  0.1619665607254926 0.528638450857557 0  0.1528641934768762 0.5405008850783964 0  0.1410017577169217 0.5496032503211987 0  0.1271876590121153 0.5553252353042526 0  0.1123633055618306 0.5572768961235188 0  0.09753895277155772 0.5553252302909656 0  0.08372485600180817 0.5496032406362719 0  0.0128313344605512 0.5153540830962242 0  0.0256241837477384 0.5165715269470507 0  0.03809234373417282 0.5196834634771356 0  0.04995687430503334 0.5246202718335253 0  0.06095233986089401
[...]
<PointData  Tensors="$\sigma$"> 
<DataArray  type="Float64"  Name="$\sigma$"  NumberOfComponents="9" format="ascii">-5.3274541481686620e+03 -5.7979456452864160e+03 0.0000000000000000e+00 -5.7979456452864115e+03 -7.2612302809694493e+03 0.0000000000000000e+00 0.0000000000000000e+00 0.0000000000000000e+00 0.0000000000000000e+00  -6.0692825501867237e+03 -5.9906452939098872e+03 0.0000000000000000e+00 -5.9906452939098917e+03 -3.7366995565671937e+03 0.0000000000000000e+00 0.0000000000000000e+00 0.0000000000000000e+00 0.0000000000000000e+00  -5.4556394183464017e+03 -5.7371533848513754e+03 0.0000000000000000e+00 -5.7371533848513818e+03 -6.8038043603335464e+03 0.0000000000000000e+00 0.0000000000000000e+00 0.0000000000000000e+00 0.0000000000000000e+00  -3.8207411350808405e+02 -3.7486607438847437e+02 0.0000000000000000e+00 -3.7486607438847460e+02 -1.1950673389398611e+04 0.0000000000000000e+00 0.0000000000000000e+00 0.0000000000000000e+00 0.0000000000000000e+00  -4.5790583687924145e+03 5.6053477682770708e+03 0.0000000000000000e+00 5.6053477682770854e+03 -6.2046414177026791e+03 0.0000000000000000e+00 0.0000000000000000e+00 0.0000000000000000e+00 0.0000000000000000e+00  -8.6575276744334169e+03 6.3722545022438253e+03 0.0000000000000000e+00 6.3722545022438198e+03 -6.9444440045125184e+03 0.0000000000000000e+00 0.0000000000000000e+00 0.0000000000000000e+00 0.0000000000000000e+00  -3.7018818295590413e+03 4.8148604958115820e+03 0.0000000000000000e+00 4.8148604958115830e+03 -4.5310401780710345e+03 0.0000000000000000e+00 0.0000000000000000e+00 0.0000000000000000e+00 0.0000000000000000e+00  6.1672107049268931e+01 2.8573932531729218e+00 0.0000000000000000e+00 2.8573932531729298e+00 2.5069035174601019e+01 0.0000000000000000e+00 0.0000000000000000e+00 0.0000000000000000e+00 0.0000000000000000e+00  -6.9667969956597950e+00 7.5247322259415270e+01 0.0000000000000000e+00 7.5247322259414773e+01 8.2445892952482864e+03 0.0000000000000000e+00 0.0000000000000000e+00 0.0000000000000000e+00 0.0000000000000000e+00  -3.8896911901149533e+03 4.3849598592834182e+03 0.0000000000000000e+00 4.3849598592834209e+03 -5.4418035112906573e+03 0.0000000000000000e+00 0.0000000000000000e+00 0.0000000000000000e+00 0.0000000000000000e+00  -8.2339642182019270e+03 6.6095009873602721e+03 0.0000000000000000e+00 6.6095009873602703e+03 -6.1377704241458941e+03 0.0000000000000000e+00 0.0000000000000000e+00 0.0000000000000000e+00 0.0000000000000000e+00  -4.5442470687147288e+03 5.3887435714736939e+03 0.0000000000000000e+00 5.3887435714736985e+03 -5.8436423347185564e+03 0.0000000000000000e+00 0.0000000000000000e+00 0.0000000000000000e+00 0.0000000000000000e+00  -4.9864492077240684e+03 -5.8100493775422456e+03 0.0000000000000000e+00 -5.8100493775422437e+03 -6.8524493214152062e+03 0.0000000000000000e+00 0.0000000000000000e+00 0.0000000000000000e+00 0.0000000000000000e+00  -7.7751742715502878e+03 -5.7921277238919238e+03 0.0000000000000000e+00 -5.7921277238919338e+03 -4.1314364829374599e+03 0.0000000000000000e+00 0.0000000000000000e+00 0.0000000000000000e+00 0.0000000000000000e+00  -4.0601433677865948e+03 -6.0279142818543451e+03 0.0000000000000000e+00 -6.0279142818543323e+03 -7.0329062564816950e+03 0.0000000000000000e+00 0.0000000000000000e+00 0.0000000000000000e+00 0.0000000000000000e+00  3.0172470257770021e+02 -2.9004805808169490e+01 0.0000000000000000e+00 -2.9004805808169245e+01 1.3464733215963097e+03 0.0000000000000000e+00 0.0000000000000000e+00 0.0000000000000000e+00 0.0000000000000000e+00  1.8669904877227816e+00 1.5693003139973987e+00 0.0000000000000000e+00 1.5693003139973967e+00 -7.8347707188434788e+00 0.0000000000000000e+00 0.0000000000000000e+00 0.0000000000000000e+00 0.0000000000000000e+00  -1.7126295454298361e+00 6.3847633247036450e-01 0.0000000000000000e+00 6.3847633247036495e-01 3.1733461165246681e+00 0.0000000000000000e+00 0.0000000000000000e+00 0.0000000000000000e+00 0.0000000000000000e+00  -3.5416223704106230e+01 2.9796572268978061e+01 0.0000000000000000e+00 2.9796572268978082e+01 -1.6386840905999112e+01 0.0000000000000000e+00 0.0000000000000000e+00 0.0000000000000000e+00 0.0000000000000000e+00  -1.7169037561568598e+02 8.0053362222863868e+01 0.0000000000000000e+00 8.0053362222863839e+01 -1.0453308107576579e+02 0.0000000000000000e+00 0.0000000000000000e+00 0.0000000000000000e+00 0.0000000000000000e+00  4.5305826159645179e+01 5.1861062892283165e+01 0.0000000000000000e+00 5.1861062892283172e+01 -3.7143874368014032e+01 0.0000000000000000e+00 0.0000000000000000e+00 0.0000000000000000e+00 0.0000000000000000e+00  5.8922374819632887e+03 -2.5359240409409799e+02 0.0000000000000000e+00 -2.5359240409409691e+02 1.8767850434199674e+04 0.0000000000000000e+00 0.0000000000000000e+00 0.0000000000000000e+00 0.0000000000000000e+00  -1.6982381400256514e+00 -8.2629604733925049e+01 0.0000000000000000e+00 -8.2629604733924907e+01 -3.1455190578205510e+01 0.0000000000000000e+00 0.0000000000000000e+00 0.0000000000000000e+00 0.0000000000000000e+00  1.2197160277922114e+02 1.9984165638309713e+02 0.0000000000000000e+00 1.9984165638309702e+02 1.3201990351398226e+02 0.0000000000000000e+00 0.0000000000000000e+00 0.0000000000000000e+00 0.0000000000000000e+00  -2.5055826733678746e+01 -2.5354100934246102e+01 0.0000000000000000e+00 -2.5354100934246098e+01 -1.0675499992059381e+01 0.0000000000000000e+00 0.0000000000000000e+00 0.0000000000000000e+00 0.0000000000000000e+00  1.2311960162558027e+00 5.7186083359923701e-01 0.0000000000000000e+00 5.7186083359923512e-01 3.0460311775673681e+00 0.0000000000000000e+00 0.0000000000000000e+00 0.0000000000000000e+00 0.0000000000000000e+00  -7.6215981198729486e+00 -8.4371767018405333e+00 0.0000000000000000e+00 -8.4371767018405261e+00 8.1751621222519710e-01 0.0000000000000000e+00 0.0000000000000000e+00 0.0000000000000000e+00 0.0000000000000000e+00  -1.7453955143309734e+01 -4.0950223596173792e+01 0.0000000000000000e+00 -4.0950223596174148e+01 1.4891054665592694e+03 0.0000000000000000e+00 0.0000000000000000e+00 0.0000000000000000e+00 0.0000000000000000e+00  -5.2193021482270688e+03 5.8918614015066114e+03 0.0000000000000000e+00 5.8918614015066050e+03 -7.8970124269351827e+03 0.0000000000000000e+00 0.0000000000000000e+00 0.0000000000000000e+00 0.0000000000000000e+00  -6.5887267361302265e+03 5.8665451345110396e+03 0.0000000000000000e+00 5.8665451345110387e+03 -2.8754484125345298e+03 0.0000000000000000e+00 0.0000000000000000e+00 0.0000000000000000e+00 0.0000000000000000e+00  -5.0442289245502625e+03 5.6968329258538279e+03 0.0000000000000000e+00 5.6968329258538306e+03 -7.1082833375591399e+03 0.0000000000000000e+00 0.0000000000000000e+00 0.0000000000000000e+00 0.0000000000000000e+00  -4.7513418621890269e+03 -5.6199948915289169e+03 0.0000000000000000e+00 -5.6199948915289106e+03 -6.1515170817578273e+03 0.0000000000000000e+00 0.0000000000000000e+00 0.0000000000000000e+00 0.0000000000000000e+00  -8.1204334906123622e+03 -6.4138967723010264e+03 0.0000000000000000e+00 -6.4138967723010301e+03 -6.9078769058563357e+03 0.0000000000000000e+00 0.0000000000000000e+00 0.0000000000000000e+00 0.0000000000000000e+00  -3.9093224618658428e+03 -4.5964252903795459e+03 0.0000000000000000e+00 -4.5964252903795414e+03 -4.4058186580238917e+03 0.0000000000000000e+00 0.0000000000000000e+00 0.0000000000000000e+00 0.0000000000000000e+00  7.5939493274257401e+01 -3.3992024105950384e+02 0.0000000000000000e+00 -3.3992024105950475e+02 7.8545178296415061e+03 0.0000000000000000e+00 0.0000000000000000e+00 0.0000000000000000e+00 0.0000000000000000e+00  -1.0107348484551734e+02 4.3925636815258081e+01 0.0000000000000000e+00 4.3925636815258102e+01 -4.2551211181334537e+01 0.0000000000000000e+00 0.0000000000000000e+00 0.0000000000000000e+00 0.0000000000000000e+00  3.8730931155489312e+00 9.7563433684850693e+00 0.0000000000000000e+00 9.7563433684850676e+00 6.2800027382248322e+02 0.0000000000000000e+00 0.0000000000000000e+00 0.0000000000000000e+00 0.0000000000000000e+00  2.1077430753810211e+00 -1.3948079953735714e+01 0.0000000000000000e+00 -1.3948079953735757e+01 6.4283834847212916e+02 0.0000000000000000e+00 0.0000000000000000e+00 0.0000000000000000e+00 0.0000000000000000e+00  5.7319726564468731e+01 -2.6296608913789292e+00 0.0000000000000000e+00 -2.6296608913788271e+00 -2.0014918166362097e+01 0.0000000000000000e+00 0.0000000000000000e+00 0.0000000000000000e+00 0.0000000000000000e+00  -1.0353069241207894e+01 -2.1176145962898505e+00 0.0000000000000000e+00 -2.1176145962898500e+00 -2.4837607568525142e+00 0.0000000000000000e+00 0.0000000000000000e+00 0.0000000000000000e+00 0.0000000000000000e+00  9.2879239812504244e-01 4.3121192376796591e-01 0.0000000000000000e+00 4.3121192376796508e-01 7.6478732183978260e-01 0.0000000000000000e+00 0.0000000000000000e+00 0.0000000000000000e+00 0.0000000000000000e+00  -1.9837001359481164e+01 1.7246689014108910e+01 0.0000000000000000e+00 1.7246689014108874e+01 -1.5695818370183980e+01 0.0000000000000000e+00 0.0000000000000000e+00 0.0000000000000000e+00 0.0000000000000000e+00  -4.0939500831033875e+01 -6.5079786811381865e+01 0.0000000000000000e+00 -6.5079786811381908e+01 1.9753468798114397e+01 0.0000000000000000e+00 0.0000000000000000e+00 0.0000000000000000e+00 0.0000000000000000e+00  4.2535669243308128e+01 6.7117422219073646e+01 0.0000000000000000e+00 6.7117422219073745e+01 -2.2699109509771148e+01 0.0000000000000000e+00 0.0000000000000000e+00 0.0000000000000000e+00 0.0000000000000000e+00  -1.3190108761476061e+01 -6.6449084979474577e+01 0.0000000000000000e+00 -6.6449084979474449e+01 -6.6822055363710774e+01 0.0000000000000000e+00 0.0000000000000000e+00 0.0000000000000000e+00 0.0000000000000000e+00  -1.6535970633751441e+02 -1.2393894638817223e+02 0.0000000000000000e+00 -1.2393894638817218e+02 -1.4643888827069080e+02 0.0000000000000000e+00 0.0000000000000000e+00 0.0000000000000000e+00 0.0000000000000000e+00  -4.5698941714109111e+01 -3.0303839995021480e+01 0.0000000000000000e+00 -3.0303839995021512e+01 -4.0396941389024752e+00 0.0000000000000000e+00 0.0000000000000000e+00 0.0000000000000000e+00 0.0000000000000000e+00  -1.4070136969162137e+00 -6.2466493293448966e-01 0.0000000000000000e+00 -6.2466493293448799e-01 1.0367907907249605e+00 0.0000000000000000e+00 0.0000000000000000e+00 0.0000000000000000e+00 0.0000000000000000e+00  -4.8452572659415445e+00 -1.9083044452031706e+00 0.0000000000000000e+00 -1.9083044452031683e+00 -3.8914477821075115e+00 0.0000000000000000e+00 0.0000000000000000e+00 0.0000000000000000e+00 0.0000000000000000e+00  -4.8906219074869205e+03 5.7133904798454869e+03 0.0000000000000000e+00 5.7133904798454696e+03 -7.0833429390482506e+03 0.0000000000000000e+00 0.0000000000000000e+00 0.0000000000000000e+00 0.0000000000000000e+00  -5.7610707667360293e+03 5.9970432203306964e+03 0.0000000000000000e+00 5.9970432203307037e+03 -3.1247162590940093e+03 0.0000000000000000e+00 0.0000000000000000e+00 0.0000000000000000e+00 0.0000000000000000e+00  -6.2071181116887001e+03 5.7166494049566163e+03 0.0000000000000000e+00 5.7166494049566099e+03 -7.5770071851976199e+03 0.0000000000000000e+00 0.0000000000000000e+00 0.0000000000000000e+00 0.0000000000000000e+00  -4.9682840496532913e+02 9.5089519268404374e+01 0.0000000000000000e+00 9.5089519268405439e+01 -1.2203208610229860e+04 0.0000000000000000e+00 0.0000000000000000e+00 0.0000000000000000e+00 0.0000000000000000e+00  -4.4943776796661523e+03 -5.5575226342732021e+03 0.0000000000000000e+00 -5.5575226342732049e+03 -5.8412623497243003e+03 0.0000000000000000e+00 0.0000000000000000e+00 0.0000000000000000e+00 0.0000000000000000e+00  -8.4488939332556365e+03 -6.5286309135035508e+03 0.0000000000000000e+00 -6.5286309135035508e+03 -6.2881559834667423e+03 0.0000000000000000e+00 0.0000000000000000e+00 0.0000000000000000e+00 0.0000000000000000e+00  -4.0303286739920645e+03 -4.5859339939765705e+03 0.0000000000000000e+00 -4.5859339939765659e+03 -5.5984639829452926e+03 0.0000000000000000e+00 0.0000000000000000e+00 0.0000000000000000e+00 0.0000000000000000e+00  -3.1305114359432654e+01 4.5230733737366817e+00 0.0000000000000000e+00 4.5230733737366116e+00 -1.7555084039166648e+01 0.0000000000000000e+00 0.0000000000000000e+00 0.0000000000000000e+00 0.0000000000000000e+00  5.2586991628502870e+00 5.4064433941887495e+00 0.0000000000000000e+00 5.4064433941887335e+00 6.3571457320768207e+02 0.0000000000000000e+00 0.0000000000000000e+00 0.0000000000000000e+00 0.0000000000000000e+00  1.5173330062967372e+02 1.2359190277894059e+02 0.0000000000000000e+00 1.2359190277894055e+02 7.5899132000110956e+02 0.0000000000000000e+00 0.0000000000000000e+00 0.0000000000000000e+00 0.0000000000000000e+00  -6.4857353556220487e+03 5.9908630000869534e+03 0.0000000000000000e+00 5.9908630000869553e+03 -5.3051422622172076e+03 0.0000000000000000e+00 0.0000000000000000e+00 0.0000000000000000e+00 0.0000000000000000e+00  -5.9155312739514557e+03 6.1382190802931100e+03 0.0000000000000000e+00 6.1382190802931027e+03 -8.7443552341541454e+03 0.0000000000000000e+00 0.0000000000000000e+00 0.0000000000000000e+00 0.0000000000000000e+00  -5.7152122312251231e+03 -5.8519658751250836e+03 0.0000000000000000e+00 -5.8519658751250836e+03 -5.7372967228493917e+03 0.0000000000000000e+00 0.0000000000000000e+00 0.0000000000000000e+00 0.0000000000000000e+00  -6.6539006582222801e+03 6.0078537222354962e+03 0.0000000000000000e+00 6.0078537222355044e+03 -3.6999840239393043e+03 0.0000000000000000e+00 0.0000000000000000e+00 0.0000000000000000e+00 0.0000000000000000e+00  -7.8898718603994548e+03 -5.8806815408356024e+03 0.0000000000000000e+00 -5.8806815408356006e+03 -7.8445916418613324e+03 0.0000000000000000e+00 0.0000000000000000e+00 0.0000000000000000e+00 0.0000000000000000e+00  -1.2450997152347677e+03 -1.2238021981438890e+03 0.0000000000000000e+00 -1.2238021981438910e+03 -9.4440461946179607e+02 0.0000000000000000e+00 0.0000000000000000e+00 0.0000000000000000e+00 0.0000000000000000e+00  -4.1778888185270407e+03 -5.9130651742978362e+03 0.0000000000000000e+00 -5.9130651742978416e+03 -3.5668740398736259e+03 0.0000000000000000e+00 0.0000000000000000e+00 0.0000000000000000e+00 0.0000000000000000e+00  -3.8831695046279543e+02 -4.4103998370025806e+02 0.0000000000000000e+00 -4.4103998370025784e+02 -9.1287450787633986e+02 0.0000000000000000e+00 0.0000000000000000e+00 0.0000000000000000e+00 0.0000000000000000e+00  3.6961791606102133e+03 3.0872952633372563e+02 0.0000000000000000e+00 3.0872952633372660e+02 1.6278467202196744e+04 0.0000000000000000e+00 0.0000000000000000e+00 0.0000000000000000e+00 0.0000000000000000e+00  -6.8851085853967743e+02 -6.1696602493356670e+02 0.0000000000000000e+00 -6.1696602493356636e+02 -3.8107263693222137e+02 0.0000000000000000e+00 0.0000000000000000e+00 0.0000000000000000e+00 0.0000000000000000e+00  -1.3485853607523404e+03 1.4298928249829864e+03 0.0000000000000000e+00 1.4298928249829839e+03 -1.1835758938704746e+03 0.0000000000000000e+00 0.0000000000000000e+00 0.0000000000000000e+00 0.0000000000000000e+00  -1.1909765621261879e+03 8.3814522149385914e+02 0.0000000000000000e+00 8.3814522149385959e+02 -6.3152597226839532e+02 0.0000000000000000e+00 0.0000000000000000e+00 0.0000000000000000e+00 0.0000000000000000e+00  4.0882394989384250e+02 -1.7604801652858086e+02 0.0000000000000000e+00 -1.7604801652857938e+02 -2.3915309502599246e+02 0.0000000000000000e+00 0.0000000000000000e+00 0.0000000000000000e+00 0.0000000000000000e+00  -4.5600256862613514e+03 -6.1687511235068469e+03 0.0000000000000000e+00 -6.1687511235068441e+03 -6.0503230602538051e+03 0.0000000000000000e+00 0.0000000000000000e+00 0.0000000000000000e+00 0.0000000000000000e+00  8.3907545174529753e+02 -1.4355830623362930e+01 0.0000000000000000e+00 -1.4355830623362589e+01 8.4271322641896768e+03 0.0000000000000000e+00 0.0000000000000000e+00 0.0000000000000000e+00 0.0000000000000000e+00  -6.3376716337545122e+03 -5.8480138936693365e+03 0.0000000000000000e+00 -5.8480138936693365e+03 -3.9515887170864826e+03 0.0000000000000000e+00 0.0000000000000000e+00 0.0000000000000000e+00 0.0000000000000000e+00  -4.4880406529712000e+03 6.1231534145935520e+03 0.0000000000000000e+00 6.1231534145935575e+03 -7.2274875423826725e+03 0.0000000000000000e+00 0.0000000000000000e+00 0.0000000000000000e+00 0.0000000000000000e+00  -6.1084215623654381e+03 -5.7429369637022910e+03 0.0000000000000000e+00 -5.7429369637022928e+03 -7.9499859809959935e+03 0.0000000000000000e+00 0.0000000000000000e+00 0.0000000000000000e+00 0.0000000000000000e+00  -5.9411975696831269e+03 5.8861405003701602e+03 0.0000000000000000e+00 5.8861405003701557e+03 -2.4002367433022059e+03 0.0000000000000000e+00 0.0000000000000000e+00 0.0000000000000000e+00 0.0000000000000000e+00  1.4996116428721882e+03 5.2035704369393197e+03 0.0000000000000000e+00 5.2035704369393179e+03 -6.5156180399106843e+03 0.0000000000000000e+00 0.0000000000000000e+00 0.0000000000000000e+00 0.0000000000000000e+00  -6.5421017736777021e+03 5.6917242422115742e+03 0.0000000000000000e+00 5.6917242422115805e+03 -8.4455776626567167e+03 0.0000000000000000e+00 0.0000000000000000e+00 0.0000000000000000e+00 0.0000000000000000e+00  -1.6575904351245419e+04 9.8703728009804672e+03 0.0000000000000000e+00 9.8703728009804672e+03 -1.9599118099523632e+04 0.0000000000000000e+00 0.0000000000000000e+00 0.0000000000000000e+00 0.0000000000000000e+00  -6.4265832363281689e+01 2.8751135382231780e+02 0.0000000000000000e+00 2.8751135382232087e+02 -1.2229715314606086e+04 0.0000000000000000e+00 0.0000000000000000e+00 0.0000000000000000e+00 0.0000000000000000e+00  -1.6334333035124980e+03 -1.5628768531084338e+03 0.0000000000000000e+00 -1.5628768531084352e+03 9.2582469876209070e+03 0.0000000000000000e+00 0.0000000000000000e+00 0.0000000000000000e+00 0.0000000000000000e+00  -3.7472361906933575e+03 -4.3764704276746770e+03 0.0000000000000000e+00 -4.3764704276746752e+03 -6.0891743720852419e+03 0.0000000000000000e+00 0.0000000000000000e+00 0.0000000000000000e+00 0.0000000000000000e+00  8.9340622894053422e+02 -8.9612024265391881e+02 0.0000000000000000e+00 -8.9612024265391835e+02 1.3269176728137070e+04 0.0000000000000000e+00 0.0000000000000000e+00 0.0000000000000000e+00 0.0000000000000000e+00  -1.2101016609298860e+04 -9.5304222496536077e+03 0.0000000000000000e+00 -9.5304222496536077e+03 -1.7304298713211516e+04 0.0000000000000000e+00 0.0000000000000000e+00 0.0000000000000000e+00 0.0000000000000000e+00  -1.1632958718713260e+03 3.0249619904874658e+02 0.0000000000000000e+00 3.0249619904874169e+02 7.0103246441273077e+03 0.0000000000000000e+00 0.0000000000000000e+00 0.0000000000000000e+00 0.0000000000000000e+00  -5.2993846234711609e+03 5.8519184509741317e+03 0.0000000000000000e+00 5.8519184509741317e+03 -5.1731346193256850e+03 0.0000000000000000e+00 0.0000000000000000e+00 0.0000000000000000e+00 0.0000000000000000e+00  -8.6271151739572142e+03 5.9619034937588740e+03 0.0000000000000000e+00 5.9619034937588749e+03 -9.0922926208543613e+03 0.0000000000000000e+00 0.0000000000000000e+00 0.0000000000000000e+00 0.0000000000000000e+00  -7.2329263996666614e+03 -6.0060610724330609e+03 0.0000000000000000e+00 -6.0060610724330618e+03 -6.3802516054281077e+03 0.0000000000000000e+00 0.0000000000000000e+00 0.0000000000000000e+00 0.0000000000000000e+00  -3.7748379996839976e+03 5.8305969789656256e+03 0.0000000000000000e+00 5.8305969789656247e+03 -2.6463381334808973e+03 0.0000000000000000e+00 0.0000000000000000e+00 0.0000000000000000e+00 0.0000000000000000e+00  -5.4856574736372522e+03 -6.0413836065509367e+03 0.0000000000000000e+00 -6.0413836065509358e+03 -7.2492176127492312e+03 0.0000000000000000e+00 0.0000000000000000e+00 0.0000000000000000e+00 0.0000000000000000e+00  -1.4939972575002760e+03 -1.3401382805803128e+03 0.0000000000000000e+00 -1.3401382805803123e+03 -1.1272407381876583e+03 0.0000000000000000e+00 0.0000000000000000e+00 0.0000000000000000e+00 0.0000000000000000e+00  -5.9446104388426429e+03 -6.1173535679315737e+03 0.0000000000000000e+00 -6.1173535679315737e+03 -3.9686211027272702e+03 0.0000000000000000e+00 0.0000000000000000e+00 0.0000000000000000e+00 0.0000000000000000e+00  1.2584905387339943e+03 9.3942851883290041e+02 0.0000000000000000e+00 9.3942851883289927e+0