<?xml version="1.0"?>
<VTKFile type="UnstructuredGrid"  version="0.1"  >
<UnstructuredGrid>
<Piece  NumberOfPoints="4855" NumberOfCells="8780">
<Points>
<DataArray  type="Float64"  NumberOfComponents="3"  format="ascii">0.9483880164242298 0.6836931311526558 0  0.9494264999197789 0.6847056440044139 0  0.9494005292759887 0.6847228078606633 0  0.9735520289385229 0.7444444444444445 0  0.9494005292759886 0.8041660810282256 0  0.94942649991978 0.8041832448844759 0  0.9483880175070514 0.8051957566534116 0  3.131175874138137e-16 0.09811450876034808 0  0.06838800723463068 0.1543033514199101 0  0.05161198249294494 0.1948042433465922 0  0.0505735000802211 0.1958167551155251 0  0.05059947072401128 0.1958339189717744 0  0.0505994707240113 0.3152771921393367 0  0.05057350008021998 0.315294355995587 0  0.05161198357913653 0.3163068688507105 0  0.06838800723463068 0.356807759691201 0  3.252606517456513e-16 0.4129966023507631 0  -1.795438797635995e-16 0.4839416311832997 0  0.07083274769489223 0.4605116403870998 0  0.07084991155114129 0.4605376110308903 0  0.07186242331670639 0.4594991286215342 0  0.1696402113702762 0.5 0  0.07186242332008326 0.5405008713818427 0  0.0708499115511413 0.5394623889691096 0  0.07083274769489219 0.5394883596129002 0  -1.925543058334256e-16 0.5160583688167003 0  1.484923295436147e-15 0.5870033976492365 0  0.06838800723463068 0.643192240308799 0  0.05161198249294541 0.6836931322354806 0  0.05057350008022109 0.6847056440044139 0  0.0505994707240113 0.6847228078606633 0  0.0505994707240113 0.8041660810282256 0  0.05057350008021999 0.804183244884476 0  0.05161198249294764 0.8051957566534106 0  0.06838800723463068 0.84569664858009 0  1.485790657174135e-15 0.9018854912396524 0  0 1 0  1 1 0  0.9999999999999987 0.9018854912396523 0  1.000000000000001 0.5870033976492375 0  1 0.5160583688167003 0  0.9291672523051078 0.5394883596129003 0  0.9291500884488585 0.5394623889691117 0  0.9281375755937461 0.5405008724680134 0  0.9281375755937372 0.4594991275319777 0  0.9291500884488586 0.4605376110308884 0  0.9291672523051077 0.4605116403870997 0  1 0.4839416311832997 0  0.9999999999999987 0.4129966023507635 0  0.948388017507054 0.31630686776452 0  0.94942649991978 0.3152943559955871 0  0.9494005292759886 0.3152771921393367 0  0.9735520289385229 0.2555555555555555 0  0.9494005292759888 0.1958339189717744 0  0.9494264999197789 0.1958167551155251 0  0.9483880164208631 0.1948042422604003 0  1.000000000000001 0.09811450876034861 0  1 0 0  0 0 0  0.1958339189717744 0.2950439151684559 0  0.1958167551155252 0.2950179445246672 0  0.3152771921393367 0.2950439151684557 0  0.1948042433481841 0.2960564269357975 0  0.3152943559955858 0.2950179445246651 0  0.1948042422604031 0.2150546830875326 0  0.3163068677645244 0.2960564269373949 0  0.1958167551155251 0.2160931665864439 0  0.4140846558147206 0.2555555555555555 0  0.1958339189717744 0.2160671959426553 0  0.3163068688489276 0.215054683089313 0  0.3152771921393367 0.2160671959426553 0  0.3152943559955858 0.2160931665864459 0  0.5405008724680257 0.3163068688507107 0  0.5572768961235196 0.356807759691201 0  0.5394623889691089 0.3152943559955871 0  0.459499128618165 0.3163068677645201 0  0.5394883596129003 0.3152771921393367 0  0.4605376110308911 0.3152943559955871 0  0.5394883596129001 0.1958339189717744 0  0.4605116403870998 0.3152771921393367 0  0.53946238896911 0.1958167551155251 0  0.4846631400496339 0.2555555555555555 0  0.5405008724680251 0.1948042422604009 0  0.4605116403870998 0.1958339189717744 0  0.5572768961235196 0.1543033514199101 0  0.46053761103089 0.1958167551155251 0  0.4594991286269881 0.1948042433554141 0  0.6847228078606633 0.2950439151684559 0  0.684705644004414 0.2950179445246672 0  0.8041660810282256 0.2950439151684557 0  0.683693131164073 0.2960564280087975 0  0.8041832448844747 0.2950179445246651 0  0.6836931322354718 0.2150546841737125 0  0.8051957566534156 0.2960564269373971 0  0.6847056440044141 0.2160931665864439 0  0.9029735447036096 0.2555555555555555 0  0.6847228078606632 0.2160671959426553 0  0.8051957577274008 0.2150546830997286 0  0.8041660810282256 0.2160671959426553 0  0.8041832448844747 0.2160931665864459 0  0.2960564280235811 0.560751313295155 0  0.3128324516790751 0.6012522041356455 0  0.2950179445246645 0.5597388004400315 0  0.2150546830875235 0.5607513132951615 0  0.2950439151684557 0.5597216365837812 0  0.2160931665864466 0.5597388004400314 0  0.2950439151684558 0.4402783634162188 0  0.2160671959426553 0.5597216365837812 0  0.2950179445246656 0.4402611995599696 0  0.2402186956051895 0.5 0  0.29605642693739 0.439248687791036 0  0.2160671959426553 0.4402783634162189 0  0.3128324516790751 0.3987477958643545 0  0.2160931665864455 0.4402611995599696 0  0.2150546830875296 0.4392486867048446 0  0.1958339189717743 0.7839328040573448 0  0.1958167551155252 0.7839068334135562 0  0.3152771921393367 0.7839328040573447 0  0.1948042422604028 0.7849453169124678 0  0.3152943559955858 0.783906833413554 0  0.1948042433465913 0.7039435730626098 0  0.3163068677645284 0.7849453158262878 0  0.1958167551155251 0.7049820554753328 0  0.4140846558147206 0.7444444444444445 0  0.1958339189717744 0.7049560848315441 0  0.3163068688486237 0.7039435719785058 0  0.3152771921393367 0.7049560848315441 0  0.3152943559955858 0.7049820554753349 0  0.4402783634162188 0.5394883596129003 0  0.4402611995599696 0.5394623889691117 0  0.5597216365837812 0.5394883596129002 0  0.4392486867048468 0.5405008724680237 0  0.5597388004400302 0.5394623889691096 0  0.4392486877998708 0.4594991286270004 0  0.5607513122089726 0.540500871381843 0  0.4402611995599696 0.4605376110308884 0  0.6585291002591651 0.5 0  0.4402783634162188 0.4605116403870998 0  0.5607513121946796 0.45949912863245 0  0.5597216365837812 0.4605116403870998 0  0.5597388004400302 0.4605376110308904 0  0.78494531690701 0.5607513132896949 0  0.8017213405679641 0.6012522041356455 0  0.7839068334135535 0.5597388004400315 0  0.7039435730626069 0.5607513122089671 0  0.7839328040573448 0.5597216365837812 0  0.7049820554753355 0.5597388004400314 0  0.7839328040573448 0.4402783634162188 0  0.7049560848315441 0.5597216365837812 0  0.7839068334135545 0.4402611995599696 0  0.7291075844940784 0.5 0  0.784945315826279 0.4392486877910359 0  0.7049560848315444 0.4402783634162188 0  0.8017213405679641 0.3987477958643545 0  0.7049820554753344 0.4402611995599696 0  0.7039435719764182 0.4392486867048443 0  0.5405008724625655 0.8051957577341393 0  0.5572768961235196 0.84569664858009 0  0.539462388969109 0.804183244884476 0  0.4594991286181648 0.8051957566534091 0  0.5394883596129003 0.8041660810282256 0  0.4605376110308911 0.804183244884476 0  0.5394883596129003 0.6847228078606633 0  0.4605116403870998 0.8041660810282256 0  0.53946238896911 0.6847056440044139 0  0.4846631400496339 0.7444444444444445 0  0.5405008713818347 0.6836931322354802 0  0.4605116403870998 0.6847228078606633 0  0.5572768961235196 0.643192240308799 0  0.46053761103089 0.6847056440044139 0  0.4594991275353449 0.6836931311526599 0  0.6847228078606633 0.7839328040573448 0  0.684705644004414 0.7839068334135562 0  0.8041660810282256 0.7839328040573447 0  0.6836931311493016 0.7849453169124578 0  0.8041832448844747 0.783906833413554 0  0.68369313223548 0.7039435730626096 0  0.805195756653417 0.7849453158262875 0  0.6847056440044141 0.7049820554753328 0  0.9029735447036096 0.7444444444444445 0  0.6847228078606633 0.7049560848315441 0  0.805195757738809 0.7039435719772094 0  0.8041660810282256 0.7049560848315441 0  0.8041832448844747 0.7049820554753349 0  0.9578164230213342 0.6948838683471341 0  0.9645772892192558 0.7062137009141434 0  0.9695236884064815 0.7184451175460498 0  0.972538971146615 0.7312896684428197 0  0.9725389711466151 0.7575992204460691 0  0.9695236884064815 0.7704437713428391 0  0.9645772892192558 0.7826751879747456 0  0.9578164230213342 0.7940050205417549 0  0.01437766570919127 0.09711967848259151 0  0.02854851642641832 0.09974531144948819 0  0.04161535472570586 0.1058251712658871 0  0.05275088139110013 0.1149743244732108 0  0.06125007411586489 0.1266135117968212 0  0.06657482449792251 0.1400058227212122 0  0.06643634307317195 0.1691277076584997 0  0.06071435336153361 0.1829418078690686 0  0.04134737123322858 0.3039103077764334 0  0.03416190609801732 0.2911362521989113 0  0.02925217947541549 0.2773267630846004 0  0.02676106927623143 0.2628837102534819 0  0.02676106927623143 0.2482274008576293 0  0.02925217947541547 0.2337843480265108 0  0.03416190609801727 0.2199748589121999 0  0.04134737123322851 0.2072008033346779 0  0.06071435387356935 0.328169304128914 0  0.06643634320569657 0.3419834039471998 0  0.06657482449792249 0.371105288389899 0  0.06125007411586481 0.3844975993142901 0  0.05275088139109994 0.3961367866379005 0  0.04161535472570563 0.4052859398452242 0  0.02854851642641818 0.411365799661623 0  0.01437766570919127 0.4139914326285196 0  0 0.4697526254167924 0  0 0.455563619650285 0  0 0.4413746138837777 0  0 0.4271856081172704 0  0.06095233986089402 0.4687284952262988 0  0.04995687430503332 0.4753797281664747 0  0.03809234373417287 0.4803165365228644 0  0.02562418374773841 0.4834284730529493 0  0.01283133446055119 0.4846459169037758 0  0.08372485599813187 0.4503967593658507 0  0.09753895276796982 0.4446747697099958 0  0.1123633055586467 0.4427231038764812 0  0.1271876590095525 0.4446747646950606 0  0.1410017577150834 0.45039674967774 0  0.1528641934757506 0.4594991149204779 0  0.161966560724962 0.471361549141524 0  0.1676885480442292 0.4851756468792086 0  0.1676885480443665 0.514824353120279 0  0.1619665607254926 0.528638450857557 0  0.1528641934768762 0.5405008850783964 0  0.1410017577169217 0.5496032503211987 0  0.1271876590121153 0.5553252353042526 0  0.1123633055618306 0.5572768961235188 0  0.09753895277155772 0.5553252302909656 0  0.08372485600180817 0.5496032406362719 0  0.0128313344605512 0.5153540830962242 0  0.0256241837477384 0.5165715269470507 0  0.03809234373417282 0.5196834634771356 0  0.04995687430503334 0.5246202718335253 0  0.06095233986089401
[...]
<PointData  Tensors="$\sigma$"> 
<DataArray  type="Float64"  Name="$\sigma$"  NumberOfComponents="9" format="ascii">-1.2029395557595785e+03 -1.2832550291713969e+03 0.0000000000000000e+00 -1.2832550291713969e+03 -1.1292773140852184e+03 0.0000000000000000e+00 0.0000000000000000e+00 0.0000000000000000e+00 0.0000000000000000e+00  -2.1981934408942620e+03 -1.8305945192266847e+03 0.0000000000000000e+00 -1.8305945192266847e+03 -1.9038531643038834e+03 0.0000000000000000e+00 0.0000000000000000e+00 0.0000000000000000e+00 0.0000000000000000e+00  -9.1704386407289212e+02 -1.3640825451428473e+03 0.0000000000000000e+00 -1.3640825451428473e+03 -1.5382223354454700e+03 0.0000000000000000e+00 0.0000000000000000e+00 0.0000000000000000e+00 0.0000000000000000e+00  8.6172503014714422e+01 2.9565139642942448e+01 0.0000000000000000e+00 2.9565139642942448e+01 -2.2262244415018940e+03 0.0000000000000000e+00 0.0000000000000000e+00 0.0000000000000000e+00 0.0000000000000000e+00  -8.3197586859470243e+02 1.0978356817142362e+03 0.0000000000000000e+00 1.0978356817142362e+03 -1.2539588180139667e+03 0.0000000000000000e+00 0.0000000000000000e+00 0.0000000000000000e+00 0.0000000000000000e+00  -1.6882592230474422e+03 1.5538990639279496e+03 0.0000000000000000e+00 1.5538990639279496e+03 -1.7445575575626792e+03 0.0000000000000000e+00 0.0000000000000000e+00 0.0000000000000000e+00 0.0000000000000000e+00  -9.2336315286417357e+02 8.9632893620119103e+02 0.0000000000000000e+00 8.9632893620119103e+02 -6.0317080956555401e+02 0.0000000000000000e+00 0.0000000000000000e+00 0.0000000000000000e+00 0.0000000000000000e+00  -1.1976530334456594e+01 -3.3097146919103628e+00 0.0000000000000000e+00 -3.3097146919103628e+00 -9.9299003658368097e+00 0.0000000000000000e+00 0.0000000000000000e+00 0.0000000000000000e+00 0.0000000000000000e+00  6.8072638094174863e+01 3.0789680854425022e+01 0.0000000000000000e+00 3.0789680854425022e+01 2.7687991011092545e+03 0.0000000000000000e+00 0.0000000000000000e+00 0.0000000000000000e+00 0.0000000000000000e+00  -8.9579289466130638e+02 8.9403957224605608e+02 0.0000000000000000e+00 8.9403957224605608e+02 -6.6355206021569427e+02 0.0000000000000000e+00 0.0000000000000000e+00 0.0000000000000000e+00 0.0000000000000000e+00  -1.6979217108852386e+03 1.4958926593980123e+03 0.0000000000000000e+00 1.4958926593980123e+03 -1.6759805124262086e+03 0.0000000000000000e+00 0.0000000000000000e+00 0.0000000000000000e+00 0.0000000000000000e+00  -7.6273860715881870e+02 1.0791175800031597e+03 0.0000000000000000e+00 1.0791175800031597e+03 -1.1870015756036823e+03 0.0000000000000000e+00 0.0000000000000000e+00 0.0000000000000000e+00 0.0000000000000000e+00  -8.9659526776587870e+02 -1.2695262814532764e+03 0.0000000000000000e+00 -1.2695262814532764e+03 -1.4365885853219261e+03 0.0000000000000000e+00 0.0000000000000000e+00 0.0000000000000000e+00 0.0000000000000000e+00  -2.1499271381101103e+03 -1.7757424303494145e+03 0.0000000000000000e+00 -1.7757424303494145e+03 -1.8307802019785986e+03 0.0000000000000000e+00 0.0000000000000000e+00 0.0000000000000000e+00 0.0000000000000000e+00  -1.1254946197215111e+03 -1.2901765361942419e+03 0.0000000000000000e+00 -1.2901765361942419e+03 -1.1548423913608615e+03 0.0000000000000000e+00 0.0000000000000000e+00 0.0000000000000000e+00 0.0000000000000000e+00  4.2784668464520912e+01 -9.8933652619864354e+00 0.0000000000000000e+00 -9.8933652619864301e+00 1.0621528322292975e+03 0.0000000000000000e+00 0.0000000000000000e+00 0.0000000000000000e+00 0.0000000000000000e+00  2.4252281197190961e-01 -2.2625248111253360e-01 0.0000000000000000e+00 -2.2625248111253360e-01 -1.4205329042936525e+00 0.0000000000000000e+00 0.0000000000000000e+00 0.0000000000000000e+00 0.0000000000000000e+00  -4.4995105744805412e-02 6.7999073648473268e-02 0.0000000000000000e+00 6.7999073648473268e-02 8.7775196089203533e-02 0.0000000000000000e+00 0.0000000000000000e+00 0.0000000000000000e+00 0.0000000000000000e+00  -1.4630747358436995e+01 1.1332897437851823e+01 0.0000000000000000e+00 1.1332897437851823e+01 -5.6998940060109593e+00 0.0000000000000000e+00 0.0000000000000000e+00 0.0000000000000000e+00 0.0000000000000000e+00  -1.6366715633873983e+00 5.2096135782634585e+00 0.0000000000000000e+00 5.2096135782634585e+00 -1.6608310474549388e+01 0.0000000000000000e+00 0.0000000000000000e+00 0.0000000000000000e+00 0.0000000000000000e+00  -3.5320871603268515e+01 3.5826576766603225e+01 0.0000000000000000e+00 3.5826576766603225e+01 -2.7948971244050334e+01 0.0000000000000000e+00 0.0000000000000000e+00 0.0000000000000000e+00 0.0000000000000000e+00  7.5183330289541095e+02 1.0479298907301104e+02 0.0000000000000000e+00 1.0479298907301104e+02 1.2112057989278817e+04 0.0000000000000000e+00 0.0000000000000000e+00 0.0000000000000000e+00 0.0000000000000000e+00  -3.4659186867567364e+01 -4.5765692258242716e+01 0.0000000000000000e+00 -4.5765692258242716e+01 -2.6350056395418477e+01 0.0000000000000000e+00 0.0000000000000000e+00 0.0000000000000000e+00 0.0000000000000000e+00  2.7375641009576315e+00 7.3667578571637327e+00 0.0000000000000000e+00 7.3667578571637335e+00 -1.3802006263214835e+01 0.0000000000000000e+00 0.0000000000000000e+00 0.0000000000000000e+00 0.0000000000000000e+00  -1.4590826717189557e+01 -1.0409685686419790e+01 0.0000000000000000e+00 -1.0409685686419792e+01 -3.1092226533298009e+00 0.0000000000000000e+00 0.0000000000000000e+00 0.0000000000000000e+00 0.0000000000000000e+00  -8.4026142686578709e-02 -1.0367486780776675e-01 0.0000000000000000e+00 -1.0367486780776690e-01 5.3445446828603575e-02 0.0000000000000000e+00 0.0000000000000000e+00 0.0000000000000000e+00 0.0000000000000000e+00  7.8284751568626854e-01 -5.0164024585829581e-01 0.0000000000000000e+00 -5.0164024585829636e-01 -4.3175726852737917e-01 0.0000000000000000e+00 0.0000000000000000e+00 0.0000000000000000e+00 0.0000000000000000e+00  3.7272844563134235e+01 -2.1069289957335311e+01 0.0000000000000000e+00 -2.1069289957335311e+01 1.0747989169611526e+03 0.0000000000000000e+00 0.0000000000000000e+00 0.0000000000000000e+00 0.0000000000000000e+00  -1.1060630642845308e+03 1.2889077117244233e+03 0.0000000000000000e+00 1.2889077117244233e+03 -1.1431658002965285e+03 0.0000000000000000e+00 0.0000000000000000e+00 0.0000000000000000e+00 0.0000000000000000e+00  -2.0903237331444034e+03 1.6470884506812795e+03 0.0000000000000000e+00 1.6470884506812795e+03 -1.5540809120378847e+03 0.0000000000000000e+00 0.0000000000000000e+00 0.0000000000000000e+00 0.0000000000000000e+00  -8.2014531913006999e+02 1.2451089004874934e+03 0.0000000000000000e+00 1.2451089004874934e+03 -1.6012689558447580e+03 0.0000000000000000e+00 0.0000000000000000e+00 0.0000000000000000e+00 0.0000000000000000e+00  -7.5796671106115491e+02 -1.0848676657931492e+03 0.0000000000000000e+00 -1.0848676657931489e+03 -1.2024018194477067e+03 0.0000000000000000e+00 0.0000000000000000e+00 0.0000000000000000e+00 0.0000000000000000e+00  -1.6751236941548539e+03 -1.4643061536870018e+03 0.0000000000000000e+00 -1.4643061536870014e+03 -1.6755872724317785e+03 0.0000000000000000e+00 0.0000000000000000e+00 0.0000000000000000e+00 0.0000000000000000e+00  -9.0282847969821444e+02 -8.9933612201103438e+02 0.0000000000000000e+00 -8.9933612201103494e+02 -6.1767572550120894e+02 0.0000000000000000e+00 0.0000000000000000e+00 0.0000000000000000e+00 0.0000000000000000e+00  1.7629155969589416e+02 -9.0177594533156224e+01 0.0000000000000000e+00 -9.0177594533156181e+01 2.5565991106036940e+03 0.0000000000000000e+00 0.0000000000000000e+00 0.0000000000000000e+00 0.0000000000000000e+00  -1.8714557548511451e+01 1.4238576860404805e+01 0.0000000000000000e+00 1.4238576860404796e+01 -1.0240787334419243e+01 0.0000000000000000e+00 0.0000000000000000e+00 0.0000000000000000e+00 0.0000000000000000e+00  -6.7557917244519872e-01 2.7265512828725718e+00 0.0000000000000000e+00 2.7265512828725718e+00 1.8800870595085479e+02 0.0000000000000000e+00 0.0000000000000000e+00 0.0000000000000000e+00 0.0000000000000000e+00  -4.3458326786846985e-01 -2.4501917517980987e+00 0.0000000000000000e+00 -2.4501917517980965e+00 1.9077928792531398e+02 0.0000000000000000e+00 0.0000000000000000e+00 0.0000000000000000e+00 0.0000000000000000e+00  -1.0601853597461725e+01 -3.0060038870760866e+00 0.0000000000000000e+00 -3.0060038870760835e+00 -1.2092805203909506e+01 0.0000000000000000e+00 0.0000000000000000e+00 0.0000000000000000e+00 0.0000000000000000e+00  2.1695537551396604e-01 -1.9843341454023095e-01 0.0000000000000000e+00 -1.9843341454023036e-01 -1.4759576494396909e+00 0.0000000000000000e+00 0.0000000000000000e+00 0.0000000000000000e+00 0.0000000000000000e+00  -7.4864856635497953e-02 7.3383001626302513e-02 0.0000000000000000e+00 7.3383001626302458e-02 5.7239808732714954e-02 0.0000000000000000e+00 0.0000000000000000e+00 0.0000000000000000e+00 0.0000000000000000e+00  -2.1224322020965314e+01 1.7058414103505829e+01 0.0000000000000000e+00 1.7058414103505836e+01 -8.5709495308854766e+00 0.0000000000000000e+00 0.0000000000000000e+00 0.0000000000000000e+00 0.0000000000000000e+00  -1.7327515725335772e+01 9.9816758701956836e+00 0.0000000000000000e+00 9.9816758701956800e+00 -1.9811756839271354e+01 0.0000000000000000e+00 0.0000000000000000e+00 0.0000000000000000e+00 0.0000000000000000e+00  -2.0070549533957966e+01 3.4473232902424648e+01 0.0000000000000000e+00 3.4473232902424648e+01 -2.9749917409301396e+01 0.0000000000000000e+00 0.0000000000000000e+00 0.0000000000000000e+00 0.0000000000000000e+00  -3.1843690874825420e+01 -4.0560863565762311e+01 0.0000000000000000e+00 -4.0560863565762325e+01 -2.7638001366960555e+01 0.0000000000000000e+00 0.0000000000000000e+00 0.0000000000000000e+00 0.0000000000000000e+00  -8.1389178717013468e+00 -9.3731884960783169e+00 0.0000000000000000e+00 -9.3731884960783098e+00 -2.4068659501083012e+01 0.0000000000000000e+00 0.0000000000000000e+00 0.0000000000000000e+00 0.0000000000000000e+00  -1.6927491617136397e+01 -7.9025642041113846e+00 0.0000000000000000e+00 -7.9025642041113926e+00 -2.4705959190468336e+00 0.0000000000000000e+00 0.0000000000000000e+00 0.0000000000000000e+00 0.0000000000000000e+00  2.7026567878215859e-02 -6.9742521733594909e-02 0.0000000000000000e+00 -6.9742521733595020e-02 8.2362070957661723e-02 0.0000000000000000e+00 0.0000000000000000e+00 0.0000000000000000e+00 0.0000000000000000e+00  -8.5618721868158121e-01 -3.3649428961612704e-01 0.0000000000000000e+00 -3.3649428961612704e-01 -4.1265307855587741e-01 0.0000000000000000e+00 0.0000000000000000e+00 0.0000000000000000e+00 0.0000000000000000e+00  -1.1662112281191792e+03 1.2179668595736096e+03 0.0000000000000000e+00 1.2179668595736096e+03 -1.0002077300992360e+03 0.0000000000000000e+00 0.0000000000000000e+00 0.0000000000000000e+00 0.0000000000000000e+00  -2.0685907828406830e+03 1.7617060646977836e+03 0.0000000000000000e+00 1.7617060646977836e+03 -1.8365565043923607e+03 0.0000000000000000e+00 0.0000000000000000e+00 0.0000000000000000e+00 0.0000000000000000e+00  -9.1484091530730120e+02 1.3237609439687255e+03 0.0000000000000000e+00 1.3237609439687255e+03 -1.5580812416479491e+03 0.0000000000000000e+00 0.0000000000000000e+00 0.0000000000000000e+00 0.0000000000000000e+00  8.1297735167325456e+01 2.3658031864176905e+01 0.0000000000000000e+00 2.3658031864176905e+01 -2.2261965522231762e+03 0.0000000000000000e+00 0.0000000000000000e+00 0.0000000000000000e+00 0.0000000000000000e+00  -7.5971390895742013e+02 -1.1301290488965737e+03 0.0000000000000000e+00 -1.1301290488965737e+03 -1.2360920351684872e+03 0.0000000000000000e+00 0.0000000000000000e+00 0.0000000000000000e+00 0.0000000000000000e+00  -1.8737021390975365e+03 -1.6542764070583050e+03 0.0000000000000000e+00 -1.6542764070583050e+03 -1.7821876145778349e+03 0.0000000000000000e+00 0.0000000000000000e+00 0.0000000000000000e+00 0.0000000000000000e+00  -9.0909519566879067e+02 -8.7669826524617270e+02 0.0000000000000000e+00 -8.7669826524617270e+02 -7.1831230709952820e+02 0.0000000000000000e+00 0.0000000000000000e+00 0.0000000000000000e+00 0.0000000000000000e+00  -2.0582488238476326e+01 1.1613375305908066e+01 0.0000000000000000e+00 1.1613375305908074e+01 -1.9711211255179624e+00 0.0000000000000000e+00 0.0000000000000000e+00 0.0000000000000000e+00 0.0000000000000000e+00  -1.0624656840522710e+00 2.1133857608287565e+00 0.0000000000000000e+00 2.1133857608287574e+00 1.9143658499704460e+02 0.0000000000000000e+00 0.0000000000000000e+00 0.0000000000000000e+00 0.0000000000000000e+00  5.8536296524524211e+01 4.4575233704510055e+01 0.0000000000000000e+00 4.4575233704510055e+01 2.3088008424119533e+02 0.0000000000000000e+00 0.0000000000000000e+00 0.0000000000000000e+00 0.0000000000000000e+00  -2.8977183189459502e+03 2.3342075757438179e+03 0.0000000000000000e+00 2.3342075757438179e+03 -1.6578167953667023e+03 0.0000000000000000e+00 0.0000000000000000e+00 0.0000000000000000e+00 0.0000000000000000e+00  -2.0009575402516173e+03 2.7392421493559223e+03 0.0000000000000000e+00 2.7392421493559223e+03 -3.8143676781412892e+03 0.0000000000000000e+00 0.0000000000000000e+00 0.0000000000000000e+00 0.0000000000000000e+00  -2.1362568737034212e+03 -1.7481824428840707e+03 0.0000000000000000e+00 -1.7481824428840707e+03 -1.2022612823785012e+03 0.0000000000000000e+00 0.0000000000000000e+00 0.0000000000000000e+00 0.0000000000000000e+00  -3.5112670817365947e+03 3.0670604040747721e+03 0.0000000000000000e+00 3.0670604040747721e+03 -2.3026558647540523e+03 0.0000000000000000e+00 0.0000000000000000e+00 0.0000000000000000e+00 0.0000000000000000e+00  -1.5553615390590726e+03 -1.8921250666871460e+03 0.0000000000000000e+00 -1.8921250666871460e+03 -2.6789951416539284e+03 0.0000000000000000e+00 0.0000000000000000e+00 0.0000000000000000e+00 0.0000000000000000e+00  -4.7692851319554859e+02 -4.0926030391185219e+02 0.0000000000000000e+00 -4.0926030391185219e+02 -3.0702782230165604e+02 0.0000000000000000e+00 0.0000000000000000e+00 0.0000000000000000e+00 0.0000000000000000e+00  -2.3296310930106506e+03 -2.2142149825070505e+03 0.0000000000000000e+00 -2.2142149825070505e+03 -1.7062097696551223e+03 0.0000000000000000e+00 0.0000000000000000e+00 0.0000000000000000e+00 0.0000000000000000e+00  -1.9194917909554940e+02 -2.2928372560136415e+02 0.0000000000000000e+00 -2.2928372560136415e+02 -3.4355649231350685e+02 0.0000000000000000e+00 0.0000000000000000e+00 0.0000000000000000e+00 0.0000000000000000e+00  7.8741638987710417e+02 -7.4943024868440568e+02 0.0000000000000000e+00 -7.4943024868440580e+02 9.7074358379480327e+03 0.0000000000000000e+00 0.0000000000000000e+00 0.0000000000000000e+00 0.0000000000000000e+00  -2.0899274356964187e+02 -2.2439763655219841e+02 0.0000000000000000e+00 -2.2439763655219841e+02 -1.7422938124360451e+02 0.0000000000000000e+00 0.0000000000000000e+00 0.0000000000000000e+00 0.0000000000000000e+00  -6.4785966917804694e+02 5.2200594408986206e+02 0.0000000000000000e+00 5.2200594408986206e+02 -3.2770511536259335e+02 0.0000000000000000e+00 0.0000000000000000e+00 0.0000000000000000e+00 0.0000000000000000e+00  -4.1505319335280700e+02 3.0716432828195360e+02 0.0000000000000000e+00 3.0716432828195360e+02 -2.1880531316151763e+02 0.0000000000000000e+00 0.0000000000000000e+00 0.0000000000000000e+00 0.0000000000000000e+00  9.8749194477477985e+01 9.5297710893583229e+01 0.0000000000000000e+00 9.5297710893583258e+01 -3.2479782564556035e+02 0.0000000000000000e+00 0.0000000000000000e+00 0.0000000000000000e+00 0.0000000000000000e+00  -1.7335877778441788e+03 -2.0001295351301324e+03 0.0000000000000000e+00 -2.0001295351301324e+03 -1.7794666021788075e+03 0.0000000000000000e+00 0.0000000000000000e+00 0.0000000000000000e+00 0.0000000000000000e+00  1.3723324615382964e+02 -2.6506459680177852e+02 0.0000000000000000e+00 -2.6506459680177852e+02 1.5394657589768024e+03 0.0000000000000000e+00 0.0000000000000000e+00 0.0000000000000000e+00 0.0000000000000000e+00  -2.9232043341733433e+03 -2.2887838699147878e+03 0.0000000000000000e+00 -2.2887838699147878e+03 -2.3004206827452490e+03 0.0000000000000000e+00 0.0000000000000000e+00 0.0000000000000000e+00 0.0000000000000000e+00  -1.7162616317564384e+03 2.0493881863915421e+03 0.0000000000000000e+00 2.0493881863915421e+03 -1.8758842488933212e+03 0.0000000000000000e+00 0.0000000000000000e+00 0.0000000000000000e+00 0.0000000000000000e+00  -1.2281271512980049e+03 -1.8465201871533043e+03 0.0000000000000000e+00 -1.8465201871533043e+03 -2.1821463517444317e+03 0.0000000000000000e+00 0.0000000000000000e+00 0.0000000000000000e+00 0.0000000000000000e+00  -2.8710531601153866e+03 2.2738059294620061e+03 0.0000000000000000e+00 2.2738059294620061e+03 -2.1497121423927897e+03 0.0000000000000000e+00 0.0000000000000000e+00 0.0000000000000000e+00 0.0000000000000000e+00  8.5733709705779368e+00 5.9630701218483253e+01 0.0000000000000000e+00 5.9630701218483253e+01 2.3177439100678548e+01 0.0000000000000000e+00 0.0000000000000000e+00 0.0000000000000000e+00 0.0000000000000000e+00  -1.3465692568088566e+03 1.8512623140707080e+03 0.0000000000000000e+00 1.8512623140707080e+03 -2.3026012956419668e+03 0.0000000000000000e+00 0.0000000000000000e+00 0.0000000000000000e+00 0.0000000000000000e+00  -4.2345941537630881e+02 9.0649966229983613e+02 0.0000000000000000e+00 9.0649966229983625e+02 -1.4923519159886109e+03 0.0000000000000000e+00 0.0000000000000000e+00 0.0000000000000000e+00 0.0000000000000000e+00  1.2192228598515494e+02 -3.6734477124811306e+01 0.0000000000000000e+00 -3.6734477124811363e+01 -2.2608628434740176e+03 0.0000000000000000e+00 0.0000000000000000e+00 0.0000000000000000e+00 0.0000000000000000e+00  4.7145821954256837e+02 -1.1153370208831261e+03 0.0000000000000000e+00 -1.1153370208831261e+03 1.6804142890971423e+03 0.0000000000000000e+00 0.0000000000000000e+00 0.0000000000000000e+00 0.0000000000000000e+00  -9.3681682987280979e+01 3.6886248479785962e+01 0.0000000000000000e+00 3.6886248479785962e+01 3.5274772190143489e+02 0.0000000000000000e+00 0.0000000000000000e+00 0.0000000000000000e+00 0.0000000000000000e+00  1.9342820288903664e+02 -1.5012223761328653e+02 0.0000000000000000e+00 -1.5012223761328653e+02 8.3465600384787303e+03 0.0000000000000000e+00 0.0000000000000000e+00 0.0000000000000000e+00 0.0000000000000000e+00  -2.7554301701617726e+02 -9.3957595567187411e+02 0.0000000000000000e+00 -9.3957595567187411e+02 -1.8200982716070430e+03 0.0000000000000000e+00 0.0000000000000000e+00 0.0000000000000000e+00 0.0000000000000000e+00  3.5535877950728724e+02 1.0134278632466373e+03 0.0000000000000000e+00 1.0134278632466373e+03 1.6934765852528287e+03 0.0000000000000000e+00 0.0000000000000000e+00 0.0000000000000000e+00 0.0000000000000000e+00  -2.1287709876918161e+03 1.7391795037616880e+03 0.0000000000000000e+00 1.7391795037616880e+03 -1.2494066312953312e+03 0.0000000000000000e+00 0.0000000000000000e+00 0.0000000000000000e+00 0.0000000000000000e+00  -1.6795381456681521e+03 2.1046870369785393e+03 0.0000000000000000e+00 2.1046870369785393e+03 -2.8221405901485073e+03 0.0000000000000000e+00 0.0000000000000000e+00 0.0000000000000000e+00 0.0000000000000000e+00  -2.9489601462285227e+03 -2.3329795766848315e+03 0.0000000000000000e+00 -2.3329795766848315e+03 -1.5416253956433497e+03 0.0000000000000000e+00 0.0000000000000000e+00 0.0000000000000000e+00 0.0000000000000000e+00  -2.3771797676203460e+03 2.1595336221881871e+03 0.0000000000000000e+00 2.1595336221881871e+03 -1.6762918143275733e+03 0.0000000000000000e+00 0.0000000000000000e+00 0.0000000000000000e+00 0.0000000000000000e+00  -1.8960943284502175e+03 -2.4653817926263077e+03 0.0000000000000000e+00 -2.4653817926263077e+03 -3.5968865148300060e+03 0.0000000000000000e+00 0.0000000000000000e+00 0.0000000000000000e+00 0.0000000000000000e+00  -7.2187225550316157e+02 -5.0673860070079581e+02 0.0000000000000000e+00 -5.0673860070079581e+02 -3.3756111647733417e+02 0.0000000000000000e+00 0.0000000000000000e+00 0.0000000000000000e+00 0.0000000000000000e+00  -3.3172527075626176e+03 -3.1217889544950212e+03 0.0000000000000000e+00 -3.1217889544950212e+03 -2.4061186390419207e+03 0.0000000000000000e+00 0.0000000000000000e+00 0.0000000000000000e+00 0.0000000000000000e+00  5.9905076480273046e+01 -1.8956827580800774e+02 0.0000000000000000e+00 -1.8956827580800763