<?xml version="1.0"?>
<VTKFile type="UnstructuredGrid"  version="0.1"  >
<UnstructuredGrid>
<Piece  NumberOfPoints="4855" NumberOfCells="8780">
<Points>
<DataArray  type="Float64"  NumberOfComponents="3"  format="ascii">0.9483880164242298 0.6836931311526558 0  0.9494264999197789 0.6847056440044139 0  0.9494005292759887 0.6847228078606633 0  0.9735520289385229 0.7444444444444445 0  0.9494005292759886 0.8041660810282256 0  0.94942649991978 0.8041832448844759 0  0.9483880175070514 0.8051957566534116 0  3.131175874138137e-16 0.09811450876034808 0  0.06838800723463068 0.1543033514199101 0  0.05161198249294494 0.1948042433465922 0  0.0505735000802211 0.1958167551155251 0  0.05059947072401128 0.1958339189717744 0  0.0505994707240113 0.3152771921393367 0  0.05057350008021998 0.315294355995587 0  0.05161198357913653 0.3163068688507105 0  0.06838800723463068 0.356807759691201 0  3.252606517456513e-16 0.4129966023507631 0  -1.795438797635995e-16 0.4839416311832997 0  0.07083274769489223 0.4605116403870998 0  0.07084991155114129 0.4605376110308903 0  0.07186242331670639 0.4594991286215342 0  0.1696402113702762 0.5 0  0.07186242332008326 0.5405008713818427 0  0.0708499115511413 0.5394623889691096 0  0.07083274769489219 0.5394883596129002 0  -1.925543058334256e-16 0.5160583688167003 0  1.484923295436147e-15 0.5870033976492365 0  0.06838800723463068 0.643192240308799 0  0.05161198249294541 0.6836931322354806 0  0.05057350008022109 0.6847056440044139 0  0.0505994707240113 0.6847228078606633 0  0.0505994707240113 0.8041660810282256 0  0.05057350008021999 0.804183244884476 0  0.05161198249294764 0.8051957566534106 0  0.06838800723463068 0.84569664858009 0  1.485790657174135e-15 0.9018854912396524 0  0 1 0  1 1 0  0.9999999999999987 0.9018854912396523 0  1.000000000000001 0.5870033976492375 0  1 0.5160583688167003 0  0.9291672523051078 0.5394883596129003 0  0.9291500884488585 0.5394623889691117 0  0.9281375755937461 0.5405008724680134 0  0.9281375755937372 0.4594991275319777 0  0.9291500884488586 0.4605376110308884 0  0.9291672523051077 0.4605116403870997 0  1 0.4839416311832997 0  0.9999999999999987 0.4129966023507635 0  0.948388017507054 0.31630686776452 0  0.94942649991978 0.3152943559955871 0  0.9494005292759886 0.3152771921393367 0  0.9735520289385229 0.2555555555555555 0  0.9494005292759888 0.1958339189717744 0  0.9494264999197789 0.1958167551155251 0  0.9483880164208631 0.1948042422604003 0  1.000000000000001 0.09811450876034861 0  1 0 0  0 0 0  0.1958339189717744 0.2950439151684559 0  0.1958167551155252 0.2950179445246672 0  0.3152771921393367 0.2950439151684557 0  0.1948042433481841 0.2960564269357975 0  0.3152943559955858 0.2950179445246651 0  0.1948042422604031 0.2150546830875326 0  0.3163068677645244 0.2960564269373949 0  0.1958167551155251 0.2160931665864439 0  0.4140846558147206 0.2555555555555555 0  0.1958339189717744 0.2160671959426553 0  0.3163068688489276 0.215054683089313 0  0.3152771921393367 0.2160671959426553 0  0.3152943559955858 0.2160931665864459 0  0.5405008724680257 0.3163068688507107 0  0.5572768961235196 0.356807759691201 0  0.5394623889691089 0.3152943559955871 0  0.459499128618165 0.3163068677645201 0  0.5394883596129003 0.3152771921393367 0  0.4605376110308911 0.3152943559955871 0  0.5394883596129001 0.1958339189717744 0  0.4605116403870998 0.3152771921393367 0  0.53946238896911 0.1958167551155251 0  0.4846631400496339 0.2555555555555555 0  0.5405008724680251 0.1948042422604009 0  0.4605116403870998 0.1958339189717744 0  0.5572768961235196 0.1543033514199101 0  0.46053761103089 0.1958167551155251 0  0.4594991286269881 0.1948042433554141 0  0.6847228078606633 0.2950439151684559 0  0.684705644004414 0.2950179445246672 0  0.8041660810282256 0.2950439151684557 0  0.683693131164073 0.2960564280087975 0  0.8041832448844747 0.2950179445246651 0  0.6836931322354718 0.2150546841737125 0  0.8051957566534156 0.2960564269373971 0  0.6847056440044141 0.2160931665864439 0  0.9029735447036096 0.2555555555555555 0  0.6847228078606632 0.2160671959426553 0  0.8051957577274008 0.2150546830997286 0  0.8041660810282256 0.2160671959426553 0  0.8041832448844747 0.2160931665864459 0  0.2960564280235811 0.560751313295155 0  0.3128324516790751 0.6012522041356455 0  0.2950179445246645 0.5597388004400315 0  0.2150546830875235 0.5607513132951615 0  0.2950439151684557 0.5597216365837812 0  0.2160931665864466 0.5597388004400314 0  0.2950439151684558 0.4402783634162188 0  0.2160671959426553 0.5597216365837812 0  0.2950179445246656 0.4402611995599696 0  0.2402186956051895 0.5 0  0.29605642693739 0.439248687791036 0  0.2160671959426553 0.4402783634162189 0  0.3128324516790751 0.3987477958643545 0  0.2160931665864455 0.4402611995599696 0  0.2150546830875296 0.4392486867048446 0  0.1958339189717743 0.7839328040573448 0  0.1958167551155252 0.7839068334135562 0  0.3152771921393367 0.7839328040573447 0  0.1948042422604028 0.7849453169124678 0  0.3152943559955858 0.783906833413554 0  0.1948042433465913 0.7039435730626098 0  0.3163068677645284 0.7849453158262878 0  0.1958167551155251 0.7049820554753328 0  0.4140846558147206 0.7444444444444445 0  0.1958339189717744 0.7049560848315441 0  0.3163068688486237 0.7039435719785058 0  0.3152771921393367 0.7049560848315441 0  0.3152943559955858 0.7049820554753349 0  0.4402783634162188 0.5394883596129003 0  0.4402611995599696 0.5394623889691117 0  0.5597216365837812 0.5394883596129002 0  0.4392486867048468 0.5405008724680237 0  0.5597388004400302 0.5394623889691096 0  0.4392486877998708 0.4594991286270004 0  0.5607513122089726 0.540500871381843 0  0.4402611995599696 0.4605376110308884 0  0.6585291002591651 0.5 0  0.4402783634162188 0.4605116403870998 0  0.5607513121946796 0.45949912863245 0  0.5597216365837812 0.4605116403870998 0  0.5597388004400302 0.4605376110308904 0  0.78494531690701 0.5607513132896949 0  0.8017213405679641 0.6012522041356455 0  0.7839068334135535 0.5597388004400315 0  0.7039435730626069 0.5607513122089671 0  0.7839328040573448 0.5597216365837812 0  0.7049820554753355 0.5597388004400314 0  0.7839328040573448 0.4402783634162188 0  0.7049560848315441 0.5597216365837812 0  0.7839068334135545 0.4402611995599696 0  0.7291075844940784 0.5 0  0.784945315826279 0.4392486877910359 0  0.7049560848315444 0.4402783634162188 0  0.8017213405679641 0.3987477958643545 0  0.7049820554753344 0.4402611995599696 0  0.7039435719764182 0.4392486867048443 0  0.5405008724625655 0.8051957577341393 0  0.5572768961235196 0.84569664858009 0  0.539462388969109 0.804183244884476 0  0.4594991286181648 0.8051957566534091 0  0.5394883596129003 0.8041660810282256 0  0.4605376110308911 0.804183244884476 0  0.5394883596129003 0.6847228078606633 0  0.4605116403870998 0.8041660810282256 0  0.53946238896911 0.6847056440044139 0  0.4846631400496339 0.7444444444444445 0  0.5405008713818347 0.6836931322354802 0  0.4605116403870998 0.6847228078606633 0  0.5572768961235196 0.643192240308799 0  0.46053761103089 0.6847056440044139 0  0.4594991275353449 0.6836931311526599 0  0.6847228078606633 0.7839328040573448 0  0.684705644004414 0.7839068334135562 0  0.8041660810282256 0.7839328040573447 0  0.6836931311493016 0.7849453169124578 0  0.8041832448844747 0.783906833413554 0  0.68369313223548 0.7039435730626096 0  0.805195756653417 0.7849453158262875 0  0.6847056440044141 0.7049820554753328 0  0.9029735447036096 0.7444444444444445 0  0.6847228078606633 0.7049560848315441 0  0.805195757738809 0.7039435719772094 0  0.8041660810282256 0.7049560848315441 0  0.8041832448844747 0.7049820554753349 0  0.9578164230213342 0.6948838683471341 0  0.9645772892192558 0.7062137009141434 0  0.9695236884064815 0.7184451175460498 0  0.972538971146615 0.7312896684428197 0  0.9725389711466151 0.7575992204460691 0  0.9695236884064815 0.7704437713428391 0  0.9645772892192558 0.7826751879747456 0  0.9578164230213342 0.7940050205417549 0  0.01437766570919127 0.09711967848259151 0  0.02854851642641832 0.09974531144948819 0  0.04161535472570586 0.1058251712658871 0  0.05275088139110013 0.1149743244732108 0  0.06125007411586489 0.1266135117968212 0  0.06657482449792251 0.1400058227212122 0  0.06643634307317195 0.1691277076584997 0  0.06071435336153361 0.1829418078690686 0  0.04134737123322858 0.3039103077764334 0  0.03416190609801732 0.2911362521989113 0  0.02925217947541549 0.2773267630846004 0  0.02676106927623143 0.2628837102534819 0  0.02676106927623143 0.2482274008576293 0  0.02925217947541547 0.2337843480265108 0  0.03416190609801727 0.2199748589121999 0  0.04134737123322851 0.2072008033346779 0  0.06071435387356935 0.328169304128914 0  0.06643634320569657 0.3419834039471998 0  0.06657482449792249 0.371105288389899 0  0.06125007411586481 0.3844975993142901 0  0.05275088139109994 0.3961367866379005 0  0.04161535472570563 0.4052859398452242 0  0.02854851642641818 0.411365799661623 0  0.01437766570919127 0.4139914326285196 0  0 0.4697526254167924 0  0 0.455563619650285 0  0 0.4413746138837777 0  0 0.4271856081172704 0  0.06095233986089402 0.4687284952262988 0  0.04995687430503332 0.4753797281664747 0  0.03809234373417287 0.4803165365228644 0  0.02562418374773841 0.4834284730529493 0  0.01283133446055119 0.4846459169037758 0  0.08372485599813187 0.4503967593658507 0  0.09753895276796982 0.4446747697099958 0  0.1123633055586467 0.4427231038764812 0  0.1271876590095525 0.4446747646950606 0  0.1410017577150834 0.45039674967774 0  0.1528641934757506 0.4594991149204779 0  0.161966560724962 0.471361549141524 0  0.1676885480442292 0.4851756468792086 0  0.1676885480443665 0.514824353120279 0  0.1619665607254926 0.528638450857557 0  0.1528641934768762 0.5405008850783964 0  0.1410017577169217 0.5496032503211987 0  0.1271876590121153 0.5553252353042526 0  0.1123633055618306 0.5572768961235188 0  0.09753895277155772 0.5553252302909656 0  0.08372485600180817 0.5496032406362719 0  0.0128313344605512 0.5153540830962242 0  0.0256241837477384 0.5165715269470507 0  0.03809234373417282 0.5196834634771356 0  0.04995687430503334 0.5246202718335253 0  0.06095233986089401
[...]
<PointData  Tensors="$\sigma$"> 
<DataArray  type="Float64"  Name="$\sigma$"  NumberOfComponents="9" format="ascii">-5.2010320215166448e+03 -5.7629428670987381e+03 0.0000000000000000e+00 -5.7629428670987336e+03 -7.1322275538851418e+03 0.0000000000000000e+00 0.0000000000000000e+00 0.0000000000000000e+00 0.0000000000000000e+00  -6.3743110214841090e+03 -6.0189245816049124e+03 0.0000000000000000e+00 -6.0189245816049161e+03 -4.0987155265398205e+03 0.0000000000000000e+00 0.0000000000000000e+00 0.0000000000000000e+00 0.0000000000000000e+00  -5.3283024557356512e+03 -5.7595898257673780e+03 0.0000000000000000e+00 -5.7595898257673807e+03 -6.5767903742956250e+03 0.0000000000000000e+00 0.0000000000000000e+00 0.0000000000000000e+00 0.0000000000000000e+00  -3.4427044160015288e+02 -4.0373970828909995e+02 0.0000000000000000e+00 -4.0373970828910029e+02 -1.1826560670514153e+04 0.0000000000000000e+00 0.0000000000000000e+00 0.0000000000000000e+00 0.0000000000000000e+00  -4.6838303935857275e+03 5.7216771686383699e+03 0.0000000000000000e+00 5.7216771686383845e+03 -6.3342139801247167e+03 0.0000000000000000e+00 0.0000000000000000e+00 0.0000000000000000e+00 0.0000000000000000e+00  -8.5819126358030262e+03 6.2789362499392864e+03 0.0000000000000000e+00 6.2789362499392819e+03 -6.7702608529666850e+03 0.0000000000000000e+00 0.0000000000000000e+00 0.0000000000000000e+00 0.0000000000000000e+00  -3.7264196759670408e+03 4.9142997564196785e+03 0.0000000000000000e+00 4.9142997564196776e+03 -4.6254027903021661e+03 0.0000000000000000e+00 0.0000000000000000e+00 0.0000000000000000e+00 0.0000000000000000e+00  6.4559157628959568e+01 3.1355569364760068e+00 0.0000000000000000e+00 3.1355569364760472e+00 2.6277235521605000e+01 0.0000000000000000e+00 0.0000000000000000e+00 0.0000000000000000e+00 0.0000000000000000e+00  -1.2414343112960362e+01 7.6627406807285581e+01 0.0000000000000000e+00 7.6627406807285070e+01 8.2589144782012136e+03 0.0000000000000000e+00 0.0000000000000000e+00 0.0000000000000000e+00 0.0000000000000000e+00  -3.9739478251741525e+03 4.4719739320566259e+03 0.0000000000000000e+00 4.4719739320566287e+03 -5.6064820769709777e+03 0.0000000000000000e+00 0.0000000000000000e+00 0.0000000000000000e+00 0.0000000000000000e+00  -8.1050327056183687e+03 6.5298408059157200e+03 0.0000000000000000e+00 6.5298408059157227e+03 -5.9095315982481216e+03 0.0000000000000000e+00 0.0000000000000000e+00 0.0000000000000000e+00 0.0000000000000000e+00  -4.6606987041918592e+03 5.4963505417376537e+03 0.0000000000000000e+00 5.4963505417376546e+03 -5.9745876721007935e+03 0.0000000000000000e+00 0.0000000000000000e+00 0.0000000000000000e+00 0.0000000000000000e+00  -4.9450199643755759e+03 -5.7855253910468773e+03 0.0000000000000000e+00 -5.7855253910468773e+03 -6.7202918003691566e+03 0.0000000000000000e+00 0.0000000000000000e+00 0.0000000000000000e+00 0.0000000000000000e+00  -7.9534195496414704e+03 -5.8715648536967401e+03 0.0000000000000000e+00 -5.8715648536967547e+03 -4.2715900960040026e+03 0.0000000000000000e+00 0.0000000000000000e+00 0.0000000000000000e+00 0.0000000000000000e+00  -3.9443172989060008e+03 -5.9232647393385614e+03 0.0000000000000000e+00 -5.9232647393385496e+03 -6.9776947020339039e+03 0.0000000000000000e+00 0.0000000000000000e+00 0.0000000000000000e+00 0.0000000000000000e+00  3.1197918050677470e+02 -2.4420052895438641e+01 0.0000000000000000e+00 -2.4420052895438300e+01 1.2883697647653682e+03 0.0000000000000000e+00 0.0000000000000000e+00 0.0000000000000000e+00 0.0000000000000000e+00  2.0494357286527700e+00 1.8274652092867159e+00 0.0000000000000000e+00 1.8274652092867159e+00 -7.9219289413502505e+00 0.0000000000000000e+00 0.0000000000000000e+00 0.0000000000000000e+00 0.0000000000000000e+00  -1.9747014196885688e+00 7.0901247234270803e-01 0.0000000000000000e+00 7.0901247234270826e-01 3.2702430551699244e+00 0.0000000000000000e+00 0.0000000000000000e+00 0.0000000000000000e+00 0.0000000000000000e+00  -3.6797035012339379e+01 3.0197340453072250e+01 0.0000000000000000e+00 3.0197340453072265e+01 -1.6338829596676355e+01 0.0000000000000000e+00 0.0000000000000000e+00 0.0000000000000000e+00 0.0000000000000000e+00  -1.9184195157483575e+02 9.6704654550646680e+01 0.0000000000000000e+00 9.6704654550646637e+01 -1.2213665957135296e+02 0.0000000000000000e+00 0.0000000000000000e+00 0.0000000000000000e+00 0.0000000000000000e+00  5.1861074681541716e+01 4.9224442127740410e+01 0.0000000000000000e+00 4.9224442127740410e+01 -3.3802416929395633e+01 0.0000000000000000e+00 0.0000000000000000e+00 0.0000000000000000e+00 0.0000000000000000e+00  6.0654535693389753e+03 -2.6098010332262209e+02 0.0000000000000000e+00 -2.6098010332262152e+02 1.8955029075655821e+04 0.0000000000000000e+00 0.0000000000000000e+00 0.0000000000000000e+00 0.0000000000000000e+00  2.1445558908318634e+00 -8.0868127738204890e+01 0.0000000000000000e+00 -8.0868127738204706e+01 -3.0262950508221930e+01 0.0000000000000000e+00 0.0000000000000000e+00 0.0000000000000000e+00 0.0000000000000000e+00  1.2149486828610488e+02 2.0165797240759142e+02 0.0000000000000000e+00 2.0165797240759125e+02 1.3445706812050204e+02 0.0000000000000000e+00 0.0000000000000000e+00 0.0000000000000000e+00 0.0000000000000000e+00  -2.5553331540367139e+01 -2.6033075117254580e+01 0.0000000000000000e+00 -2.6033075117254558e+01 -1.1522144678584011e+01 0.0000000000000000e+00 0.0000000000000000e+00 0.0000000000000000e+00 0.0000000000000000e+00  1.1187068938468316e+00 5.9707995967956540e-01 0.0000000000000000e+00 5.9707995967956307e-01 3.0874129339863887e+00 0.0000000000000000e+00 0.0000000000000000e+00 0.0000000000000000e+00 0.0000000000000000e+00  -8.0145566954997172e+00 -8.5126577105906698e+00 0.0000000000000000e+00 -8.5126577105906645e+00 6.5291041189524313e-01 0.0000000000000000e+00 0.0000000000000000e+00 0.0000000000000000e+00 0.0000000000000000e+00  -1.9341033831828682e+01 -4.9034516169303721e+01 0.0000000000000000e+00 -4.9034516169304077e+01 1.4372850704736525e+03 0.0000000000000000e+00 0.0000000000000000e+00 0.0000000000000000e+00 0.0000000000000000e+00  -5.1613831379713556e+03 5.7876328767819032e+03 0.0000000000000000e+00 5.7876328767818995e+03 -7.8304830143104373e+03 0.0000000000000000e+00 0.0000000000000000e+00 0.0000000000000000e+00 0.0000000000000000e+00  -6.6885129297862049e+03 5.9375558522552938e+03 0.0000000000000000e+00 5.9375558522552883e+03 -3.0784272066566946e+03 0.0000000000000000e+00 0.0000000000000000e+00 0.0000000000000000e+00 0.0000000000000000e+00  -5.0153765338065705e+03 5.7051581489223790e+03 0.0000000000000000e+00 5.7051581489223827e+03 -6.9641494778295692e+03 0.0000000000000000e+00 0.0000000000000000e+00 0.0000000000000000e+00 0.0000000000000000e+00  -4.8748879717976024e+03 -5.7394870828025723e+03 0.0000000000000000e+00 -5.7394870828025678e+03 -6.2975263067345804e+03 0.0000000000000000e+00 0.0000000000000000e+00 0.0000000000000000e+00 0.0000000000000000e+00  -8.0219025703796624e+03 -6.3277415827609420e+03 0.0000000000000000e+00 -6.3277415827609448e+03 -6.7284814814415658e+03 0.0000000000000000e+00 0.0000000000000000e+00 0.0000000000000000e+00 0.0000000000000000e+00  -3.9323226970769056e+03 -4.6757359604151043e+03 0.0000000000000000e+00 -4.6757359604150997e+03 -4.4862874532018741e+03 0.0000000000000000e+00 0.0000000000000000e+00 0.0000000000000000e+00 0.0000000000000000e+00  7.0269797904615814e+01 -3.4262938642094355e+02 0.0000000000000000e+00 -3.4262938642094446e+02 7.8781171312888400e+03 0.0000000000000000e+00 0.0000000000000000e+00 0.0000000000000000e+00 0.0000000000000000e+00  -1.0287333484129931e+02 4.4500367022250288e+01 0.0000000000000000e+00 4.4500367022250352e+01 -4.2902556834127587e+01 0.0000000000000000e+00 0.0000000000000000e+00 0.0000000000000000e+00 0.0000000000000000e+00  3.6632109034002318e+00 9.9894935253774442e+00 0.0000000000000000e+00 9.9894935253774495e+00 6.3187004006981181e+02 0.0000000000000000e+00 0.0000000000000000e+00 0.0000000000000000e+00 0.0000000000000000e+00  1.8037696379455099e+00 -1.4279651210886556e+01 0.0000000000000000e+00 -1.4279651210886600e+01 6.4592400284089706e+02 0.0000000000000000e+00 0.0000000000000000e+00 0.0000000000000000e+00 0.0000000000000000e+00  5.9589187554812597e+01 -2.6040260806964954e+00 0.0000000000000000e+00 -2.6040260806964093e+00 -2.0154929067240733e+01 0.0000000000000000e+00 0.0000000000000000e+00 0.0000000000000000e+00 0.0000000000000000e+00  -1.1068940486324022e+01 -2.2310037465718007e+00 0.0000000000000000e+00 -2.2310037465718002e+00 -2.3224947907998659e+00 0.0000000000000000e+00 0.0000000000000000e+00 0.0000000000000000e+00 0.0000000000000000e+00  9.2670375189366860e-01 4.6343509142793221e-01 0.0000000000000000e+00 4.6343509142793188e-01 6.6021659400526633e-01 0.0000000000000000e+00 0.0000000000000000e+00 0.0000000000000000e+00 0.0000000000000000e+00  -1.9643422688593663e+01 1.5876314946926602e+01 0.0000000000000000e+00 1.5876314946926561e+01 -1.4728818454766630e+01 0.0000000000000000e+00 0.0000000000000000e+00 0.0000000000000000e+00 0.0000000000000000e+00  -4.2150049651984439e+01 -6.5569977458529806e+01 0.0000000000000000e+00 -6.5569977458529820e+01 1.9897138145697454e+01 0.0000000000000000e+00 0.0000000000000000e+00 0.0000000000000000e+00 0.0000000000000000e+00  4.5773754629922770e+01 6.6677721703074681e+01 0.0000000000000000e+00 6.6677721703074710e+01 -2.1638055795830113e+01 0.0000000000000000e+00 0.0000000000000000e+00 0.0000000000000000e+00 0.0000000000000000e+00  -1.3216627910717303e+01 -6.6608047966452546e+01 0.0000000000000000e+00 -6.6608047966452446e+01 -6.6669276784214006e+01 0.0000000000000000e+00 0.0000000000000000e+00 0.0000000000000000e+00 0.0000000000000000e+00  -1.7259068069822891e+02 -1.3086297404139427e+02 0.0000000000000000e+00 -1.3086297404139418e+02 -1.5293224928918386e+02 0.0000000000000000e+00 0.0000000000000000e+00 0.0000000000000000e+00 0.0000000000000000e+00  -4.6151749302895261e+01 -3.0747498524957003e+01 0.0000000000000000e+00 -3.0747498524957049e+01 -5.0321908931628299e+00 0.0000000000000000e+00 0.0000000000000000e+00 0.0000000000000000e+00 0.0000000000000000e+00  -1.3301758734483273e+00 -5.7879952218841257e-01 0.0000000000000000e+00 -5.7879952218841091e-01 1.3397775605081628e+00 0.0000000000000000e+00 0.0000000000000000e+00 0.0000000000000000e+00 0.0000000000000000e+00  -4.7034614867594904e+00 -1.8828440687391830e+00 0.0000000000000000e+00 -1.8828440687391801e+00 -3.8864181609379322e+00 0.0000000000000000e+00 0.0000000000000000e+00 0.0000000000000000e+00 0.0000000000000000e+00  -4.8610451547784705e+03 5.7034103251697006e+03 0.0000000000000000e+00 5.7034103251696879e+03 -6.9548155985407020e+03 0.0000000000000000e+00 0.0000000000000000e+00 0.0000000000000000e+00 0.0000000000000000e+00  -5.9930234789652195e+03 6.0171305265373439e+03 0.0000000000000000e+00 6.0171305265373494e+03 -3.4492214994950946e+03 0.0000000000000000e+00 0.0000000000000000e+00 0.0000000000000000e+00 0.0000000000000000e+00  -6.0349052083635233e+03 5.7321547356351903e+03 0.0000000000000000e+00 5.7321547356351857e+03 -7.3838495016258321e+03 0.0000000000000000e+00 0.0000000000000000e+00 0.0000000000000000e+00 0.0000000000000000e+00  -5.4637448720000464e+02 1.0746272269396131e+02 0.0000000000000000e+00 1.0746272269396253e+02 -1.2164588748762097e+04 0.0000000000000000e+00 0.0000000000000000e+00 0.0000000000000000e+00 0.0000000000000000e+00  -4.5972338769027347e+03 -5.6567232365878563e+03 0.0000000000000000e+00 -5.6567232365878563e+03 -5.9220548971358248e+03 0.0000000000000000e+00 0.0000000000000000e+00 0.0000000000000000e+00 0.0000000000000000e+00  -8.3088111881545829e+03 -6.4535790118883551e+03 0.0000000000000000e+00 -6.4535790118883551e+03 -6.0933495354612560e+03 0.0000000000000000e+00 0.0000000000000000e+00 0.0000000000000000e+00 0.0000000000000000e+00  -4.1028311083488488e+03 -4.6634250010513224e+03 0.0000000000000000e+00 -4.6634250010513197e+03 -5.7393181896815386e+03 0.0000000000000000e+00 0.0000000000000000e+00 0.0000000000000000e+00 0.0000000000000000e+00  -2.9890142779177797e+01 3.6149477657848568e+00 0.0000000000000000e+00 3.6149477657847529e+00 -1.8233950713825916e+01 0.0000000000000000e+00 0.0000000000000000e+00 0.0000000000000000e+00 0.0000000000000000e+00  5.5462525760479204e+00 5.2670633820787005e+00 0.0000000000000000e+00 5.2670633820786925e+00 6.3962865450741128e+02 0.0000000000000000e+00 0.0000000000000000e+00 0.0000000000000000e+00 0.0000000000000000e+00  1.5192511634473240e+02 1.2391112126118470e+02 0.0000000000000000e+00 1.2391112126118459e+02 7.6333109344834918e+02 0.0000000000000000e+00 0.0000000000000000e+00 0.0000000000000000e+00 0.0000000000000000e+00  -6.4937181279318347e+03 6.0089049496247253e+03 0.0000000000000000e+00 6.0089049496247244e+03 -5.4237173465179576e+03 0.0000000000000000e+00 0.0000000000000000e+00 0.0000000000000000e+00 0.0000000000000000e+00  -5.6440934652472088e+03 6.1665486061471711e+03 0.0000000000000000e+00 6.1665486061471684e+03 -8.4383569972953173e+03 0.0000000000000000e+00 0.0000000000000000e+00 0.0000000000000000e+00 0.0000000000000000e+00  -5.7724952298317876e+03 -5.8608148513091664e+03 0.0000000000000000e+00 -5.8608148513091655e+03 -5.7490685711951028e+03 0.0000000000000000e+00 0.0000000000000000e+00 0.0000000000000000e+00 0.0000000000000000e+00  -6.9350946689860966e+03 5.9923801998563804e+03 0.0000000000000000e+00 5.9923801998563868e+03 -3.9222855509052315e+03 0.0000000000000000e+00 0.0000000000000000e+00 0.0000000000000000e+00 0.0000000000000000e+00  -8.0582985038417410e+03 -5.8744851175130698e+03 0.0000000000000000e+00 -5.8744851175130689e+03 -8.0627507391889512e+03 0.0000000000000000e+00 0.0000000000000000e+00 0.0000000000000000e+00 0.0000000000000000e+00  -1.2492062188453895e+03 -1.2322834485208873e+03 0.0000000000000000e+00 -1.2322834485208889e+03 -9.5249516513140372e+02 0.0000000000000000e+00 0.0000000000000000e+00 0.0000000000000000e+00 0.0000000000000000e+00  -4.0254819936801136e+03 -5.9585860340414183e+03 0.0000000000000000e+00 -5.9585860340414238e+03 -3.3845233327617052e+03 0.0000000000000000e+00 0.0000000000000000e+00 0.0000000000000000e+00 0.0000000000000000e+00  -3.9611212625966527e+02 -4.5061733234361338e+02 0.0000000000000000e+00 -4.5061733234361361e+02 -9.2917699353765283e+02 0.0000000000000000e+00 0.0000000000000000e+00 0.0000000000000000e+00 0.0000000000000000e+00  3.7175702994599674e+03 3.1384686434202541e+02 0.0000000000000000e+00 3.1384686434202638e+02 1.6331178961666013e+04 0.0000000000000000e+00 0.0000000000000000e+00 0.0000000000000000e+00 0.0000000000000000e+00  -6.9731640004571261e+02 -6.1924364614807280e+02 0.0000000000000000e+00 -6.1924364614807268e+02 -3.7701951228616969e+02 0.0000000000000000e+00 0.0000000000000000e+00 0.0000000000000000e+00 0.0000000000000000e+00  -1.3661931978437151e+03 1.4438509067152504e+03 0.0000000000000000e+00 1.4438509067152481e+03 -1.1950650234975867e+03 0.0000000000000000e+00 0.0000000000000000e+00 0.0000000000000000e+00 0.0000000000000000e+00  -1.1950059712438292e+03 8.4058113297239197e+02 0.0000000000000000e+00 8.4058113297239152e+02 -6.3190437787409780e+02 0.0000000000000000e+00 0.0000000000000000e+00 0.0000000000000000e+00 0.0000000000000000e+00  4.1751809029349926e+02 -1.8000240428141552e+02 0.0000000000000000e+00 -1.8000240428141376e+02 -2.3930010287286927e+02 0.0000000000000000e+00 0.0000000000000000e+00 0.0000000000000000e+00 0.0000000000000000e+00  -4.5189840510748090e+03 -6.1488671447625338e+03 0.0000000000000000e+00 -6.1488671447625338e+03 -5.9640639752305469e+03 0.0000000000000000e+00 0.0000000000000000e+00 0.0000000000000000e+00 0.0000000000000000e+00  8.5166200528758748e+02 2.6910622342700421e+00 0.0000000000000000e+00 2.6910622342705386e+00 8.6033903629772503e+03 0.0000000000000000e+00 0.0000000000000000e+00 0.0000000000000000e+00 0.0000000000000000e+00  -6.5493933821330393e+03 -5.8758998054222920e+03 0.0000000000000000e+00 -5.8758998054222893e+03 -4.2094253431477891e+03 0.0000000000000000e+00 0.0000000000000000e+00 0.0000000000000000e+00 0.0000000000000000e+00  -4.5062122594669227e+03 6.0770420264161730e+03 0.0000000000000000e+00 6.0770420264161794e+03 -7.1163389460520493e+03 0.0000000000000000e+00 0.0000000000000000e+00 0.0000000000000000e+00 0.0000000000000000e+00  -5.9564301089070186e+03 -5.7520028975154473e+03 0.0000000000000000e+00 -5.7520028975154491e+03 -7.7889089039522869e+03 0.0000000000000000e+00 0.0000000000000000e+00 0.0000000000000000e+00 0.0000000000000000e+00  -6.0471079866053688e+03 5.9362837200862950e+03 0.0000000000000000e+00 5.9362837200862932e+03 -2.6141523342711253e+03 0.0000000000000000e+00 0.0000000000000000e+00 0.0000000000000000e+00 0.0000000000000000e+00  1.5936984266360414e+03 5.3951688348870175e+03 0.0000000000000000e+00 5.3951688348870175e+03 -6.7351074661465191e+03 0.0000000000000000e+00 0.0000000000000000e+00 0.0000000000000000e+00 0.0000000000000000e+00  -6.4452762975991554e+03 5.6873406046509717e+03 0.0000000000000000e+00 5.6873406046509763e+03 -8.3338267517540498e+03 0.0000000000000000e+00 0.0000000000000000e+00 0.0000000000000000e+00 0.0000000000000000e+00  -1.6629938177441749e+04 9.7597827485578673e+03 0.0000000000000000e+00 9.7597827485578673e+03 -1.9508079080812691e+04 0.0000000000000000e+00 0.0000000000000000e+00 0.0000000000000000e+00 0.0000000000000000e+00  -1.2743240621248476e+02 3.1545375028787032e+02 0.0000000000000000e+00 3.1545375028787339e+02 -1.2277578752655460e+04 0.0000000000000000e+00 0.0000000000000000e+00 0.0000000000000000e+00 0.0000000000000000e+00  -1.7428588524251038e+03 -1.4215344031472960e+03 0.0000000000000000e+00 -1.4215344031472971e+03 9.2501206192589252e+03 0.0000000000000000e+00 0.0000000000000000e+00 0.0000000000000000e+00 0.0000000000000000e+00  -3.9335399116384528e+03 -4.7551807050926554e+03 0.0000000000000000e+00 -4.7551807050926536e+03 -6.5995737621177232e+03 0.0000000000000000e+00 0.0000000000000000e+00 0.0000000000000000e+00 0.0000000000000000e+00  9.1301934383606931e+02 -9.2264481564618131e+02 0.0000000000000000e+00 -9.2264481564618143e+02 1.3306327750087683e+04 0.0000000000000000e+00 0.0000000000000000e+00 0.0000000000000000e+00 0.0000000000000000e+00  -1.2017557267521539e+04 -9.3639192743229487e+03 0.0000000000000000e+00 -9.3639192743229487e+03 -1.7224125522115872e+04 0.0000000000000000e+00 0.0000000000000000e+00 0.0000000000000000e+00 0.0000000000000000e+00  -1.2584508059474172e+03 2.1319349397101860e+02 0.0000000000000000e+00 2.1319349397101311e+02 7.2448974442421204e+03 0.0000000000000000e+00 0.0000000000000000e+00 0.0000000000000000e+00 0.0000000000000000e+00  -5.2579530372598992e+03 5.8666749387033033e+03 0.0000000000000000e+00 5.8666749387033078e+03 -5.0306245136858970e+03 0.0000000000000000e+00 0.0000000000000000e+00 0.0000000000000000e+00 0.0000000000000000e+00  -9.0294599461625912e+03 5.9620164410622283e+03 0.0000000000000000e+00 5.9620164410622283e+03 -9.6350161437853822e+03 0.0000000000000000e+00 0.0000000000000000e+00 0.0000000000000000e+00 0.0000000000000000e+00  -7.1670465583100904e+03 -6.0192042771433235e+03 0.0000000000000000e+00 -6.0192042771433180e+03 -6.3278284709884419e+03 0.0000000000000000e+00 0.0000000000000000e+00 0.0000000000000000e+00 0.0000000000000000e+00  -3.4894071831076531e+03 5.8689320472768695e+03 0.0000000000000000e+00 5.8689320472768659e+03 -2.2818839713568741e+03 0.0000000000000000e+00 0.0000000000000000e+00 0.0000000000000000e+00 0.0000000000000000e+00  -5.5520104720114814e+03 -6.0692164971055045e+03 0.0000000000000000e+00 -6.0692164971055072e+03 -7.3376346523705797e+03 0.0000000000000000e+00 0.0000000000000000e+00 0.0000000000000000e+00 0.0000000000000000e+00  -1.4897931772106544e+03 -1.3408574588292854e+03 0.0000000000000000e+00 -1.3408574588292843e+03 -1.1290909915625073e+03 0.0000000000000000e+00 0.0000000000000000e+00 0.0000000000000000e+00 0.0000000000000000e+00  -5.9405247889048060e+03 -6.1095532095423268e+03 0.0000000000000000e+00 -6.1095532095423268e+03 -3.9119816549116158e+03 0.0000000000000000e+00 0.0000000000000000e+00 0.0000000000000000e+00 0.0000000000000000e+00  1.2811027171643627e+03 9.6285287898552440e+02 0.0000000000000000e+00 9.6285287898552281e+02 5