<?xml version="1.0"?>
<VTKFile type="UnstructuredGrid"  version="0.1"  >
<UnstructuredGrid>
<Piece  NumberOfPoints="4855" NumberOfCells="8780">
<Points>
<DataArray  type="Float64"  NumberOfComponents="3"  format="ascii">0.9483880164242298 0.6836931311526558 0  0.9494264999197789 0.6847056440044139 0  0.9494005292759887 0.6847228078606633 0  0.9735520289385229 0.7444444444444445 0  0.9494005292759886 0.8041660810282256 0  0.94942649991978 0.8041832448844759 0  0.9483880175070514 0.8051957566534116 0  3.131175874138137e-16 0.09811450876034808 0  0.06838800723463068 0.1543033514199101 0  0.05161198249294494 0.1948042433465922 0  0.0505735000802211 0.1958167551155251 0  0.05059947072401128 0.1958339189717744 0  0.0505994707240113 0.3152771921393367 0  0.05057350008021998 0.315294355995587 0  0.05161198357913653 0.3163068688507105 0  0.06838800723463068 0.356807759691201 0  3.252606517456513e-16 0.4129966023507631 0  -1.795438797635995e-16 0.4839416311832997 0  0.07083274769489223 0.4605116403870998 0  0.07084991155114129 0.4605376110308903 0  0.07186242331670639 0.4594991286215342 0  0.1696402113702762 0.5 0  0.07186242332008326 0.5405008713818427 0  0.0708499115511413 0.5394623889691096 0  0.07083274769489219 0.5394883596129002 0  -1.925543058334256e-16 0.5160583688167003 0  1.484923295436147e-15 0.5870033976492365 0  0.06838800723463068 0.643192240308799 0  0.05161198249294541 0.6836931322354806 0  0.05057350008022109 0.6847056440044139 0  0.0505994707240113 0.6847228078606633 0  0.0505994707240113 0.8041660810282256 0  0.05057350008021999 0.804183244884476 0  0.05161198249294764 0.8051957566534106 0  0.06838800723463068 0.84569664858009 0  1.485790657174135e-15 0.9018854912396524 0  0 1 0  1 1 0  0.9999999999999987 0.9018854912396523 0  1.000000000000001 0.5870033976492375 0  1 0.5160583688167003 0  0.9291672523051078 0.5394883596129003 0  0.9291500884488585 0.5394623889691117 0  0.9281375755937461 0.5405008724680134 0  0.9281375755937372 0.4594991275319777 0  0.9291500884488586 0.4605376110308884 0  0.9291672523051077 0.4605116403870997 0  1 0.4839416311832997 0  0.9999999999999987 0.4129966023507635 0  0.948388017507054 0.31630686776452 0  0.94942649991978 0.3152943559955871 0  0.9494005292759886 0.3152771921393367 0  0.9735520289385229 0.2555555555555555 0  0.9494005292759888 0.1958339189717744 0  0.9494264999197789 0.1958167551155251 0  0.9483880164208631 0.1948042422604003 0  1.000000000000001 0.09811450876034861 0  1 0 0  0 0 0  0.1958339189717744 0.2950439151684559 0  0.1958167551155252 0.2950179445246672 0  0.3152771921393367 0.2950439151684557 0  0.1948042433481841 0.2960564269357975 0  0.3152943559955858 0.2950179445246651 0  0.1948042422604031 0.2150546830875326 0  0.3163068677645244 0.2960564269373949 0  0.1958167551155251 0.2160931665864439 0  0.4140846558147206 0.2555555555555555 0  0.1958339189717744 0.2160671959426553 0  0.3163068688489276 0.215054683089313 0  0.3152771921393367 0.2160671959426553 0  0.3152943559955858 0.2160931665864459 0  0.5405008724680257 0.3163068688507107 0  0.5572768961235196 0.356807759691201 0  0.5394623889691089 0.3152943559955871 0  0.459499128618165 0.3163068677645201 0  0.5394883596129003 0.3152771921393367 0  0.4605376110308911 0.3152943559955871 0  0.5394883596129001 0.1958339189717744 0  0.4605116403870998 0.3152771921393367 0  0.53946238896911 0.1958167551155251 0  0.4846631400496339 0.2555555555555555 0  0.5405008724680251 0.1948042422604009 0  0.4605116403870998 0.1958339189717744 0  0.5572768961235196 0.1543033514199101 0  0.46053761103089 0.1958167551155251 0  0.4594991286269881 0.1948042433554141 0  0.6847228078606633 0.2950439151684559 0  0.684705644004414 0.2950179445246672 0  0.8041660810282256 0.2950439151684557 0  0.683693131164073 0.2960564280087975 0  0.8041832448844747 0.2950179445246651 0  0.6836931322354718 0.2150546841737125 0  0.8051957566534156 0.2960564269373971 0  0.6847056440044141 0.2160931665864439 0  0.9029735447036096 0.2555555555555555 0  0.6847228078606632 0.2160671959426553 0  0.8051957577274008 0.2150546830997286 0  0.8041660810282256 0.2160671959426553 0  0.8041832448844747 0.2160931665864459 0  0.2960564280235811 0.560751313295155 0  0.3128324516790751 0.6012522041356455 0  0.2950179445246645 0.5597388004400315 0  0.2150546830875235 0.5607513132951615 0  0.2950439151684557 0.5597216365837812 0  0.2160931665864466 0.5597388004400314 0  0.2950439151684558 0.4402783634162188 0  0.2160671959426553 0.5597216365837812 0  0.2950179445246656 0.4402611995599696 0  0.2402186956051895 0.5 0  0.29605642693739 0.439248687791036 0  0.2160671959426553 0.4402783634162189 0  0.3128324516790751 0.3987477958643545 0  0.2160931665864455 0.4402611995599696 0  0.2150546830875296 0.4392486867048446 0  0.1958339189717743 0.7839328040573448 0  0.1958167551155252 0.7839068334135562 0  0.3152771921393367 0.7839328040573447 0  0.1948042422604028 0.7849453169124678 0  0.3152943559955858 0.783906833413554 0  0.1948042433465913 0.7039435730626098 0  0.3163068677645284 0.7849453158262878 0  0.1958167551155251 0.7049820554753328 0  0.4140846558147206 0.7444444444444445 0  0.1958339189717744 0.7049560848315441 0  0.3163068688486237 0.7039435719785058 0  0.3152771921393367 0.7049560848315441 0  0.3152943559955858 0.7049820554753349 0  0.4402783634162188 0.5394883596129003 0  0.4402611995599696 0.5394623889691117 0  0.5597216365837812 0.5394883596129002 0  0.4392486867048468 0.5405008724680237 0  0.5597388004400302 0.5394623889691096 0  0.4392486877998708 0.4594991286270004 0  0.5607513122089726 0.540500871381843 0  0.4402611995599696 0.4605376110308884 0  0.6585291002591651 0.5 0  0.4402783634162188 0.4605116403870998 0  0.5607513121946796 0.45949912863245 0  0.5597216365837812 0.4605116403870998 0  0.5597388004400302 0.4605376110308904 0  0.78494531690701 0.5607513132896949 0  0.8017213405679641 0.6012522041356455 0  0.7839068334135535 0.5597388004400315 0  0.7039435730626069 0.5607513122089671 0  0.7839328040573448 0.5597216365837812 0  0.7049820554753355 0.5597388004400314 0  0.7839328040573448 0.4402783634162188 0  0.7049560848315441 0.5597216365837812 0  0.7839068334135545 0.4402611995599696 0  0.7291075844940784 0.5 0  0.784945315826279 0.4392486877910359 0  0.7049560848315444 0.4402783634162188 0  0.8017213405679641 0.3987477958643545 0  0.7049820554753344 0.4402611995599696 0  0.7039435719764182 0.4392486867048443 0  0.5405008724625655 0.8051957577341393 0  0.5572768961235196 0.84569664858009 0  0.539462388969109 0.804183244884476 0  0.4594991286181648 0.8051957566534091 0  0.5394883596129003 0.8041660810282256 0  0.4605376110308911 0.804183244884476 0  0.5394883596129003 0.6847228078606633 0  0.4605116403870998 0.8041660810282256 0  0.53946238896911 0.6847056440044139 0  0.4846631400496339 0.7444444444444445 0  0.5405008713818347 0.6836931322354802 0  0.4605116403870998 0.6847228078606633 0  0.5572768961235196 0.643192240308799 0  0.46053761103089 0.6847056440044139 0  0.4594991275353449 0.6836931311526599 0  0.6847228078606633 0.7839328040573448 0  0.684705644004414 0.7839068334135562 0  0.8041660810282256 0.7839328040573447 0  0.6836931311493016 0.7849453169124578 0  0.8041832448844747 0.783906833413554 0  0.68369313223548 0.7039435730626096 0  0.805195756653417 0.7849453158262875 0  0.6847056440044141 0.7049820554753328 0  0.9029735447036096 0.7444444444444445 0  0.6847228078606633 0.7049560848315441 0  0.805195757738809 0.7039435719772094 0  0.8041660810282256 0.7049560848315441 0  0.8041832448844747 0.7049820554753349 0  0.9578164230213342 0.6948838683471341 0  0.9645772892192558 0.7062137009141434 0  0.9695236884064815 0.7184451175460498 0  0.972538971146615 0.7312896684428197 0  0.9725389711466151 0.7575992204460691 0  0.9695236884064815 0.7704437713428391 0  0.9645772892192558 0.7826751879747456 0  0.9578164230213342 0.7940050205417549 0  0.01437766570919127 0.09711967848259151 0  0.02854851642641832 0.09974531144948819 0  0.04161535472570586 0.1058251712658871 0  0.05275088139110013 0.1149743244732108 0  0.06125007411586489 0.1266135117968212 0  0.06657482449792251 0.1400058227212122 0  0.06643634307317195 0.1691277076584997 0  0.06071435336153361 0.1829418078690686 0  0.04134737123322858 0.3039103077764334 0  0.03416190609801732 0.2911362521989113 0  0.02925217947541549 0.2773267630846004 0  0.02676106927623143 0.2628837102534819 0  0.02676106927623143 0.2482274008576293 0  0.02925217947541547 0.2337843480265108 0  0.03416190609801727 0.2199748589121999 0  0.04134737123322851 0.2072008033346779 0  0.06071435387356935 0.328169304128914 0  0.06643634320569657 0.3419834039471998 0  0.06657482449792249 0.371105288389899 0  0.06125007411586481 0.3844975993142901 0  0.05275088139109994 0.3961367866379005 0  0.04161535472570563 0.4052859398452242 0  0.02854851642641818 0.411365799661623 0  0.01437766570919127 0.4139914326285196 0  0 0.4697526254167924 0  0 0.455563619650285 0  0 0.4413746138837777 0  0 0.4271856081172704 0  0.06095233986089402 0.4687284952262988 0  0.04995687430503332 0.4753797281664747 0  0.03809234373417287 0.4803165365228644 0  0.02562418374773841 0.4834284730529493 0  0.01283133446055119 0.4846459169037758 0  0.08372485599813187 0.4503967593658507 0  0.09753895276796982 0.4446747697099958 0  0.1123633055586467 0.4427231038764812 0  0.1271876590095525 0.4446747646950606 0  0.1410017577150834 0.45039674967774 0  0.1528641934757506 0.4594991149204779 0  0.161966560724962 0.471361549141524 0  0.1676885480442292 0.4851756468792086 0  0.1676885480443665 0.514824353120279 0  0.1619665607254926 0.528638450857557 0  0.1528641934768762 0.5405008850783964 0  0.1410017577169217 0.5496032503211987 0  0.1271876590121153 0.5553252353042526 0  0.1123633055618306 0.5572768961235188 0  0.09753895277155772 0.5553252302909656 0  0.08372485600180817 0.5496032406362719 0  0.0128313344605512 0.5153540830962242 0  0.0256241837477384 0.5165715269470507 0  0.03809234373417282 0.5196834634771356 0  0.04995687430503334 0.5246202718335253 0  0.06095233986089401
[...]
<PointData  Scalars="$\epsilon_{VM}$"> 
<DataArray  type="Float64"  Name="$\epsilon_{VM}$"  format="ascii">3.8694720992335022e-02  1.0355670609215735e-01  4.9017033065737819e-02  3.0674637031980777e-02  1.6446627311699727e-02  5.0310868660236534e-02  1.4125132951523916e-02  -1.9102197350114655e-05  1.0496430372385001e-02  1.3540669204044927e-02  4.6444340025443620e-02  1.5799378474073832e-02  5.0076088578993996e-02  1.1325059016930188e-01  3.2264310268422539e-02  2.2833680297493477e-04  4.1441735292009527e-06  2.2073842599949977e-06  1.1483196966959738e-04  8.7117848178896930e-04  8.1520921679692845e-05  3.7659896880797417e-01  1.3042239966854329e-04  2.2150112615052490e-04  1.0875101841542670e-04  2.2073451429403507e-06  2.4687234012126584e-05  6.4585317014303686e-04  3.6542763083672415e-02  1.0133246277059110e-01  4.8702728673300492e-02  1.6430499720097805e-02  4.1926131524153018e-02  1.2837650643199198e-02  1.0236923470393245e-02  4.7209105831452469e-05  8.3030524624547230e-04  8.4509804424763503e-04  5.2525087327582876e-06  1.2481015866336919e-07  1.4637988326694405e-06  1.8201356521617103e-04  -5.7819837187034009e-05  1.1988467863935172e-04  8.8352056413991599e-05  4.8661706104163172e-04  8.8911049276452699e-05  2.7760331351906555e-06  2.4802494165609727e-06  4.1138871580989493e-02  1.0774102006548708e-01  4.4168443403289383e-02  2.6484399674835811e-02  1.6078549895654839e-02  6.3995654105377817e-02  1.3509426519617781e-02  1.5687132972780228e-05  8.3782973310882669e-04  9.4791551910703787e-04  1.0223178392820399e-01  1.8747705156607183e-01  3.7361798214560343e-02  1.7190255178807140e-01  8.7168325726560886e-02  3.0909674320468861e-03  6.6538884123125697e-02  1.6247740744879822e-03  2.1574435215113438e-01  1.6594505058635592e-03  3.6933183863870019e-03  2.2355919157759146e-03  -9.9577418949384905e-04  4.0152881690033337e-02  1.1702721337903642e-02  1.1790871419589251e-01  4.4208042403317396e-02  5.5821412436168089e-02  1.3333292476136324e-01  4.8584059689360838e-02  6.1491449303999975e-02  2.8245928357278716e-01  1.9136966521603078e-02  1.1967409002031699e-02  4.0810332308291210e-02  1.2490608120615998e-01  2.3458600049210293e-01  -1.7579960695118697e-02  4.0957894018794239e-02  1.1365391116643991e-01  1.0904975577708254e-01  6.7847268660097992e-02  1.7385545616265219e-01  3.4176028058893922e-03  1.6466593646695962e-01  -2.3094309421404411e-03  1.5041347931744736e-01  2.1513032385870757e-03  2.8059686075575518e-03  2.0344403267429736e-03  -1.9107386167861804e-03  1.4091357365915111e-02  1.5696016371420679e-02  1.1270199154288879e-01  2.4305490465319046e-02  2.6153459314218898e-02  1.0936139960217345e-01  2.6867194057408551e-02  4.7645778581157983e-02  7.2845975145441805e-02  8.4020885999833664e-02  1.1795578233244994e-02  4.6814905390931659e-02  1.5463006453388774e-02  1.2141990694137600e-01  3.1628239696502344e-02  1.8359386461644352e-03  1.3930818636562006e-03  2.0293972432812168e-03  2.8282410465733398e-03  -2.3042884418316249e-03  1.8185336275382358e-01  3.5763554426881641e-03  1.9469909909117736e-01  2.5918419868327847e-01  1.0222226558980158e-01  6.6824816026677503e-02  3.7702825558318241e-02  8.4722332815746981e-02  4.4044045079761257e-02  9.3943212856754346e-02  4.1302281294992936e-02  8.2456810800600217e-02  8.8308146342627819e-02  7.6685213427580876e-02  7.3664957502775658e-02  7.6394338211558457e-02  2.5560030546067525e-01  4.4970954769605997e-02  8.1286362387149397e-02  4.1734238227915763e-02  7.2397860539709702e-02  2.7456231135873727e-02  9.3851159440598297e-03  1.3178683592735851e-01  1.2260061108116860e-02  5.3512383153560494e-02  9.1033832535532516e-02  4.9983540219878803e-02  2.3908331835989231e-02  8.5278115051791198e-02  5.3470459918225660e-02  2.7073409976044991e-02  2.8602351622791452e-02  8.4567342547062271e-03  7.4332261185028295e-02  1.5877892611495168e-02  -1.0298330077038610e-02  1.1547988950547666e-01  1.6947870116167846e-01  -4.2506785822918882e-03  3.6185663692007659e-02  2.2131316910828522e-01  5.3079846236020523e-02  4.3125526904554845e-02  1.2715254590402902e-01  3.0668953523519293e-02  4.1987303146283059e-02  5.0470449566837272e-02  1.2300550864293075e-02  1.4387057390922606e-01  4.3173258857994092e-02  1.8847003622117328e-03  -2.2746393783763851e-03  2.1425346668662590e-03  3.5135143954531343e-03  2.8972821107226829e-03  6.4568956049989523e-02  2.7361550543871628e-03  9.4780231049451061e-02  1.4836616993569934e-01  3.7006173872746177e-02  1.5707351486990698e-01  1.0765556198981106e-01  1.7433281527429512e-01  4.4060087747032219e-02  4.1997203914126820e-02  3.9636867564291342e-02  3.7174816660594800e-02  2.4228656938016246e-02  2.0815298524560367e-02  1.6337307089844173e-02  1.4674197390195674e-02  3.8905915525304983e-05  5.5589821757760479e-04  1.7018188738877615e-03  3.8292661123961566e-03  7.5192642450972848e-03  9.4744676964687753e-03  5.2490520557254864e-03  5.3574422898159148e-03  4.1211749564066619e-02  4.3479648095969319e-02  3.9064337870354904e-02  3.4070790533982452e-02  2.7997985584821163e-02  2.1670593782652368e-02  1.8038292577197811e-02  1.4918425293796882e-02  1.4121110702896383e-02  4.2454572767720820e-03  1.7141097138033659e-03  2.5128632225380408e-04  3.0715969360341341e-04  2.3715137325844207e-04  6.2271646765764169e-05  3.4383280543622265e-06  6.2112532781437214e-06  3.8527862732532301e-06  5.4090378587563404e-06  1.5888499154659684e-05  6.0351565136683956e-05  2.6655892253398066e-05  1.0461366459796604e-05  3.7218024022437059e-06  -4.8131058004232549e-07  6.3100326922239990e-04  6.4906349491174577e-04  3.7114288170349226e-04  3.0457694342705299e-03  7.1580747156245704e-03  4.4268987882364698e-02  1.5374839851419131e-01  3.4990535736275830e-01  3.1435284640329769e-01  2.1484991881838042e-01  3.9948439414240450e-02  8.3502747884165868e-03  3.4029241454209512e-03  2.5952232198282521e-04  6.4467048619092060e-04  5.4090324213485906e-04  8.3261303293701729e-06  1.9067005177925202e-05  1.6928941590121788e-05  4.7931968408984153e-05  9.0983641183271526e-06  1.4464406449555704e-05  4.2981345453751177e-06  -3.0813122019761671e-06  3.2425200362652231e-06  4.5413571263763345e-05  7.4296725688790575e-05  1.9132562728465147e-04  3.1028827014198103e-04  1.1646871048216744e-04  1.4755408685004317e-03  3.6696294127728036e-03  1.5226779316787648e-02  1.3246309568907726e-02  1.7713059756883736e-02  2.1208967612042197e-02  2.7035072861508250e-02  3.4384469799306983e-02  3.8856929805023081e-02  4.3844702940496971e-02  4.0884182029079251e-02  5.4146810771448185e-03  5.0444875182148472e-03  1.0109151576566841e-02  7.4064365420313354e-03  3.9452980694738753e-03  1.7246843418140380e-03  3.4590762462460227e-04  1.8537923589833342e-04  8.1372873609283328e-04  6.8293998054014748e-04  4.8670078628378229e-04  2.4664567873476683e-04  7.5851125864396856e-05  1.6561073152121760e-05  1.0026940735950926e-03  1.2713461733400077e-03  1.6098567061823795e-03  1.9578242457583737e-03  2.1576675165774638e-03  2.2224685575285112e-03  2.1669463995731262e-03  1.9797532332613832e-03  1.6928953225848636e-03  1.3928137771647021e-03  1.0670521966106013e-03  8.4504602123166661e-04  7.0460291073553703e-04  7.3305239316307847e-04  8.2513424244475410e-04  9.4128477578046723e-04  1.0241565069352566e-03  1.0673706311025140e-03  1.0809961322692831e-03  1.0898312680754688e-03  1.1530633457509957e-03  1.3585410411886619e-03  1.7656688669273691e-03  2.3071793249413472e-03  2.9357310845200186e-03  3.5055574717521155e-03  3.9125767186916410e-03  4.1339663530485611e-03  4.0797589724128327e-03  3.9067555733439162e-03  3.6660165576735976e-03  3.2917224611221838e-03  3.0840000109440872e-03  3.1375762916881914e-03  3.2716508330596179e-03  3.6275795877424894e-03  4.0537341589061606e-03  4.1767896018592918e-03  4.1893187236754590e-03  3.9188244437287903e-03  3.4896451168913980e-03  2.9326932917431003e-03  2.2370342613229374e-03  1.7957890188809028e-03  1.3506994226247476e-03  1.1749165359261808e-03  1.0821161012861587e-03  1.0769195365898088e-03  1.0768891549277947e-03  1.0273150150114227e-03  9.4381341381557919e-04  8.3382926973733437e-04  7.2127061518281234e-04  7.1466906095305654e-04  8.1866863435022192e-04  1.0831047246580388e-03  1.3980585152405874e-03  1.6927133334162950e-03  1.9973220784153616e-03  2.1691893935339495e-03  2.2137968164314139e-03  2.1434033595584519e-03  1.9546229521803416e-03  1.6582053956877027e-03  1.2998502414496005e-03  9.9302390331461126e-04  7.2585662458149206e-05  1.3076022657931542e-04  2.0956539467469973e-04  5.0727014266074670e-04  6.7853961387585448e-04  7.8220045003448877e-04  3.7983402123558111e-05  5.4265991975181347e-04  1.6951453496185809e-03  4.2000508073324824e-03  7.1941494855784927e-03  1.0224793394168638e-02  9.5073935653772774e-03  5.4168024874845754e-03  5.6743023497460394e-03  1.4710782316673264e-02  3.2285607506489281e-03  1.6333358997124708e-03  1.3385889322782155e-03  1.4867937329442313e-04  4.8908208384580579e-04  1.6959609787872292e-04  3.1235353251827538e-05  1.5931911942678714e-05  3.5340553653568079e-06  5.8532754704201157e-07  5.4908798667061958e-06  5.9242555771241821e-06  7.1189852800033796e-05  3.9103599691459815e-05  2.7507277939127757e-05  1.0515161091169916e-05  6.6223776484486959e-06  5.7055241228404902e-04  4.5593412902116839e-04  3.4035408500088064e-04  3.0785364196834197e-03  7.0515848091714803e-03  4.3603698250357911e-02  2.2117418975669220e-01  2.6769886668807830e-01  3.7787356275966388e-01  4.0042451910847027e-01  1.7050079737876780e-01  4.1132560414428178e-02  7.4444594748378648e-03  2.5231620812233490e-03  2.4691550131864480e-04  7.6207625852203211e-04  3.5742750718296311e-04  2.4700122623130636e-07  1.6796303021880184e-06  5.2466430142410138e-07  1.1058722506797869e-05  1.6216995127612964e-05  6.6968912135951239e-07  4.6532129564937378e-06  1.4081895758641412e-06  5.4950200064802836e-06  1.0164992283882318e-05  3.7452620080615381e-05  1.8001555626707952e-04  3.3767581905480440e-04  4.9272800351669963e-04  1.1837366819211000e-03  1.1026670459950759e-03  4.3014383299008066e-03  1.4029825301399063e-02  3.6334258917816276e-02  4.0145316038867805e-02  3.9574190055747881e-02  4.5205417304544949e-02  1.4773339651695127e-02  1.5491915611372854e-02  2.1014390053465816e-02  2.5664934762491272e-02  6.5841899968168355e-03  4.7213368601605448e-03  1.0284082259311468e-02  1.0334427006632648e-02  7.1825691689972101e-03  4.0560705075887524e-03  1.8679871250933703e-03  5.5003284456361067e-04  5.8057773254544044e-05  8.3250963596036385e-04  6.3251785784042096e-04  5.8140754683622315e-04  1.9876028494128229e-04  1.3859178115434485e-04  1.1779558679234760e-04  7.7685565312181901e-04  9.7482492377317688e-04  1.7029695035146843e-03  2.1494545734336945e-03  2.1318195148924742e-03  2.2873717103830946e-03  2.2008369773418783e-03  2.0010484247932172e-03  1.7177287305368087e-03  1.4179738239955451e-03  1.1021568852177524e-03  8.4387723780957405e-04  7.0196068134215051e-04  7.3097864547386432e-04  8.1765457650296496e-04  9.2222415439196311e-04  1.0080735596116363e-03  1.0536405190511558e-03  1.0551083569534565e-03  1.0755036453845347e-03  1.1341114483629253e-03  1.3937273008054858e-03  1.7492687625846025e-03  2.2898418928943439e-03  2.8993657542681398e-03  3.3928316495979911e-03  3.9727825249143301e-03  4.1132603237232761e-03  4.1857060300332614e-03  3.9662682965241284e-03  3.6200305227178280e-03  3.2827603910740577e-03  3.0865409532966413e-03  3.1003859099659682e-03  3.1873209633197916e-03  3.6115368199040837e-03  3.9845946443804207e-03  4.1362505228946115e-03  4.1796634815769607e-03  3.9319529627662997e-03  3.4394156965352409e-03  2.9178954764554825e-03  2.3260565084071471e-03  1.7665238768147017e-03  1.3840370137328222e-03  1.1374511577954135e-03  1.0728916994922973e-03  1.0554272976640517e-03  1.0623759468273630e-03  1.0134629139958503e-03  9.2613104307397805e-04  8.2015538241904558e-04  7.2693332125340065e-04  7.2100140393781763e-04  8.1815228735563055e-04  1.0975033719407799e-03  1.3988931857194212e-03  1.7084420920347376e-03  1.9951219255794823e-03  2.1815058872654402e-03  2.2477943789014675e-03  2.1697455871672764e-03  1.9591826379031715e-03  1.6626547649271036e-03  1.3175523808473945e-03  1.0138581174010384e-03  7.6674651726425842e-05  1.5464398477279658e-04  1.5119794977193617e-04  5.2573426233304031e-04  5.6316776869201135e-04  8.4918741292494223e-04  6.3990494712253640e-02  5.1736578609518455e-02  3.2723043305334577e-02  1.9089553126120592e-02  1.6604013403167826e-02  1.7013326038881119e-02  1.7744205155430608e-02  2.2967305173691950e-02  1.4692123873402013e-01  5.3413995932043996e-02  9.6691036611379344e-03  2.7474295457880884e-03  9.6954626533189252e-03  4.1447967346846880e-02  1.5696149338200963e-01  1.5371768835766095e-01  1.6153436349123412e-01  1.4409650967957563e-01  4.1137324656261930e-02  9.5788176497473409e-03  4.0469464488269687e-03  2.5344205999794801e-03  4.9797792480471784e-03  4.7830215419080932e-03  4.1180012970319924e-03  2.4586531170311365e-01  1.9166883930716291e-01  8.7558411387612806e-02  1.2676739630242621e-02  2.1859929811760886e-03  6.5784226888982427e-03  1.8897264205025660e-02  3.9198049842290424e-02  5.4325561433381138e-03  1.0077365000816676e-02  1.3055857726683329e-02  1.6926528643530624e-02  8.3088452698203738e-02  2.0713210963450523e-02  1.5649051947909981e-01  1.4867310451962779e-01  1.4954741312907715e-03  8.7992193067761308e-04  8.4287185129484855e-04  9.0628757904686219e-04  7.9346418163519388e-04  9.2242957741812384e-04  8.9917858066607191e-04  1.4202855278199651e-03  9.4870026650069866e-03  4.7166267397779600e-03  1.2195569259525311e-02  2.3290778788391819e-02  6.7117843324013188e-02  7.1659807447264107e-02  2.7892178716971913e-02  2.1613547783297275e-02  2.8741803845533598e-02  7.2289753072549701e-02  5.6596502337590476e-02  2.7464280621475792e-02  1.2203954212831625e-02  1.1776992680836170e-02  6.3228846257829437e-03  1.1908457783506000e-02  4.4409336855111593e-02  4.0003944409780487e-02  3.0803141127994295e-02  2.1167553680666716e-02  2.0872323513170584e-02  2.5526744869528134e-02  2.0804079695504830e-02  2.5409954635785492e-02  2.1246960547023373e-02  2.8065384710770615e-02  4.1747226667308956e-02  5.2580052356137413e-02  1.9956585552745234e-02  2.2604039668261931e-02  2.1201669083574719e-02  2.1528644192320145e-02  1.9225513523376087e-01  2.4272979958250623e-01  2.4560900703194774e-01  2.5198255951572296e-01  7.4181386154670084e-02  3.7518027216691757e-02  1.2072003434296092e-02  7.9635083128151221e-03  3.2454624860478640e-03  8.2557245821575614e-04  9.4165572011222366e-04  1.3439235835927975e-03  3.0393487007059437e-03  8.1157835315868662e-03  1.2616257674569540e-02  2.7592121710063949e-02  2.1996283190831717e-02  1.7874580299084727e-02  1.6925640940073813e-02  1.6344886445515627e-02  1.9412900782897733e-02  3.1731515523741517e-02  5.1385161112857389e-02  5.8136206399011424e-02  4.5648800653895802e-02  1.9321097607694040e-02  7.3931626833942431e-03  4.4050349955264195e-03  1.3251763052750177e-02  9.0039117687315248e-02  1.7321261838481644e-01  2.3124955633289848e-01  2.3607604966785867e-01  1.9058242462854549e-01  1.3624677734524124e-01  3.3383699765367356e-02  4.2259609427305972e-02  2.4709603783381939e-02  1.3490066747754111e-02  9.8445089234489372e-03  5.5101806011782512e-03  1.9101996504740693e-01  1.3424248479418593e-01  5.5826909498558758e-02  9.8237454813588383e-03  3.0513880068745833e-03  8.9947090828384237e-03  5.4007595008073742e-02  1.4070752113936155e-01  4.1769978283276686e-03  4.7344190559865914e-03  4.5056620100202126e-03  3.3590227778632149e-03  4.4113053470219432e-03  9.4062631611138842e-03  5.6776647270327683e-02  1.0992464312378816e-01  1.4431839434047599e-03  9.3742179164793007e-04  8.8071305481786345e-04  8.5511556872904914e-04  8.5452319733379497e-04  8.2855076858488015e-04  9.8395496583915691e-04  1.4561836478740832e-03  1.2581152824078474e-02  1.3161828195733029e-02  1.3600152152843440e-02  1.3772886471546814e-02  3.3979254451999306e-02  6.7513445932754115e-02  3.7907496785121106e-02  6.3498271026353553e-02  1.1765985191560749e-01  2.2858041474146595e-01  1.1669747840855922e-01  4.7964756799190836e-02  1.0891043689383215e-02  9.0767596842470932e-03  5.5680210918411860e-03  1.1308830597930494e-02  2.1495602717503039e-02  3.3445522482887798e-02  4.0548661744186698e-02  4.8237374824032515e-02  4.9489306168580084e-02  4.1707458317198520e-02  3.7274539021783445e-02  2.5662959707454466e-02  1.0183216446374559e-01  8.5155912980156984e-02  7.3884246783940927e-02  6.4793907007721974e-02  4.2492838890971725e-02  6.6806759048107012e-02  9.4284685721358660e-02  1.0902465017013697e-01  1.1996074581225738e-02  1.1307180960426245e-02  9.1877526643763998e-03  3.7766545485387964e-03  7.9610827186047829e-03  1.4131847881242103e-02  3.7570796667497477e-02  1.1411945535994167e-01  2.2949476486477161e-01  1.1481867903112133e-01  4.3741231025149541e-02  6.3302208344744787e-02  5.2106187389597887e-02  3.2711372190583593e-02  1.7566763257835915e-02  1.3657732533914920e-02  1.4267388192507212e-03  1.0152473708513871e-03  8.8588655447632218e-04  8.4345704324416686e-04  8.4738611300622579e-04  8.9010445248327379e-04  8.0734586487648825e-04  1.5877196360879495e-03  4.0096498757305928e-03  5.0979341168139675e-03  4.6194995390534729e-03  2.4064773032461836e-03  4.0034416719273713e-03  8.8929499611323012e-03  4.0317697499379156e-02  1.2593105603106056e-01  1.6323018722443475e-01  1.6683556499076127e-01  1.6205827544867990e-01  4.5049408698301610e-02  8.8900090623160524e-03  3.5313196529597793e-03  9.9954582900461438e-03  5.3603213878836126e-02  1.4545283398788031e-01  2.0251553816530130e-01  9.2447358461718976e-02  5.0147119756685975e-02  4.8840601369319142e-02  2.5045253437674761e-02  1.3496184309335977e-02  1.0110859610937531e-02  5.6482279158378982e-03  4.0291802023848029e-02  1.5505093149070989e-02  5.7624523900514811e-03  3.5998572939514076e-03  1.1000385290047980e-02  6.0880761689621102e-02  2.3194348576384738e-01  2.0223037124802290e-01  2.0491383832344646e-02  1.7157827368083758e-02  1.5222628830745433e-02  1.5903079537122791e-02  1.7251486278339539e-02  3.4467334114969335e-02  5.6081717469815391e-02  6.3012060751036117e-02  2.1476626534536875e-02  1.4873766291667291e-02  1.3201183987389472e-02  1.2737277892615280e-02  1.3114224109613864e-02  1.3524961790711226e-02  1.4272761837907488e-02  2.0124072171128056e-02  8.5462382314412069e-02  4.7632478588648240e-02  1.4598565636994194e-02  5.9603722221561279e-03  1.9063590293598993e-03  1.6309289926963830e-02  1.4849904629130492e-01  1.8174117372638909e-01  2.6474338270741787e-01  2.1009562247543764e-01  1.4598836980817501e-01  1.3026988701409361e-02  5.3539342892368691e-03  4.0745818779592642e-03  1.5665888281878673e-02  4.5549866529549420e-02  8.1666683044385568e-02  1.8705305586581192e-01  1.5102609415582857e-01  2.0528570863839354e-02  1.8448904764247962e-03  5.2794217928024577e-03  1.5246525257572819e-02  4.8981367059543549e-02  7.8118759201464841e-02  8.5304787106110821e-02  4.4371566394092198e-02  1.4759430305106031e-02  6.2449493703893655e-03  5.5414779681668622e-03  1.0741418996138511e-02  1.3731744641928215e-01  2.1271382706757633e-01  1.9841654979983601e-02  1.4624811781720174e-02  1.3450279081497369e-02  1.2900627081458269e-02  1.2927838151870286e-02  1.3330034726172189e-02  1.5243062091627669e-02  1.8102669330320658e-02  1.2106854849783922e-02  4.3322294842432791e-03  1.1346258762829060e-02  3.7639433468666987e-02  1.4495497909315155e-01  2.3546470592709914e-01  9.5513277313860237e-02  5.9886788418935799e-02  3.9120484452780831e-02  6.5094688089215785e-02  3.0809956791838324e-02  1.5728968694542936e-02  1.3414329857405021e-02  1.5127725918428406e-02  1.2310930861680737e-02  1.3438532779890969e-02  5.0887289573168799e-02  8.4878784730276643e-02  9.1818883957603167e-02  8.7570388992183751e-02  9.8981155310442687e-02  1.0200234812783533e-01  7.0560264802527861e-02  5.1331211594130469e-02  4.5871703289617115e-02  4.5183544971977317e-02  2.7720004707572937e-02  2.2700447