<?xml version="1.0"?>
<VTKFile type="UnstructuredGrid"  version="0.1"  >
<UnstructuredGrid>
<Piece  NumberOfPoints="4855" NumberOfCells="8780">
<Points>
<DataArray  type="Float64"  NumberOfComponents="3"  format="ascii">0.9483880164242298 0.6836931311526558 0  0.9494264999197789 0.6847056440044139 0  0.9494005292759887 0.6847228078606633 0  0.9735520289385229 0.7444444444444445 0  0.9494005292759886 0.8041660810282256 0  0.94942649991978 0.8041832448844759 0  0.9483880175070514 0.8051957566534116 0  3.131175874138137e-16 0.09811450876034808 0  0.06838800723463068 0.1543033514199101 0  0.05161198249294494 0.1948042433465922 0  0.0505735000802211 0.1958167551155251 0  0.05059947072401128 0.1958339189717744 0  0.0505994707240113 0.3152771921393367 0  0.05057350008021998 0.315294355995587 0  0.05161198357913653 0.3163068688507105 0  0.06838800723463068 0.356807759691201 0  3.252606517456513e-16 0.4129966023507631 0  -1.795438797635995e-16 0.4839416311832997 0  0.07083274769489223 0.4605116403870998 0  0.07084991155114129 0.4605376110308903 0  0.07186242331670639 0.4594991286215342 0  0.1696402113702762 0.5 0  0.07186242332008326 0.5405008713818427 0  0.0708499115511413 0.5394623889691096 0  0.07083274769489219 0.5394883596129002 0  -1.925543058334256e-16 0.5160583688167003 0  1.484923295436147e-15 0.5870033976492365 0  0.06838800723463068 0.643192240308799 0  0.05161198249294541 0.6836931322354806 0  0.05057350008022109 0.6847056440044139 0  0.0505994707240113 0.6847228078606633 0  0.0505994707240113 0.8041660810282256 0  0.05057350008021999 0.804183244884476 0  0.05161198249294764 0.8051957566534106 0  0.06838800723463068 0.84569664858009 0  1.485790657174135e-15 0.9018854912396524 0  0 1 0  1 1 0  0.9999999999999987 0.9018854912396523 0  1.000000000000001 0.5870033976492375 0  1 0.5160583688167003 0  0.9291672523051078 0.5394883596129003 0  0.9291500884488585 0.5394623889691117 0  0.9281375755937461 0.5405008724680134 0  0.9281375755937372 0.4594991275319777 0  0.9291500884488586 0.4605376110308884 0  0.9291672523051077 0.4605116403870997 0  1 0.4839416311832997 0  0.9999999999999987 0.4129966023507635 0  0.948388017507054 0.31630686776452 0  0.94942649991978 0.3152943559955871 0  0.9494005292759886 0.3152771921393367 0  0.9735520289385229 0.2555555555555555 0  0.9494005292759888 0.1958339189717744 0  0.9494264999197789 0.1958167551155251 0  0.9483880164208631 0.1948042422604003 0  1.000000000000001 0.09811450876034861 0  1 0 0  0 0 0  0.1958339189717744 0.2950439151684559 0  0.1958167551155252 0.2950179445246672 0  0.3152771921393367 0.2950439151684557 0  0.1948042433481841 0.2960564269357975 0  0.3152943559955858 0.2950179445246651 0  0.1948042422604031 0.2150546830875326 0  0.3163068677645244 0.2960564269373949 0  0.1958167551155251 0.2160931665864439 0  0.4140846558147206 0.2555555555555555 0  0.1958339189717744 0.2160671959426553 0  0.3163068688489276 0.215054683089313 0  0.3152771921393367 0.2160671959426553 0  0.3152943559955858 0.2160931665864459 0  0.5405008724680257 0.3163068688507107 0  0.5572768961235196 0.356807759691201 0  0.5394623889691089 0.3152943559955871 0  0.459499128618165 0.3163068677645201 0  0.5394883596129003 0.3152771921393367 0  0.4605376110308911 0.3152943559955871 0  0.5394883596129001 0.1958339189717744 0  0.4605116403870998 0.3152771921393367 0  0.53946238896911 0.1958167551155251 0  0.4846631400496339 0.2555555555555555 0  0.5405008724680251 0.1948042422604009 0  0.4605116403870998 0.1958339189717744 0  0.5572768961235196 0.1543033514199101 0  0.46053761103089 0.1958167551155251 0  0.4594991286269881 0.1948042433554141 0  0.6847228078606633 0.2950439151684559 0  0.684705644004414 0.2950179445246672 0  0.8041660810282256 0.2950439151684557 0  0.683693131164073 0.2960564280087975 0  0.8041832448844747 0.2950179445246651 0  0.6836931322354718 0.2150546841737125 0  0.8051957566534156 0.2960564269373971 0  0.6847056440044141 0.2160931665864439 0  0.9029735447036096 0.2555555555555555 0  0.6847228078606632 0.2160671959426553 0  0.8051957577274008 0.2150546830997286 0  0.8041660810282256 0.2160671959426553 0  0.8041832448844747 0.2160931665864459 0  0.2960564280235811 0.560751313295155 0  0.3128324516790751 0.6012522041356455 0  0.2950179445246645 0.5597388004400315 0  0.2150546830875235 0.5607513132951615 0  0.2950439151684557 0.5597216365837812 0  0.2160931665864466 0.5597388004400314 0  0.2950439151684558 0.4402783634162188 0  0.2160671959426553 0.5597216365837812 0  0.2950179445246656 0.4402611995599696 0  0.2402186956051895 0.5 0  0.29605642693739 0.439248687791036 0  0.2160671959426553 0.4402783634162189 0  0.3128324516790751 0.3987477958643545 0  0.2160931665864455 0.4402611995599696 0  0.2150546830875296 0.4392486867048446 0  0.1958339189717743 0.7839328040573448 0  0.1958167551155252 0.7839068334135562 0  0.3152771921393367 0.7839328040573447 0  0.1948042422604028 0.7849453169124678 0  0.3152943559955858 0.783906833413554 0  0.1948042433465913 0.7039435730626098 0  0.3163068677645284 0.7849453158262878 0  0.1958167551155251 0.7049820554753328 0  0.4140846558147206 0.7444444444444445 0  0.1958339189717744 0.7049560848315441 0  0.3163068688486237 0.7039435719785058 0  0.3152771921393367 0.7049560848315441 0  0.3152943559955858 0.7049820554753349 0  0.4402783634162188 0.5394883596129003 0  0.4402611995599696 0.5394623889691117 0  0.5597216365837812 0.5394883596129002 0  0.4392486867048468 0.5405008724680237 0  0.5597388004400302 0.5394623889691096 0  0.4392486877998708 0.4594991286270004 0  0.5607513122089726 0.540500871381843 0  0.4402611995599696 0.4605376110308884 0  0.6585291002591651 0.5 0  0.4402783634162188 0.4605116403870998 0  0.5607513121946796 0.45949912863245 0  0.5597216365837812 0.4605116403870998 0  0.5597388004400302 0.4605376110308904 0  0.78494531690701 0.5607513132896949 0  0.8017213405679641 0.6012522041356455 0  0.7839068334135535 0.5597388004400315 0  0.7039435730626069 0.5607513122089671 0  0.7839328040573448 0.5597216365837812 0  0.7049820554753355 0.5597388004400314 0  0.7839328040573448 0.4402783634162188 0  0.7049560848315441 0.5597216365837812 0  0.7839068334135545 0.4402611995599696 0  0.7291075844940784 0.5 0  0.784945315826279 0.4392486877910359 0  0.7049560848315444 0.4402783634162188 0  0.8017213405679641 0.3987477958643545 0  0.7049820554753344 0.4402611995599696 0  0.7039435719764182 0.4392486867048443 0  0.5405008724625655 0.8051957577341393 0  0.5572768961235196 0.84569664858009 0  0.539462388969109 0.804183244884476 0  0.4594991286181648 0.8051957566534091 0  0.5394883596129003 0.8041660810282256 0  0.4605376110308911 0.804183244884476 0  0.5394883596129003 0.6847228078606633 0  0.4605116403870998 0.8041660810282256 0  0.53946238896911 0.6847056440044139 0  0.4846631400496339 0.7444444444444445 0  0.5405008713818347 0.6836931322354802 0  0.4605116403870998 0.6847228078606633 0  0.5572768961235196 0.643192240308799 0  0.46053761103089 0.6847056440044139 0  0.4594991275353449 0.6836931311526599 0  0.6847228078606633 0.7839328040573448 0  0.684705644004414 0.7839068334135562 0  0.8041660810282256 0.7839328040573447 0  0.6836931311493016 0.7849453169124578 0  0.8041832448844747 0.783906833413554 0  0.68369313223548 0.7039435730626096 0  0.805195756653417 0.7849453158262875 0  0.6847056440044141 0.7049820554753328 0  0.9029735447036096 0.7444444444444445 0  0.6847228078606633 0.7049560848315441 0  0.805195757738809 0.7039435719772094 0  0.8041660810282256 0.7049560848315441 0  0.8041832448844747 0.7049820554753349 0  0.9578164230213342 0.6948838683471341 0  0.9645772892192558 0.7062137009141434 0  0.9695236884064815 0.7184451175460498 0  0.972538971146615 0.7312896684428197 0  0.9725389711466151 0.7575992204460691 0  0.9695236884064815 0.7704437713428391 0  0.9645772892192558 0.7826751879747456 0  0.9578164230213342 0.7940050205417549 0  0.01437766570919127 0.09711967848259151 0  0.02854851642641832 0.09974531144948819 0  0.04161535472570586 0.1058251712658871 0  0.05275088139110013 0.1149743244732108 0  0.06125007411586489 0.1266135117968212 0  0.06657482449792251 0.1400058227212122 0  0.06643634307317195 0.1691277076584997 0  0.06071435336153361 0.1829418078690686 0  0.04134737123322858 0.3039103077764334 0  0.03416190609801732 0.2911362521989113 0  0.02925217947541549 0.2773267630846004 0  0.02676106927623143 0.2628837102534819 0  0.02676106927623143 0.2482274008576293 0  0.02925217947541547 0.2337843480265108 0  0.03416190609801727 0.2199748589121999 0  0.04134737123322851 0.2072008033346779 0  0.06071435387356935 0.328169304128914 0  0.06643634320569657 0.3419834039471998 0  0.06657482449792249 0.371105288389899 0  0.06125007411586481 0.3844975993142901 0  0.05275088139109994 0.3961367866379005 0  0.04161535472570563 0.4052859398452242 0  0.02854851642641818 0.411365799661623 0  0.01437766570919127 0.4139914326285196 0  0 0.4697526254167924 0  0 0.455563619650285 0  0 0.4413746138837777 0  0 0.4271856081172704 0  0.06095233986089402 0.4687284952262988 0  0.04995687430503332 0.4753797281664747 0  0.03809234373417287 0.4803165365228644 0  0.02562418374773841 0.4834284730529493 0  0.01283133446055119 0.4846459169037758 0  0.08372485599813187 0.4503967593658507 0  0.09753895276796982 0.4446747697099958 0  0.1123633055586467 0.4427231038764812 0  0.1271876590095525 0.4446747646950606 0  0.1410017577150834 0.45039674967774 0  0.1528641934757506 0.4594991149204779 0  0.161966560724962 0.471361549141524 0  0.1676885480442292 0.4851756468792086 0  0.1676885480443665 0.514824353120279 0  0.1619665607254926 0.528638450857557 0  0.1528641934768762 0.5405008850783964 0  0.1410017577169217 0.5496032503211987 0  0.1271876590121153 0.5553252353042526 0  0.1123633055618306 0.5572768961235188 0  0.09753895277155772 0.5553252302909656 0  0.08372485600180817 0.5496032406362719 0  0.0128313344605512 0.5153540830962242 0  0.0256241837477384 0.5165715269470507 0  0.03809234373417282 0.5196834634771356 0  0.04995687430503334 0.5246202718335253 0  0.06095233986089401
[...]
<PointData  Scalars="$\epsilon_{VM}$"> 
<DataArray  type="Float64"  Name="$\epsilon_{VM}$"  format="ascii">1.5457780515397123e-02  3.3921565803006759e-02  1.5612132875032870e-02  1.3150187504408406e-02  1.1273570735992972e-02  2.5321029520322499e-02  9.8034633689320031e-03  -1.6344571740958937e-05  9.9129835970739131e-03  9.1146311953227300e-03  2.4220371141383978e-02  1.0981542198968658e-02  1.5353051691191118e-02  3.3776825462262336e-02  1.4692049020176302e-02  2.1322413968717924e-03  3.5372480481006754e-06  6.4083314897543693e-07  8.2876034707046669e-05  9.1096896131017248e-05  8.6142950483450155e-05  1.5520524927600143e-01  1.6236875237244489e-04  1.2021507128764078e-04  8.4611247984231206e-05  1.0468653613965261e-06  1.4249755118551582e-05  2.3078207854915342e-03  1.5127631871237257e-02  3.0423209010214509e-02  1.5018827335834888e-02  1.1070548466108547e-02  2.3616717949876333e-02  9.4511002934481812e-03  9.5408519713594576e-03  3.0025481019920714e-05  7.2247916691759871e-04  7.3788148453680339e-04  -3.1455498577881439e-06  -1.3640343330784326e-06  6.5159844792335550e-07  4.9254493051526947e-05  -1.9688221103425210e-05  8.3259969109476543e-05  1.0498326598985928e-04  2.1729336752555564e-04  8.1238360680765227e-05  1.1538878089102539e-06  6.9115917025369839e-06  1.4567709854820934e-02  3.1931995035322201e-02  1.4895912692235310e-02  1.3024186846558443e-02  1.1115836591122955e-02  2.9532129972906076e-02  9.1807794829129267e-03  4.0870318867700536e-06  7.2585008476748957e-04  8.2511954238878018e-04  3.8391936643045639e-02  7.0818970238320178e-02  1.6582055840783871e-02  6.9501909546378318e-02  2.3447289591402225e-02  2.7353523633678900e-03  2.6717729657992621e-02  1.1935953516117666e-03  1.0274055239260513e-01  1.4607117980944965e-03  3.0861884699695122e-03  2.1202178512418710e-03  -3.6021325291207872e-04  1.9842669190428753e-02  7.8437078519509804e-03  5.0132810096205536e-02  2.0417102480892943e-02  2.4451883163175765e-02  5.4904332148900586e-02  8.5692415506837174e-03  2.3850867814511623e-02  3.8395864149592916e-02  1.2807010855078080e-02  3.0354311884702619e-03  9.6131228129235878e-03  6.8229214615631847e-02  3.0525400858587116e-02  -1.8162894921521609e-04  1.7092614179999310e-02  2.9769460218888252e-02  3.9206738333554245e-02  2.5792133531813831e-02  5.9700098960015172e-02  3.3163599220061598e-03  6.8559449438694561e-02  -1.4400827806021958e-03  6.6120761550711046e-02  2.0259310728657685e-03  2.6483862452256206e-03  1.8393764095504482e-03  -3.3331191147487738e-04  9.6862016135196537e-03  1.1255876199111016e-02  3.7155765944667858e-02  1.9569918256116103e-02  1.3727035710106026e-02  5.5005977758033085e-02  1.3695907155381831e-02  2.7115795592344109e-02  3.2420091336672202e-02  3.1948963264774498e-02  1.0001564099157695e-02  2.9042672548492077e-02  1.0949259199467492e-02  6.0325250587332492e-02  2.1968519682972056e-02  1.5500730284995685e-03  1.0230616494900000e-03  1.8233606019307726e-03  2.6627574772790192e-03  -1.0853152394766177e-03  7.0292827646563111e-02  3.3713911255895458e-03  6.3756759654242101e-02  1.1983115232273012e-01  3.7076128843776181e-02  2.6479212541186747e-02  1.6689507606378075e-02  2.5683705754218390e-02  1.5295069599895454e-02  1.7018571629902227e-02  1.4974520802596732e-02  2.8432015009408222e-02  1.5523538436672354e-02  2.8272661022907229e-02  2.7734333180849544e-02  1.1369585596832123e-02  1.2854591486447878e-01  1.5417674769720257e-02  2.9171689934572344e-02  1.5004857041544716e-02  1.4024025657958610e-02  2.0309526101953777e-02  7.7155916735489362e-03  5.6651491396275164e-02  8.9713668132548781e-03  2.7686527520162249e-02  4.3166940700833670e-02  2.7881278456226330e-02  1.3472457646442490e-02  4.5044087873332132e-02  2.3696989478011670e-02  1.9456093315248130e-02  1.5119972952763835e-02  7.1516979368581764e-03  2.9144530244219063e-02  1.0220015823092753e-02  1.1508582901708772e-03  6.1133192562647057e-02  2.2444919953684129e-02  5.6961566302757595e-03  7.6748670165761807e-03  3.7663524072836740e-02  2.4011924998168396e-02  8.5435845462984664e-03  5.1674625034729416e-02  1.5624111929335003e-02  1.8652541091547514e-02  2.3379407007553331e-02  7.9244286938052050e-03  6.4531361742768509e-02  1.8416079782835472e-02  1.8448314869281054e-03  -1.4591916585002004e-03  1.8273443497441551e-03  3.3154038561281733e-03  1.7852056704964056e-03  2.5932762278363514e-02  2.7644208110230283e-03  2.3601876373864000e-02  6.4476479965686131e-02  1.6532146820525149e-02  6.5529584749326228e-02  3.7323850880154059e-02  6.9285927316306589e-02  1.3384291685966483e-02  1.3750699932206080e-02  1.3712094677349244e-02  1.3897035438115360e-02  1.2718439639037640e-02  1.2318405977227094e-02  1.1623432028171815e-02  1.0711600791272374e-02  2.1758227600867461e-05  4.6065561110210189e-04  1.4925128814995683e-03  3.4663449229253556e-03  6.7419458664977408e-03  8.5802891516503447e-03  5.3026632077212291e-03  3.9553230899211107e-03  1.3700597628313264e-02  1.4299225467306170e-02  1.3514778914369611e-02  1.3715872833518000e-02  1.3035475029785948e-02  1.2299189074117480e-02  1.1782517336530070e-02  1.0917651202352283e-02  8.2886834857499956e-03  3.3903123287833681e-03  1.5849143440905317e-03  2.8244160498396958e-04  3.4409069189478763e-04  2.1655493214318492e-04  3.9088406170508254e-05  -1.8234496986566083e-06  1.6064767905616431e-06  -3.1161889468565808e-07  2.7184225311866270e-06  8.8763145848937108e-06  3.1551916429746491e-05  9.3475537898609371e-06  2.3688862200057749e-06  7.0634355353929903e-07  -9.2595442499073511e-07  4.4574459685417538e-04  3.1436120546171278e-04  1.5425081712709405e-04  3.3061213565510725e-03  7.9633081870403976e-03  2.5367574999899310e-02  7.2015716350719558e-02  1.5543781729108300e-01  1.3504958647515514e-01  9.8912240950287514e-02  2.4929114467723917e-02  8.1262813213092040e-03  3.2527949253754020e-03  1.4465959136342364e-04  4.1020223287245274e-04  3.7712491046049319e-04  -9.2648865621649122e-07  1.4322645344827871e-06  -2.2627227878979338e-06  1.3513380405973656e-05  1.4200736926679446e-05  5.7363524772410513e-06  4.5118330199312324e-06  -1.4035044771084774e-06  1.1334670655793935e-06  1.7682077181041771e-05  5.4878198518613744e-05  1.8606210551575143e-04  3.6589568094081223e-04  2.1120261198291870e-04  1.4924282939789608e-03  2.7880010888650616e-03  8.3617765175255238e-03  1.0470015322199985e-02  1.1796257130279344e-02  1.2341733032273714e-02  1.3329921072850515e-02  1.3481736477582228e-02  1.3907283439967021e-02  1.4169962340751015e-02  1.3676756424792184e-02  3.6274860057003209e-03  5.3434702945365248e-03  9.2240157446253825e-03  6.6902295540342835e-03  3.4947447913771940e-03  1.5547790147717958e-03  3.2005634092209366e-04  1.4106369840352598e-04  7.0856833649720783e-04  5.8589673546481690e-04  4.2507142938787395e-04  2.1680454707680906e-04  7.0602184326490472e-05  2.6132442328709430e-05  8.8354601473493433e-04  1.1410458278899604e-03  1.4500146129140952e-03  1.7401681259419351e-03  1.9179145474011025e-03  1.9758325157465668e-03  1.9110542125566590e-03  1.7329688251499968e-03  1.4704742926582536e-03  1.1855813130226896e-03  8.8946323232077672e-04  7.1134969776328303e-04  6.3631405080981222e-04  7.1919925186684868e-04  8.4829417558824759e-04  9.7635268657657228e-04  1.0671423362974065e-03  1.1140704976242283e-03  1.1163851017697338e-03  1.0973328990726316e-03  1.1021423490701163e-03  1.2320712625128428e-03  1.5478419648058137e-03  2.0394392115422226e-03  2.6039885088726144e-03  3.1460753872701607e-03  3.5944866029642471e-03  3.8604319396445632e-03  3.8755143592819302e-03  3.7310157354248732e-03  3.4727086811752322e-03  3.1689700937259481e-03  2.9913330240941035e-03  3.0056151011579857e-03  3.1621669088560331e-03  3.4468811501406956e-03  3.7645254759711730e-03  3.9236486425901730e-03  3.8481976780217332e-03  3.5651738420345294e-03  3.1606073752061602e-03  2.6179058527347064e-03  1.9697135745254243e-03  1.5863316142197953e-03  1.2207378686007245e-03  1.1219310821031165e-03  1.0944035597829625e-03  1.1129518521900965e-03  1.1114678901852301e-03  1.0664530667833737e-03  9.7048206938415082e-04  8.4957325459716199e-04  7.0754766637273173e-04  6.4702540863972706e-04  6.9066143427695768e-04  9.1509033107642964e-04  1.1873223721921881e-03  1.4653179552295427e-03  1.7441459645694392e-03  1.9101092004751221e-03  1.9755137019684481e-03  1.9148407318833210e-03  1.7371211045294356e-03  1.4690450102201786e-03  1.1477263999332130e-03  8.8083823630970151e-04  7.3435738918980383e-05  1.0400619291035848e-04  1.7826492439625236e-04  4.3269238029483147e-04  5.9868313219904666e-04  6.8595399183223266e-04  3.1714106485069374e-05  4.5073076995234850e-04  1.5424605660616516e-03  3.7628071328536824e-03  6.6525000988038674e-03  9.3378922138520407e-03  9.4262999529603573e-03  5.1971269959012649e-03  4.0633639562948414e-03  8.2819577205691889e-03  3.2340101956374887e-03  2.3251602687494109e-03  1.6048647756438260e-03  2.6967134050508385e-04  4.1743878003533695e-04  1.8307733200809956e-04  3.2577715137327289e-05  4.6612578271771952e-06  7.4826740201379458e-07  2.3513578447557745e-06  3.9120417212498459e-06  5.4034752484773598e-06  3.9067514467069373e-05  4.0719429433551884e-06  7.0500782528722897e-06  3.2220839537232714e-06  7.6892126823378779e-07  4.4705620283054504e-04  2.5231459593760337e-04  4.5488412898909709e-04  2.6434190392595216e-03  7.9704427718504476e-03  2.5200310312480097e-02  9.8824059370843334e-02  1.1644741572027380e-01  1.5176093174553418e-01  1.7240669137297060e-01  8.0231608624282705e-02  2.5706406125528089e-02  7.6992777337651329e-03  2.6826046145488991e-03  3.0241659857611702e-04  6.3604386863843384e-04  3.1026429546493755e-04  8.7623535549841134e-07  3.6423682025105700e-06  5.5620466513319685e-06  7.2297611375379139e-06  2.8253423814868849e-05  1.1256672765684944e-06  5.5779772832408272e-06  3.3901117517138911e-06  1.4084427741634315e-06  8.2972077614196782e-06  2.2806209136251595e-05  2.2683633661827688e-04  2.9427795525051363e-04  5.0939569684557847e-04  1.4527836522662998e-03  2.0837740769339835e-03  4.0111861255207508e-03  7.8648308531299935e-03  1.3287689011547529e-02  1.4297587257262673e-02  1.3800853255113269e-02  1.4258884351279595e-02  1.0598516962786282e-02  1.1353112493283069e-02  1.2128332309429149e-02  1.3150286374892175e-02  4.6650378337660392e-03  5.0662655574712084e-03  9.6401970171112964e-03  9.5091369698063980e-03  6.4316946927320288e-03  3.6409593249003172e-03  1.6846177089576767e-03  4.5788077428924326e-04  2.1571896832566097e-05  7.1282319539770671e-04  5.5844331596849957e-04  4.7117273939742237e-04  1.9078084749480791e-04  1.0691604105089300e-04  7.3890316545951085e-05  6.8096189479046080e-04  8.6852501738277381e-04  1.4911969439038515e-03  1.9073910370793902e-03  1.8965307946485583e-03  2.0108782496613218e-03  1.9290214651196420e-03  1.7513933178665061e-03  1.4900586747741233e-03  1.2049719367643529e-03  9.2337334150484926e-04  7.1040642396512799e-04  6.2972568712474808e-04  7.1448072217073953e-04  8.3195192729879476e-04  9.5705970936499232e-04  1.0438048502278661e-03  1.1015108397813625e-03  1.0954983761662217e-03  1.0754075374795884e-03  1.0954109201261279e-03  1.2339924246795220e-03  1.5628900033294673e-03  2.0098754308637465e-03  2.5856661544223672e-03  3.0933383603817433e-03  3.5933756135233140e-03  3.8210337513904760e-03  3.8929847566833119e-03  3.7081906722151821e-03  3.4342047321257183e-03  3.1355295594286850e-03  2.9732429950066271e-03  2.9848050909801293e-03  3.1012924365404993e-03  3.4318829223326432e-03  3.7325008099429874e-03  3.8795402177490561e-03  3.8362799532064523e-03  3.6061146722170799e-03  3.1530410190318335e-03  2.5959501123519585e-03  2.0266352728040629e-03  1.5588132404703427e-03  1.2470389883718330e-03  1.0918886555615469e-03  1.0769752590503319e-03  1.0966223586770410e-03  1.1098161781827693e-03  1.0514869305546998e-03  9.6195130960155387e-04  8.3803440420177620e-04  7.1244417584730927e-04  6.4703043633923378e-04  6.8672963738540386e-04  9.1567740299819118e-04  1.1859700846935362e-03  1.4799652666895938e-03  1.7430093491336666e-03  1.9183974415135513e-03  1.9900246843489724e-03  1.9196676831001746e-03  1.7350792535435124e-03  1.4571995124350902e-03  1.1428111057182008e-03  8.8517944923511866e-04  7.7827110605473902e-05  1.3251890199497449e-04  1.4064414692329386e-04  4.4168113785546850e-04  4.8805650048737968e-04  7.3560295340666679e-04  1.8978527007519785e-02  1.4692689104103093e-02  1.3040274404768099e-02  1.2542293409986811e-02  1.2344962883679859e-02  1.2400915295327743e-02  1.2475722544806988e-02  1.3388801324234279e-02  5.6513450109380976e-02  2.8631411797095531e-02  1.0221298986882368e-02  3.4156320049326251e-03  6.5972171238562020e-03  1.8195094677947516e-02  5.3382913361551342e-02  5.8721467961723284e-02  7.1816333253477305e-02  6.6707652950481255e-02  2.2609948681252087e-02  9.1382901403707448e-03  2.8568157093178544e-03  2.1250455632610783e-03  4.5117047707826175e-03  4.4522120208491433e-03  3.7078761876805331e-03  1.3336512661808375e-01  1.0272142445220388e-01  4.9054845814295367e-02  1.1387424049749524e-02  3.7309113753239836e-03  4.0636916729441547e-03  1.4071770917611665e-02  2.1216544534703879e-02  5.5908489692895478e-03  8.6752900379301178e-03  1.3391628942626787e-02  1.9249417621491547e-02  3.4090583795614519e-02  1.1337730951162311e-02  3.1310947369549390e-02  4.8635458243614801e-02  1.3245585838020037e-03  8.4128431163091951e-04  7.7092378180484956e-04  8.1203405023841965e-04  7.5441817086619768e-04  8.2210914463952671e-04  8.1105350555693892e-04  1.3312263907623088e-03  8.6813755351148273e-03  4.8025484138656711e-03  1.1100718031829540e-02  1.4374455022773123e-02  2.2794695169523031e-02  2.2362566769855312e-02  1.4523649417342892e-02  1.5399274592487992e-02  1.4725766313601110e-02  2.1629550174843575e-02  2.1447058767845268e-02  1.5617735551731361e-02  1.0478392367645157e-02  7.8502363691203090e-03  5.4517534993487778e-03  9.0446032778676404e-03  1.8344589745861100e-02  1.7623776501851721e-02  1.5295073268385469e-02  1.3783990838572896e-02  1.2174372629123305e-02  1.1507762416672496e-02  9.9540962983666933e-03  8.2841586113082868e-03  1.3598660278414897e-02  1.5971040370400764e-02  1.8318761400918988e-02  1.9823684077679204e-02  5.7354229851868535e-03  9.2446906409710452e-03  1.0793948867068800e-02  1.2186524017566699e-02  7.4516660096929282e-02  7.8936213500309937e-02  7.5400053465328257e-02  9.4301629003507498e-02  4.6213554098845658e-02  3.0152103486933330e-02  1.2557332901634143e-02  8.1934543205790106e-03  3.5239099555473817e-03  8.7649146511562697e-04  5.3309626509759800e-04  1.2801901147963125e-03  3.3581394320844750e-03  8.1397155071105797e-03  1.2483319302929034e-02  2.3442996874895584e-02  1.2909946452100267e-02  1.2872561836823443e-02  1.2192573451915333e-02  1.2389782786677777e-02  1.2601720622603179e-02  1.3262283298803072e-02  1.4358957029371695e-02  1.7937918345477429e-02  2.2116654387013365e-02  1.3542383535530975e-02  5.2961891795542150e-03  5.0045785265587428e-03  1.1214007314019584e-02  5.0050627249490151e-02  9.2276637412559523e-02  1.2893890275913017e-01  1.1099750822491357e-01  5.9047115199426972e-02  3.2914227650170366e-02  1.3478520986807584e-02  2.1374666454022247e-02  2.1305395991550263e-02  1.3716427663117384e-02  9.2838237380538126e-03  5.1945178608511092e-03  8.0835727649026259e-02  4.5075353912938647e-02  1.8689958983535301e-02  7.5433703891705723e-03  3.9467364376836542e-03  1.0173819205888028e-02  2.8713401591196362e-02  5.4632178085533153e-02  3.7546597473228226e-03  4.5226759979033106e-03  4.1896965302068790e-03  2.1462518924289355e-03  3.1372467511757906e-03  8.6823555118940229e-03  2.9173648864407362e-02  5.0544633078129286e-02  1.3007751880730271e-03  8.7418791911757481e-04  8.0241260667438961e-04  7.9461241455721320e-04  7.5904964263785290e-04  7.7760969387139227e-04  9.0247766919077977e-04  1.3089673399816267e-03  5.9458597613825347e-03  7.3416805919414739e-03  1.0875753461354387e-02  1.0573926957169010e-02  1.8199633161789866e-02  2.6116122342237990e-02  2.2786103997864557e-02  2.7728098421068843e-02  3.7969599432090870e-02  8.6443596667432052e-02  4.8424053868293494e-02  2.7236661192605923e-02  1.1743845456333184e-02  7.7918634722868490e-03  5.8430045440775362e-03  1.0081840505253532e-02  1.3854686440894541e-02  1.5802043299796537e-02  1.7506268206785035e-02  1.8699710594563750e-02  1.9826946663629497e-02  1.8299611903752837e-02  1.6350062359790175e-02  1.4023331572908150e-02  3.6096392452485769e-02  3.0951708165549711e-02  2.6601987632003939e-02  2.6330757825403461e-02  2.2478793706469033e-02  2.7382583404650909e-02  3.1559954742442525e-02  3.4440020119387967e-02  7.0866685945708162e-03  5.3592100139951875e-03  9.9238545623637625e-03  4.2481189017953801e-03  7.0925042268099687e-03  1.2971514000633877e-02  2.2663244601696112e-02  4.8533761962733839e-02  8.2371677389583758e-02  3.7709603134711264e-02  2.4740673391569816e-02  2.7180975109233323e-02  2.3017740498827474e-02  1.6962502836804328e-02  1.2335128725820125e-02  1.0324217346131623e-02  1.3194901914761674e-03  9.3609196505086030e-04  7.9371546462370850e-04  7.3775541138009165e-04  8.0288420695623927e-04  7.9430622744864731e-04  7.8864215663303433e-04  1.4132617632683251e-03  3.6582308518948526e-03  4.7565048038334017e-03  4.1926681155183051e-03  2.1560321826803253e-03  2.9770005922683000e-03  8.6879481597968884e-03  2.3003678713875465e-02  5.8378005351471834e-02  7.3492793452141394e-02  6.8468251002156075e-02  5.2955219678934233e-02  1.7590069802359432e-02  6.6499509401236022e-03  4.2263491932929614e-03  1.0576135083104071e-02  2.8611812167308744e-02  5.8396080937803324e-02  6.9723831707283759e-02  1.8517100018464776e-02  1.7474216123796030e-02  2.2915628879791018e-02  2.2116040526203227e-02  1.3785766152572817e-02  9.4633622818730573e-03  5.4698821431087346e-03  2.1125290370845914e-02  1.2365080191823379e-02  4.5396252153104910e-03  3.4044676361013287e-03  1.1612149310881425e-02  3.8252585823114388e-02  1.2216342067524244e-01  1.0972335374500661e-01  1.3123761246585651e-02  1.2367309183624532e-02  1.2058741461290119e-02  1.2168548429887370e-02  1.2638044966558144e-02  1.3148707624556319e-02  1.4715469027659623e-02  1.8155289035116276e-02  1.1570231226331251e-02  1.0768954855079315e-02  9.6931935281975457e-03  9.5107203553513996e-03  9.5257743978575237e-03  9.9874107677791653e-03  1.0407935658042612e-02  1.1957196455382846e-02  2.9950003905151353e-02  2.4568339510680267e-02  1.2838344858124158e-02  5.8389183654978943e-03  2.5021246240617867e-03  1.3170695462272175e-02  5.9568233835609434e-02  8.8021677024365114e-02  1.3270651377160936e-01  1.0075339678024448e-01  5.9374150748805525e-02  1.1313581823033242e-02  4.3994999303697156e-03  4.8780568637653504e-03  1.3086813320782077e-02  2.4295234808293133e-02  3.0073843824700332e-02  8.9386862260303318e-02  6.1497083647691381e-02  1.4975550231996208e-02  2.9380642376929727e-03  5.5200556467899283e-03  1.2628276549643054e-02  2.5381105268933387e-02  2.9577914203625200e-02  3.0561574736471243e-02  2.4119831073731487e-02  1.2903235772821204e-02  5.1819426117669307e-03  4.1172452080523881e-03  1.0639234232275850e-02  5.7120716071834256e-02  1.0249970506460143e-01  1.1777238271773223e-02  1.0548155375030616e-02  9.8619200907700110e-03  9.4774865303987790e-03  9.4250214374313173e-03  9.8195627974443610e-03  1.0597581906770678e-02  1.1348222689583607e-02  1.1047570156259436e-02  4.3302430165770445e-03  1.2655242578525178e-02  2.1748641234262289e-02  6.0893729838529073e-02  8.1668268608790506e-02  3.4298376508321682e-02  2.8424379510837101e-02  2.3238749086782702e-02  2.4879459827207833e-02  1.6913168777972613e-02  1.2375728954805256e-02  9.6090427898207747e-03  1.1009265111816120e-02  7.4293431835526008e-03  5.7376056705964644e-03  2.4984316755732278e-02  2.8260721865492427e-02  2.9117758573545472e-02  3.4336342601580673e-02  3.3980135714956457e-02  3.2668152036809887e-02  2.8534938034623300e-02  2.7016218971562464e-02  1.7102910675197359e-02  1.8150625259568960e-02  1.4713971574013857e-02  1.430