<?xml version="1.0"?>
<VTKFile type="UnstructuredGrid"  version="0.1"  >
<UnstructuredGrid>
<Piece  NumberOfPoints="4855" NumberOfCells="8780">
<Points>
<DataArray  type="Float64"  NumberOfComponents="3"  format="ascii">0.9483880164242298 0.6836931311526558 0  0.9494264999197789 0.6847056440044139 0  0.9494005292759887 0.6847228078606633 0  0.9735520289385229 0.7444444444444445 0  0.9494005292759886 0.8041660810282256 0  0.94942649991978 0.8041832448844759 0  0.9483880175070514 0.8051957566534116 0  3.131175874138137e-16 0.09811450876034808 0  0.06838800723463068 0.1543033514199101 0  0.05161198249294494 0.1948042433465922 0  0.0505735000802211 0.1958167551155251 0  0.05059947072401128 0.1958339189717744 0  0.0505994707240113 0.3152771921393367 0  0.05057350008021998 0.315294355995587 0  0.05161198357913653 0.3163068688507105 0  0.06838800723463068 0.356807759691201 0  3.252606517456513e-16 0.4129966023507631 0  -1.795438797635995e-16 0.4839416311832997 0  0.07083274769489223 0.4605116403870998 0  0.07084991155114129 0.4605376110308903 0  0.07186242331670639 0.4594991286215342 0  0.1696402113702762 0.5 0  0.07186242332008326 0.5405008713818427 0  0.0708499115511413 0.5394623889691096 0  0.07083274769489219 0.5394883596129002 0  -1.925543058334256e-16 0.5160583688167003 0  1.484923295436147e-15 0.5870033976492365 0  0.06838800723463068 0.643192240308799 0  0.05161198249294541 0.6836931322354806 0  0.05057350008022109 0.6847056440044139 0  0.0505994707240113 0.6847228078606633 0  0.0505994707240113 0.8041660810282256 0  0.05057350008021999 0.804183244884476 0  0.05161198249294764 0.8051957566534106 0  0.06838800723463068 0.84569664858009 0  1.485790657174135e-15 0.9018854912396524 0  0 1 0  1 1 0  0.9999999999999987 0.9018854912396523 0  1.000000000000001 0.5870033976492375 0  1 0.5160583688167003 0  0.9291672523051078 0.5394883596129003 0  0.9291500884488585 0.5394623889691117 0  0.9281375755937461 0.5405008724680134 0  0.9281375755937372 0.4594991275319777 0  0.9291500884488586 0.4605376110308884 0  0.9291672523051077 0.4605116403870997 0  1 0.4839416311832997 0  0.9999999999999987 0.4129966023507635 0  0.948388017507054 0.31630686776452 0  0.94942649991978 0.3152943559955871 0  0.9494005292759886 0.3152771921393367 0  0.9735520289385229 0.2555555555555555 0  0.9494005292759888 0.1958339189717744 0  0.9494264999197789 0.1958167551155251 0  0.9483880164208631 0.1948042422604003 0  1.000000000000001 0.09811450876034861 0  1 0 0  0 0 0  0.1958339189717744 0.2950439151684559 0  0.1958167551155252 0.2950179445246672 0  0.3152771921393367 0.2950439151684557 0  0.1948042433481841 0.2960564269357975 0  0.3152943559955858 0.2950179445246651 0  0.1948042422604031 0.2150546830875326 0  0.3163068677645244 0.2960564269373949 0  0.1958167551155251 0.2160931665864439 0  0.4140846558147206 0.2555555555555555 0  0.1958339189717744 0.2160671959426553 0  0.3163068688489276 0.215054683089313 0  0.3152771921393367 0.2160671959426553 0  0.3152943559955858 0.2160931665864459 0  0.5405008724680257 0.3163068688507107 0  0.5572768961235196 0.356807759691201 0  0.5394623889691089 0.3152943559955871 0  0.459499128618165 0.3163068677645201 0  0.5394883596129003 0.3152771921393367 0  0.4605376110308911 0.3152943559955871 0  0.5394883596129001 0.1958339189717744 0  0.4605116403870998 0.3152771921393367 0  0.53946238896911 0.1958167551155251 0  0.4846631400496339 0.2555555555555555 0  0.5405008724680251 0.1948042422604009 0  0.4605116403870998 0.1958339189717744 0  0.5572768961235196 0.1543033514199101 0  0.46053761103089 0.1958167551155251 0  0.4594991286269881 0.1948042433554141 0  0.6847228078606633 0.2950439151684559 0  0.684705644004414 0.2950179445246672 0  0.8041660810282256 0.2950439151684557 0  0.683693131164073 0.2960564280087975 0  0.8041832448844747 0.2950179445246651 0  0.6836931322354718 0.2150546841737125 0  0.8051957566534156 0.2960564269373971 0  0.6847056440044141 0.2160931665864439 0  0.9029735447036096 0.2555555555555555 0  0.6847228078606632 0.2160671959426553 0  0.8051957577274008 0.2150546830997286 0  0.8041660810282256 0.2160671959426553 0  0.8041832448844747 0.2160931665864459 0  0.2960564280235811 0.560751313295155 0  0.3128324516790751 0.6012522041356455 0  0.2950179445246645 0.5597388004400315 0  0.2150546830875235 0.5607513132951615 0  0.2950439151684557 0.5597216365837812 0  0.2160931665864466 0.5597388004400314 0  0.2950439151684558 0.4402783634162188 0  0.2160671959426553 0.5597216365837812 0  0.2950179445246656 0.4402611995599696 0  0.2402186956051895 0.5 0  0.29605642693739 0.439248687791036 0  0.2160671959426553 0.4402783634162189 0  0.3128324516790751 0.3987477958643545 0  0.2160931665864455 0.4402611995599696 0  0.2150546830875296 0.4392486867048446 0  0.1958339189717743 0.7839328040573448 0  0.1958167551155252 0.7839068334135562 0  0.3152771921393367 0.7839328040573447 0  0.1948042422604028 0.7849453169124678 0  0.3152943559955858 0.783906833413554 0  0.1948042433465913 0.7039435730626098 0  0.3163068677645284 0.7849453158262878 0  0.1958167551155251 0.7049820554753328 0  0.4140846558147206 0.7444444444444445 0  0.1958339189717744 0.7049560848315441 0  0.3163068688486237 0.7039435719785058 0  0.3152771921393367 0.7049560848315441 0  0.3152943559955858 0.7049820554753349 0  0.4402783634162188 0.5394883596129003 0  0.4402611995599696 0.5394623889691117 0  0.5597216365837812 0.5394883596129002 0  0.4392486867048468 0.5405008724680237 0  0.5597388004400302 0.5394623889691096 0  0.4392486877998708 0.4594991286270004 0  0.5607513122089726 0.540500871381843 0  0.4402611995599696 0.4605376110308884 0  0.6585291002591651 0.5 0  0.4402783634162188 0.4605116403870998 0  0.5607513121946796 0.45949912863245 0  0.5597216365837812 0.4605116403870998 0  0.5597388004400302 0.4605376110308904 0  0.78494531690701 0.5607513132896949 0  0.8017213405679641 0.6012522041356455 0  0.7839068334135535 0.5597388004400315 0  0.7039435730626069 0.5607513122089671 0  0.7839328040573448 0.5597216365837812 0  0.7049820554753355 0.5597388004400314 0  0.7839328040573448 0.4402783634162188 0  0.7049560848315441 0.5597216365837812 0  0.7839068334135545 0.4402611995599696 0  0.7291075844940784 0.5 0  0.784945315826279 0.4392486877910359 0  0.7049560848315444 0.4402783634162188 0  0.8017213405679641 0.3987477958643545 0  0.7049820554753344 0.4402611995599696 0  0.7039435719764182 0.4392486867048443 0  0.5405008724625655 0.8051957577341393 0  0.5572768961235196 0.84569664858009 0  0.539462388969109 0.804183244884476 0  0.4594991286181648 0.8051957566534091 0  0.5394883596129003 0.8041660810282256 0  0.4605376110308911 0.804183244884476 0  0.5394883596129003 0.6847228078606633 0  0.4605116403870998 0.8041660810282256 0  0.53946238896911 0.6847056440044139 0  0.4846631400496339 0.7444444444444445 0  0.5405008713818347 0.6836931322354802 0  0.4605116403870998 0.6847228078606633 0  0.5572768961235196 0.643192240308799 0  0.46053761103089 0.6847056440044139 0  0.4594991275353449 0.6836931311526599 0  0.6847228078606633 0.7839328040573448 0  0.684705644004414 0.7839068334135562 0  0.8041660810282256 0.7839328040573447 0  0.6836931311493016 0.7849453169124578 0  0.8041832448844747 0.783906833413554 0  0.68369313223548 0.7039435730626096 0  0.805195756653417 0.7849453158262875 0  0.6847056440044141 0.7049820554753328 0  0.9029735447036096 0.7444444444444445 0  0.6847228078606633 0.7049560848315441 0  0.805195757738809 0.7039435719772094 0  0.8041660810282256 0.7049560848315441 0  0.8041832448844747 0.7049820554753349 0  0.9578164230213342 0.6948838683471341 0  0.9645772892192558 0.7062137009141434 0  0.9695236884064815 0.7184451175460498 0  0.972538971146615 0.7312896684428197 0  0.9725389711466151 0.7575992204460691 0  0.9695236884064815 0.7704437713428391 0  0.9645772892192558 0.7826751879747456 0  0.9578164230213342 0.7940050205417549 0  0.01437766570919127 0.09711967848259151 0  0.02854851642641832 0.09974531144948819 0  0.04161535472570586 0.1058251712658871 0  0.05275088139110013 0.1149743244732108 0  0.06125007411586489 0.1266135117968212 0  0.06657482449792251 0.1400058227212122 0  0.06643634307317195 0.1691277076584997 0  0.06071435336153361 0.1829418078690686 0  0.04134737123322858 0.3039103077764334 0  0.03416190609801732 0.2911362521989113 0  0.02925217947541549 0.2773267630846004 0  0.02676106927623143 0.2628837102534819 0  0.02676106927623143 0.2482274008576293 0  0.02925217947541547 0.2337843480265108 0  0.03416190609801727 0.2199748589121999 0  0.04134737123322851 0.2072008033346779 0  0.06071435387356935 0.328169304128914 0  0.06643634320569657 0.3419834039471998 0  0.06657482449792249 0.371105288389899 0  0.06125007411586481 0.3844975993142901 0  0.05275088139109994 0.3961367866379005 0  0.04161535472570563 0.4052859398452242 0  0.02854851642641818 0.411365799661623 0  0.01437766570919127 0.4139914326285196 0  0 0.4697526254167924 0  0 0.455563619650285 0  0 0.4413746138837777 0  0 0.4271856081172704 0  0.06095233986089402 0.4687284952262988 0  0.04995687430503332 0.4753797281664747 0  0.03809234373417287 0.4803165365228644 0  0.02562418374773841 0.4834284730529493 0  0.01283133446055119 0.4846459169037758 0  0.08372485599813187 0.4503967593658507 0  0.09753895276796982 0.4446747697099958 0  0.1123633055586467 0.4427231038764812 0  0.1271876590095525 0.4446747646950606 0  0.1410017577150834 0.45039674967774 0  0.1528641934757506 0.4594991149204779 0  0.161966560724962 0.471361549141524 0  0.1676885480442292 0.4851756468792086 0  0.1676885480443665 0.514824353120279 0  0.1619665607254926 0.528638450857557 0  0.1528641934768762 0.5405008850783964 0  0.1410017577169217 0.5496032503211987 0  0.1271876590121153 0.5553252353042526 0  0.1123633055618306 0.5572768961235188 0  0.09753895277155772 0.5553252302909656 0  0.08372485600180817 0.5496032406362719 0  0.0128313344605512 0.5153540830962242 0  0.0256241837477384 0.5165715269470507 0  0.03809234373417282 0.5196834634771356 0  0.04995687430503334 0.5246202718335253 0  0.06095233986089401
[...]
<PointData  Scalars="$\epsilon$"> 
<DataArray  type="Float64"  Name="$\epsilon$"  format="ascii">1.6777829159333450e-02  5.9781599284659044e-02  2.3489373063836430e-02  1.0953981809641446e-02  7.8440536773063561e-04  2.4728302056216928e-02  1.3414855297832130e-05  6.2354073077876134e-07  7.3302582701237462e-07  -3.8349703473594111e-06  2.2285739722300548e-02  2.8007081198050415e-04  2.4311692919672011e-02  6.6397597297078809e-02  1.2196867352691793e-02  1.1488588037003252e-06  6.2350771166081155e-07  6.2353670843278980e-07  6.2354778482162127e-07  5.5609572285582399e-07  7.5841393236557153e-07  2.3955326553574127e-01  6.6249719973161752e-07  6.0683292833699891e-07  6.1799010649318743e-07  6.2353620343069537e-07  6.2349531743624049e-07  1.9435750472981698e-05  1.5007612376014529e-02  5.8760377378766923e-02  2.3030904804278315e-02  6.1997313533020495e-04  1.8823314738897621e-02  1.4275473899920128e-05  9.0290965445726062e-07  6.2353837755962474e-07  6.2353828977882649e-07  6.2353828863138833e-07  6.2354090082990263e-07  6.2359224553894618e-07  6.2352938382469172e-07  6.1988120484586721e-07  6.6823895927498542e-07  5.3779403950296259e-07  7.1707920682001603e-07  5.7877874338738993e-07  6.1951646930401980e-07  6.2354097860715580e-07  6.2353867003989835e-07  1.7774363232944141e-02  6.3116270404744670e-02  1.9889491555167803e-02  8.1351496355539458e-03  5.5224906074318792e-04  3.3825086165598171e-02  4.9511668677931349e-06  6.2353840051626394e-07  6.2353830194060803e-07  6.2353829578942755e-07  5.8881042933328312e-02  1.1627087287900278e-01  1.5543379776617424e-02  1.0428785125485303e-01  4.8662851316175225e-02  6.1133707696912248e-07  3.5660217720394419e-02  6.3032169832540111e-07  1.3541654578395737e-01  6.2217268927889151e-07  1.5571903508955527e-06  6.2283586795115222e-07  1.5706347202599234e-07  1.7295139048750151e-02  -2.6894721486323915e-05  6.9462836477895140e-02  2.0703823322210622e-02  2.8251444631566917e-02  8.0144783728333877e-02  7.3359147475938052e-03  3.0813417086171545e-02  1.9335932851551596e-01  3.3521423522902423e-03  -1.2106007733396679e-02  5.3459286275080154e-04  7.1153307210889402e-02  1.6044132158645669e-01  -2.9334964825794917e-02  1.8122456870279791e-02  6.6201186117252037e-02  6.3507485082296658e-02  3.6417855290298388e-02  1.0667944824828263e-01  9.7486801686740705e-07  1.0000171719504358e-01  4.7960976265588374e-07  8.9537991671485226e-02  5.6006562071963311e-07  6.1537499978440504e-07  6.2391507798040689e-07  6.2743154256703634e-07  1.7403579649512900e-03  -1.0595431824903919e-04  6.5935431020372359e-02  5.8244365828959664e-03  7.1581603551775490e-03  6.4632618452377555e-02  7.9732173532865575e-03  2.2383209372636419e-02  3.8857551947876406e-02  4.6509549799278231e-02  1.0926026254470139e-03  2.1035105055403951e-02  -8.6993777493649783e-05  7.3246362815994170e-02  1.0013942718221812e-02  6.2369353106890591e-07  6.2927707863875911e-07  5.4554661341928079e-07  6.1190547455239568e-07  4.8405065428341573e-07  1.1076511795580035e-01  9.8050524091271329e-07  1.2143065049355868e-01  1.6004129144854368e-01  5.8178612326351908e-02  3.6180193418695626e-02  1.6000420044157547e-02  4.6638278936317355e-02  1.9865430463932687e-02  5.3739681877966190e-02  1.8012485199029003e-02  4.5376571206421940e-02  5.0268450501431430e-02  4.1461317744136861e-02  3.9129963288474540e-02  4.2081061883829297e-02  1.5690432768071108e-01  2.0668612038158198e-02  4.4694477916368422e-02  1.8310690455963854e-02  3.9396381516338078e-02  8.1747187141541638e-03  1.1259551651659968e-04  7.8955022911881195e-02  5.6001537380543503e-04  2.6800455847866177e-02  5.2305043063020043e-02  2.3466382196899973e-02  4.8443664404919399e-03  4.8843790487753128e-02  2.5132342385485881e-02  7.7603737288806252e-03  9.4810830812338421e-03  -8.8145606904491198e-05  4.1002041035537638e-02  1.4333484366728369e-03  -2.0577488520396134e-02  6.7281511277021658e-02  1.1494530407720475e-01  -2.0519433769358369e-02  -7.7280820323767814e-04  1.4992569384140411e-01  2.5933571482918000e-02  6.0596851442668775e-03  7.6212856257205738e-02  1.0667284731568317e-02  1.8351701931274052e-02  2.3978952924829426e-02  1.7838741497878296e-04  8.7525481821207701e-02  1.8700831750873430e-02  6.0426654443733683e-07  -5.5350884336344442e-08  6.2674807465511124e-07  2.0005883871344066e-06  6.3244005323494004e-07  3.4607412077179399e-02  6.0252498177382393e-07  5.3330967802252070e-02  8.9050919843803866e-02  1.5555953347201272e-02  9.3715125654948883e-02  6.2329047638857688e-02  1.0810533149467168e-01  1.9923872414297598e-02  1.8761797505116966e-02  1.7368040393272513e-02  1.5794872763714038e-02  6.8786075413382478e-03  4.0206279386157074e-03  1.0477600733268236e-03  -2.2056044610691054e-04  6.2353337528688655e-07  6.2361280209067468e-07  6.2306169124234075e-07  6.2541136247800018e-07  6.2556486462450226e-07  5.3938584254967204e-07  -1.3154846477274343e-06  3.0720075190651151e-06  1.7802619550977668e-02  1.9549356651446616e-02  1.7319182820015672e-02  1.3477244791549573e-02  9.3390892556861598e-03  5.0248700561176633e-03  2.2308268431724472e-03  -2.4510497647193164e-04  -7.6859646215906189e-05  1.8014606520234373e-05  -7.2630125427433124e-07  9.1903575271337062e-07  5.7556320717733290e-07  6.3044070195724070e-07  6.2271203907009116e-07  6.2365427490246617e-07  6.2354117692358801e-07  6.2353387920277113e-07  6.2353972497499320e-07  6.2348346467356006e-07  6.2329330153421730e-07  6.2346023214921681e-07  6.2357230605126843e-07  6.2353327287458622e-07  6.2353985381943056e-07  7.1419361768189954e-08  3.0894264913255746e-06  -3.6486767058973464e-05  2.2899768477683657e-04  -1.5296560650450858e-03  1.9501665769827699e-02  9.1674766180714518e-02  2.2136933382524471e-01  1.9607780613979128e-01  1.2826154164575765e-01  1.9865349304308715e-02  -1.5308416094300798e-03  2.1821211621136775e-04  -3.3743423851167196e-05  3.4323117859822749e-06  6.3770596679896466e-07  6.2355010210602787e-07  6.2349052413240584e-07  6.2371824473267774e-07  6.2309158501103756e-07  6.2416711101087867e-07  6.2351588531893381e-07  6.2352867757735438e-07  6.2354222789188971e-07  6.2353732423020261e-07  6.2362846475933377e-07  6.2360438626705379e-07  6.1996126143301211e-07  5.4562527708923176e-07  1.2029288165203386e-06  -2.8357392708548097e-06  -7.1224339434922560e-05  6.9223124002671874e-04  -3.9231865441374472e-04  1.9177335017676875e-03  4.5973476277710841e-03  8.7129864562366811e-03  1.3576724448951048e-02  1.6641251673613796e-02  2.0167521306196857e-02  1.7205723857538782e-02  -1.6752708288485830e-05  -4.7984028359826917e-07  6.0238821805127861e-07  6.2350110613001948e-07  6.2367821707222028e-07  6.2351040800753065e-07  6.2354157698233871e-07  6.2353764298632297e-07  6.2353829188957044e-07  6.2353829232858476e-07  6.2353827853178484e-07  6.2353829281179938e-07  6.2353832084840517e-07  6.2353821485826023e-07  6.2353829163208217e-07  6.2353830403425155e-07  6.2353829639973290e-07  6.2353826372363765e-07  6.2353825517316160e-07  6.2353825609399568e-07  6.2353823290970050e-07  6.2353821495723910e-07  6.2353823021489048e-07  6.2353827886722662e-07  6.2353829224851611e-07  6.2353829182330843e-07  6.2353829619497803e-07  6.2353828847740049e-07  6.2353829135320663e-07  6.2353828685473535e-07  6.2353830284705292e-07  6.2353824261935437e-07  6.2353851143909424e-07  6.2353744522277160e-07  6.2354161593873593e-07  6.2352952333095546e-07  6.2353791747407857e-07  6.2361537342289879e-07  6.2352516311868494e-07  6.2325878725027116e-07  6.2349525381057800e-07  6.2436205772218602e-07  6.2466394052626759e-07  6.2395235257596878e-07  6.2362578497055977e-07  6.2370068493365128e-07  6.2375064230710859e-07  6.2349983286547388e-07  6.2256889475670229e-07  6.2258907256740475e-07  6.2303160427489267e-07  6.2351239486945317e-07  6.2302002994705338e-07  6.2400353681669243e-07  6.2367840713194907e-07  6.2339486012598072e-07  6.2348602583326058e-07  6.2352341265244635e-07  6.2352237223875306e-07  6.2353106512042720e-07  6.2354128305294028e-07  6.2353768228744968e-07  6.2353840558967588e-07  6.2353823381445906e-07  6.2353832971783349e-07  6.2353827253363093e-07  6.2353829780547767e-07  6.2353830425658277e-07  6.2353828830866264e-07  6.2353825591524738e-07  6.2353873928863851e-07  6.2353875613370036e-07  6.2353842478835716e-07  6.2353850450694568e-07  6.2353840851921037e-07  6.2353830923530363e-07  6.2353826674661724e-07  6.2353829466515130e-07  6.2353829303663771e-07  6.2353829063067355e-07  6.2353880657672980e-07  6.2353735326749641e-07  6.2353845062647486e-07  6.2353833919858030e-07  6.2353827989016110e-07  6.2353829305105569e-07  6.2353255466114805e-07  6.2359710818737697e-07  6.2321378149760839e-07  6.2867929281481040e-07  5.8937939634372558e-07  8.0673914129751264e-07  -4.1817332172315324e-08  2.1404562650264305e-06  -1.7809743867077265e-05  2.4380474933622550e-04  -2.9219743555295178e-05  5.8726185003875863e-06  1.6270192581189467e-07  5.7015582193919468e-07  6.2524847828306068e-07  6.3092279301094870e-07  6.2210408241318090e-07  6.2362607009981676e-07  6.2356114295553164e-07  6.2350347028760636e-07  6.2349496125600732e-07  6.2334260171997852e-07  6.2676471229307285e-07  6.2264691060195688e-07  6.2370363272362596e-07  6.2353618158238608e-07  6.2353834535358524e-07  9.1584648189039249e-07  -2.6151133752099876e-06  -1.3324345796613767e-05  3.0428507253535370e-04  -2.4618283950364759e-03  2.0197057862776889e-02  1.3255168514370017e-01  1.6870416557369144e-01  2.3744126223670678e-01  2.5289511414203342e-01  1.0405741003863526e-01  1.7940278880946389e-02  -1.2296886790964191e-03  2.3425133232269060e-04  -1.9361374319921142e-05  3.9853255382654566e-06  2.7236119057850292e-07  6.2353515113514694e-07  6.2354009520157924e-07  6.2346770115326541e-07  6.2381625933071922e-07  6.2318515346603621e-07  6.2351007275415584e-07  6.2352152937633166e-07  6.2353366174455537e-07  6.2353710162501106e-07  6.2348200961680241e-07  6.2363368561686567e-07  6.2094982058076226e-07  6.4928342250067204e-07  2.9432449941203586e-07  2.4067538253543495e-06  -1.2834504424071446e-05  2.8861506099221542e-05  3.0985269656631364e-04  1.5078923439557424e-02  1.7545723372157394e-02  1.7523754808348294e-02  2.1155018542966270e-02  -1.2966165244953338e-04  4.6390038917284548e-04  4.3267450665676948e-03  8.0342875372597586e-03  -4.5573118604980594e-06  6.0117571765142687e-06  -1.4648207719444688e-06  1.1389168169019817e-06  5.0341308283512159e-07  6.3974037983726415e-07  6.2170753051603747e-07  6.2381158938899371e-07  6.2350332618567845e-07  6.2353826391809121e-07  6.2353842526366102e-07  6.2353772463390833e-07  6.2353909460220494e-07  6.2353779038088765e-07  6.2352855472717500e-07  6.2353828767510730e-07  6.2353828710420445e-07  6.2353829127247401e-07  6.2353828626658595e-07  6.2353831137141897e-07  6.2353832806130979e-07  6.2353834922467075e-07  6.2353846258365686e-07  6.2353850661585316e-07  6.2353874066218565e-07  6.2353877720640064e-07  6.2353826830871381e-07  6.2353815708673551e-07  6.2353830131254495e-07  6.2353829109908785e-07  6.2353829177843400e-07  6.2353831765789580e-07  6.2353822769877233e-07  6.2353833084400593e-07  6.2353828363225631e-07  6.2353680771003293e-07  6.2354869079098251e-07  6.2355596796056711e-07  6.2343886299254048e-07  6.2372053415464461e-07  6.2386014579840121e-07  6.2393571715476937e-07  6.2312162773834847e-07  6.2363515995827824e-07  6.2037168909495994e-07  6.2215925806415731e-07  6.2393471663958167e-07  6.2267290277817515e-07  6.2341294388397764e-07  6.2373729382036171e-07  6.2292739557167011e-07  6.2268017799485880e-07  6.2307181867049207e-07  6.2179770179905303e-07  6.2273861851910265e-07  6.2401467758470034e-07  6.2332997570664552e-07  6.2359812862191566e-07  6.2352451278691280e-07  6.2353227770418235e-07  6.2353941923906117e-07  6.2353816856608007e-07  6.2353836450738616e-07  6.2353827395104708e-07  6.2353829575950918e-07  6.2353829053446924e-07  6.2353829015693448e-07  6.2353829801990978e-07  6.2353830055455190e-07  6.2353829747594660e-07  6.2353828249297243e-07  6.2353820868092676e-07  6.2353828750984482e-07  6.2353843920310520e-07  6.2353857885960568e-07  6.2353846254836078e-07  6.2353832390350573e-07  6.2353830507249403e-07  6.2353822069560366e-07  6.2353826046972130e-07  6.2353828152311240e-07  6.2353832605328573e-07  6.2353570006373336e-07  6.2353874500231715e-07  6.2353821666735849e-07  6.2353831101241782e-07  6.2353828195920456e-07  3.3163927722404618e-02  2.5060647104643893e-02  1.2770322758013802e-02  2.8665967066138173e-03  1.4182045574261237e-03  1.6263640547201268e-03  2.0872884826982816e-03  5.8097675006195003e-03  8.7317800182701605e-02  2.6127994492666763e-02  -1.6483820747593147e-03  5.3292022420312838e-04  -2.2000672719099125e-03  1.8500339836875501e-02  9.2178020914807188e-02  9.2299119000928589e-02  9.5845975594074512e-02  8.4898364420336186e-02  1.8446627125903003e-02  -2.3782156287312471e-03  1.4751592023095640e-04  -2.3487284352732499e-05  5.5595241358465974e-06  2.4139955985670423e-07  6.8172922475282604e-07  1.5030941437892487e-01  1.1642365747203706e-01  4.7685407466299672e-02  -7.2123137095440881e-04  1.8769414847443543e-04  -4.0678901903782807e-04  2.7971322361725463e-03  1.6461579954589179e-02  -3.1176149401354457e-06  2.8242793700661952e-05  2.5197090797963230e-05  1.0753053198003615e-03  4.8479963343059568e-02  5.4747092869911751e-03  8.0982839339909837e-02  9.1675688718041118e-02  6.2274752062010572e-07  6.2313500608540797e-07  6.2342486065343701e-07  6.2347026278856550e-07  6.2357735314733806e-07  6.2353154420708994e-07  6.2360112796239779e-07  6.2293560429690207e-07  -2.1245472281905390e-03  7.2124238891603965e-04  -8.9423400273053112e-04  6.2852486998069253e-03  3.5971546313239670e-02  3.9321402128375052e-02  9.2174251035216787e-03  4.0280418257343537e-03  1.0124813313591219e-02  3.9191322155500807e-02  2.9773169624193997e-02  8.2650239003222332e-03  -9.7708521922083955e-04  3.4166688284016395e-05  3.9671482489254955e-04  -1.2932394852707893e-03  2.0528356414628392e-02  1.7408619899255694e-02  1.1169932339031002e-02  3.9584412108321296e-03  3.4856404000124077e-03  6.5639574954167472e-03  3.8192579728271525e-03  1.0646432317988268e-02  4.6269012571595177e-03  9.5221244345046110e-03  1.9328174447000079e-02  2.6094208790727925e-02  8.6070659632185940e-03  4.5719176255348878e-03  3.0728405170164373e-03  4.0025068107449437e-03  1.2008174258782391e-01  1.5369178839225006e-01  1.5610419731821010e-01  1.5397565125635457e-01  4.2137571211470569e-02  1.3759554192396727e-02  -1.0817684629776168e-03  1.7508334497594414e-04  -1.6137819129615497e-05  7.5584743356162121e-07  2.5221831955461002e-07  2.7690183440449996e-06  -1.1976024540334163e-05  1.6283761582184809e-04  -1.0078671234479287e-03  1.0123595014166710e-02  5.0258633425600240e-03  1.8697523689353848e-03  1.7366171427742260e-03  1.1885795173200617e-03  3.3057234762571717e-03  1.1493084956546081e-02  2.4991829603236652e-02  2.9143518062231036e-02  2.1222429649874763e-02  3.8709646026975570e-03  -3.0074127575585233e-04  1.6696892595106813e-04  -7.1617197115756022e-04  4.9507949039317864e-02  1.0361828551840359e-01  1.4283379071578728e-01  1.4625425761301747e-01  1.1666322195894417e-01  6.7381188066489101e-02  -3.3739948905262213e-03  2.0097262348820200e-02  7.5898107155817351e-03  -6.7488869292839750e-04  6.3604848265899061e-05  2.0513138363532449e-06  1.1467674588556516e-01  7.9225645124166744e-02  2.7148812052885819e-02  -2.4020212639197106e-03  4.7104732068286881e-04  -2.5678772176145493e-03  2.5321341010731132e-02  8.3784956282308226e-02  6.4697214753412075e-07  3.6571081784303131e-07  2.7230638456236795e-06  -2.2724349691891801e-05  8.9847662586905517e-05  -2.4949169476021949e-03  2.6012123992422267e-02  6.3031221931775863e-02  6.2360799218499235e-07  6.2350034638810184e-07  6.2353720481731777e-07  6.2355186080397331e-07  6.2359620164609443e-07  6.2428453869420811e-07  6.1857086043073876e-07  6.4603615887476048e-07  -8.2372942257959094e-04  3.3953649984658902e-04  1.2044172378455987e-04  -5.8627655066893043e-04  1.3745554657689256e-02  3.5525829250890748e-02  1.6953000628318712e-02  3.4437817303214532e-02  6.8962385893655775e-02  1.3917077494436733e-01  7.0301370687205017e-02  1.9860933434619792e-02  -1.2535576351641500e-03  1.3639078570323908e-04  1.1908282507700183e-04  -2.7282741585414963e-04  4.0073087300413097e-03  1.3250201003556266e-02  1.7615536349251389e-02  2.3630943817906050e-02  2.3377181443106056e-02  1.8778436241018624e-02  1.5812456756558155e-02  6.8619438772614645e-03  5.9846278084879120e-02  4.7788881581887717e-02  4.0235556636623745e-02  3.3610442100782158e-02  1.8894360652927648e-02  3.5404955303415191e-02  5.2895389067867539e-02  6.3586374543400645e-02  1.9098195458039054e-04  -1.2566970064652829e-03  -3.2408237511376541e-04  1.4496659478951661e-04  -3.8121520802981310e-05  -6.8240760299307680e-04  1.4245781890067290e-02  6.7305246893439807e-02  1.3875464704200333e-01  6.7552386070069248e-02  2.1153797123368220e-02  3.3247708397400995e-02  2.6342730805122491e-02  1.2245635884509640e-02  1.4863730130575683e-03  -1.6526984603969840e-04  6.2372018677766679e-07  6.2342311130182676e-07  6.2354834006443725e-07  6.2348534689532869e-07  6.2290281151280860e-07  6.2619261406282065e-07  6.1326509672928820e-07  6.4453128515562083e-07  6.6487139776021819e-07  1.9102867776662536e-07  3.2864963722623712e-06  -2.4650015919881308e-05  1.2877249638794158e-04  -2.3609769243152180e-03  1.7262537311374157e-02  7.4123483215269223e-02  9.7811110980555838e-02  9.9214022389447071e-02  9.6053760176527003e-02  2.2106767196828615e-02  -2.0642926358582230e-03  5.8204769318736052e-04  -1.5850196105984722e-03  2.7375238621016030e-02  8.6402813048636548e-02  1.2849991178668346e-01  4.6486404676097180e-02  7.9647533904149848e-03  2.5816459424093066e-02  7.6257301740660843e-03  -6.5046339671137121e-04  6.7670005172307740e-05  2.2133454505137022e-06  1.7320225936029061e-02  1.0956453839393492e-03  -1.5500358343486554e-04  2.9888916585222506e-04  -2.6262739350511595e-03  3.1383584766139547e-02  1.4096426632025133e-01  1.2442997876646969e-01  3.8504793643325957e-03  1.8444789153260863e-03  4.1440653059200978e-05  1.1494750189751262e-03  1.5420253060887893e-03  1.3207987134051333e-02  2.8599278972607972e-02  3.2769564178419926e-02  4.6070191547045117e-03  1.3909842036473644e-04  -6.4934416350052754e-05  1.6905855981047804e-05  2.5042370454934973e-05  -5.6227883998735204e-05  -8.8364011515263430e-05  3.7809731220430185e-03  4.7093994429834529e-02  2.2689819240089358e-02  1.6821029551825978e-04  8.4727417745463794e-05  -4.5143094392445429e-04  1.5321260296716653e-03  8.6277225920427372e-02  1.1125153459656889e-01  1.6322540687429724e-01  1.2860483613996609e-01  8.4551235184999476e-02  1.3615910210400723e-03  5.0071587220903318e-04  -2.1194124574348136e-04  1.2960123237632706e-03  2.1597355575299411e-02  4.5121943911125770e-02  1.1423889738384127e-01  8.8309045065020741e-02  5.0332981079491395e-03  -9.7560437784679002e-04  -5.5258264715456659e-05  1.0597073009520762e-03  2.4216039738137539e-02  4.2466502934449625e-02  4.6716573499698627e-02  2.0834949870496430e-02  8.8204831052364157e-05  -3.5620164083133482e-05  6.3374001913855287e-04  -8.0653475956574832e-04  7.8513439210901273e-02  1.3214430426644025e-01  3.5507433770790159e-03  7.2245077107044379e-05  -5.9969197851814530e-05  2.4501929135672993e-05  2.1471480469761770e-05  -8.5464394979705634e-05  2.7001844062977433e-04  2.2292522692776077e-03  -1.7328620506672267e-04  7.3267648840650115e-05  -2.1514144396778691e-03  1.6251315995266177e-02  8.6366585170433330e-02  1.4339666894255579e-01  5.5201962427877373e-02  3.1039086860404980e-02  1.8326093444907352e-02  3.3687018261946575e-02  1.1335866008909063e-02  4.7355941366913619e-04  -7.7968942659115787e-05  -1.3663240009766710e-04  3.7535719940933273e-04  -1.0309603735119230e-03  2.4048794227059529e-02  4.6314855490640572e-02  5.3066185159092463e-02  4.9498738755645567e-02  5.6662287502608627e-02  5.9044243835552637e-02  3.7498317222365775e-02  2.5097607722365075e-02  2.221281111