<?xml version="1.0"?>
<VTKFile type="UnstructuredGrid"  version="0.1"  >
<UnstructuredGrid>
<Piece  NumberOfPoints="4855" NumberOfCells="8780">
<Points>
<DataArray  type="Float64"  NumberOfComponents="3"  format="ascii">0.9483880164242298 0.6836931311526558 0  0.9494264999197789 0.6847056440044139 0  0.9494005292759887 0.6847228078606633 0  0.9735520289385229 0.7444444444444445 0  0.9494005292759886 0.8041660810282256 0  0.94942649991978 0.8041832448844759 0  0.9483880175070514 0.8051957566534116 0  3.131175874138137e-16 0.09811450876034808 0  0.06838800723463068 0.1543033514199101 0  0.05161198249294494 0.1948042433465922 0  0.0505735000802211 0.1958167551155251 0  0.05059947072401128 0.1958339189717744 0  0.0505994707240113 0.3152771921393367 0  0.05057350008021998 0.315294355995587 0  0.05161198357913653 0.3163068688507105 0  0.06838800723463068 0.356807759691201 0  3.252606517456513e-16 0.4129966023507631 0  -1.795438797635995e-16 0.4839416311832997 0  0.07083274769489223 0.4605116403870998 0  0.07084991155114129 0.4605376110308903 0  0.07186242331670639 0.4594991286215342 0  0.1696402113702762 0.5 0  0.07186242332008326 0.5405008713818427 0  0.0708499115511413 0.5394623889691096 0  0.07083274769489219 0.5394883596129002 0  -1.925543058334256e-16 0.5160583688167003 0  1.484923295436147e-15 0.5870033976492365 0  0.06838800723463068 0.643192240308799 0  0.05161198249294541 0.6836931322354806 0  0.05057350008022109 0.6847056440044139 0  0.0505994707240113 0.6847228078606633 0  0.0505994707240113 0.8041660810282256 0  0.05057350008021999 0.804183244884476 0  0.05161198249294764 0.8051957566534106 0  0.06838800723463068 0.84569664858009 0  1.485790657174135e-15 0.9018854912396524 0  0 1 0  1 1 0  0.9999999999999987 0.9018854912396523 0  1.000000000000001 0.5870033976492375 0  1 0.5160583688167003 0  0.9291672523051078 0.5394883596129003 0  0.9291500884488585 0.5394623889691117 0  0.9281375755937461 0.5405008724680134 0  0.9281375755937372 0.4594991275319777 0  0.9291500884488586 0.4605376110308884 0  0.9291672523051077 0.4605116403870997 0  1 0.4839416311832997 0  0.9999999999999987 0.4129966023507635 0  0.948388017507054 0.31630686776452 0  0.94942649991978 0.3152943559955871 0  0.9494005292759886 0.3152771921393367 0  0.9735520289385229 0.2555555555555555 0  0.9494005292759888 0.1958339189717744 0  0.9494264999197789 0.1958167551155251 0  0.9483880164208631 0.1948042422604003 0  1.000000000000001 0.09811450876034861 0  1 0 0  0 0 0  0.1958339189717744 0.2950439151684559 0  0.1958167551155252 0.2950179445246672 0  0.3152771921393367 0.2950439151684557 0  0.1948042433481841 0.2960564269357975 0  0.3152943559955858 0.2950179445246651 0  0.1948042422604031 0.2150546830875326 0  0.3163068677645244 0.2960564269373949 0  0.1958167551155251 0.2160931665864439 0  0.4140846558147206 0.2555555555555555 0  0.1958339189717744 0.2160671959426553 0  0.3163068688489276 0.215054683089313 0  0.3152771921393367 0.2160671959426553 0  0.3152943559955858 0.2160931665864459 0  0.5405008724680257 0.3163068688507107 0  0.5572768961235196 0.356807759691201 0  0.5394623889691089 0.3152943559955871 0  0.459499128618165 0.3163068677645201 0  0.5394883596129003 0.3152771921393367 0  0.4605376110308911 0.3152943559955871 0  0.5394883596129001 0.1958339189717744 0  0.4605116403870998 0.3152771921393367 0  0.53946238896911 0.1958167551155251 0  0.4846631400496339 0.2555555555555555 0  0.5405008724680251 0.1948042422604009 0  0.4605116403870998 0.1958339189717744 0  0.5572768961235196 0.1543033514199101 0  0.46053761103089 0.1958167551155251 0  0.4594991286269881 0.1948042433554141 0  0.6847228078606633 0.2950439151684559 0  0.684705644004414 0.2950179445246672 0  0.8041660810282256 0.2950439151684557 0  0.683693131164073 0.2960564280087975 0  0.8041832448844747 0.2950179445246651 0  0.6836931322354718 0.2150546841737125 0  0.8051957566534156 0.2960564269373971 0  0.6847056440044141 0.2160931665864439 0  0.9029735447036096 0.2555555555555555 0  0.6847228078606632 0.2160671959426553 0  0.8051957577274008 0.2150546830997286 0  0.8041660810282256 0.2160671959426553 0  0.8041832448844747 0.2160931665864459 0  0.2960564280235811 0.560751313295155 0  0.3128324516790751 0.6012522041356455 0  0.2950179445246645 0.5597388004400315 0  0.2150546830875235 0.5607513132951615 0  0.2950439151684557 0.5597216365837812 0  0.2160931665864466 0.5597388004400314 0  0.2950439151684558 0.4402783634162188 0  0.2160671959426553 0.5597216365837812 0  0.2950179445246656 0.4402611995599696 0  0.2402186956051895 0.5 0  0.29605642693739 0.439248687791036 0  0.2160671959426553 0.4402783634162189 0  0.3128324516790751 0.3987477958643545 0  0.2160931665864455 0.4402611995599696 0  0.2150546830875296 0.4392486867048446 0  0.1958339189717743 0.7839328040573448 0  0.1958167551155252 0.7839068334135562 0  0.3152771921393367 0.7839328040573447 0  0.1948042422604028 0.7849453169124678 0  0.3152943559955858 0.783906833413554 0  0.1948042433465913 0.7039435730626098 0  0.3163068677645284 0.7849453158262878 0  0.1958167551155251 0.7049820554753328 0  0.4140846558147206 0.7444444444444445 0  0.1958339189717744 0.7049560848315441 0  0.3163068688486237 0.7039435719785058 0  0.3152771921393367 0.7049560848315441 0  0.3152943559955858 0.7049820554753349 0  0.4402783634162188 0.5394883596129003 0  0.4402611995599696 0.5394623889691117 0  0.5597216365837812 0.5394883596129002 0  0.4392486867048468 0.5405008724680237 0  0.5597388004400302 0.5394623889691096 0  0.4392486877998708 0.4594991286270004 0  0.5607513122089726 0.540500871381843 0  0.4402611995599696 0.4605376110308884 0  0.6585291002591651 0.5 0  0.4402783634162188 0.4605116403870998 0  0.5607513121946796 0.45949912863245 0  0.5597216365837812 0.4605116403870998 0  0.5597388004400302 0.4605376110308904 0  0.78494531690701 0.5607513132896949 0  0.8017213405679641 0.6012522041356455 0  0.7839068334135535 0.5597388004400315 0  0.7039435730626069 0.5607513122089671 0  0.7839328040573448 0.5597216365837812 0  0.7049820554753355 0.5597388004400314 0  0.7839328040573448 0.4402783634162188 0  0.7049560848315441 0.5597216365837812 0  0.7839068334135545 0.4402611995599696 0  0.7291075844940784 0.5 0  0.784945315826279 0.4392486877910359 0  0.7049560848315444 0.4402783634162188 0  0.8017213405679641 0.3987477958643545 0  0.7049820554753344 0.4402611995599696 0  0.7039435719764182 0.4392486867048443 0  0.5405008724625655 0.8051957577341393 0  0.5572768961235196 0.84569664858009 0  0.539462388969109 0.804183244884476 0  0.4594991286181648 0.8051957566534091 0  0.5394883596129003 0.8041660810282256 0  0.4605376110308911 0.804183244884476 0  0.5394883596129003 0.6847228078606633 0  0.4605116403870998 0.8041660810282256 0  0.53946238896911 0.6847056440044139 0  0.4846631400496339 0.7444444444444445 0  0.5405008713818347 0.6836931322354802 0  0.4605116403870998 0.6847228078606633 0  0.5572768961235196 0.643192240308799 0  0.46053761103089 0.6847056440044139 0  0.4594991275353449 0.6836931311526599 0  0.6847228078606633 0.7839328040573448 0  0.684705644004414 0.7839068334135562 0  0.8041660810282256 0.7839328040573447 0  0.6836931311493016 0.7849453169124578 0  0.8041832448844747 0.783906833413554 0  0.68369313223548 0.7039435730626096 0  0.805195756653417 0.7849453158262875 0  0.6847056440044141 0.7049820554753328 0  0.9029735447036096 0.7444444444444445 0  0.6847228078606633 0.7049560848315441 0  0.805195757738809 0.7039435719772094 0  0.8041660810282256 0.7049560848315441 0  0.8041832448844747 0.7049820554753349 0  0.9578164230213342 0.6948838683471341 0  0.9645772892192558 0.7062137009141434 0  0.9695236884064815 0.7184451175460498 0  0.972538971146615 0.7312896684428197 0  0.9725389711466151 0.7575992204460691 0  0.9695236884064815 0.7704437713428391 0  0.9645772892192558 0.7826751879747456 0  0.9578164230213342 0.7940050205417549 0  0.01437766570919127 0.09711967848259151 0  0.02854851642641832 0.09974531144948819 0  0.04161535472570586 0.1058251712658871 0  0.05275088139110013 0.1149743244732108 0  0.06125007411586489 0.1266135117968212 0  0.06657482449792251 0.1400058227212122 0  0.06643634307317195 0.1691277076584997 0  0.06071435336153361 0.1829418078690686 0  0.04134737123322858 0.3039103077764334 0  0.03416190609801732 0.2911362521989113 0  0.02925217947541549 0.2773267630846004 0  0.02676106927623143 0.2628837102534819 0  0.02676106927623143 0.2482274008576293 0  0.02925217947541547 0.2337843480265108 0  0.03416190609801727 0.2199748589121999 0  0.04134737123322851 0.2072008033346779 0  0.06071435387356935 0.328169304128914 0  0.06643634320569657 0.3419834039471998 0  0.06657482449792249 0.371105288389899 0  0.06125007411586481 0.3844975993142901 0  0.05275088139109994 0.3961367866379005 0  0.04161535472570563 0.4052859398452242 0  0.02854851642641818 0.411365799661623 0  0.01437766570919127 0.4139914326285196 0  0 0.4697526254167924 0  0 0.455563619650285 0  0 0.4413746138837777 0  0 0.4271856081172704 0  0.06095233986089402 0.4687284952262988 0  0.04995687430503332 0.4753797281664747 0  0.03809234373417287 0.4803165365228644 0  0.02562418374773841 0.4834284730529493 0  0.01283133446055119 0.4846459169037758 0  0.08372485599813187 0.4503967593658507 0  0.09753895276796982 0.4446747697099958 0  0.1123633055586467 0.4427231038764812 0  0.1271876590095525 0.4446747646950606 0  0.1410017577150834 0.45039674967774 0  0.1528641934757506 0.4594991149204779 0  0.161966560724962 0.471361549141524 0  0.1676885480442292 0.4851756468792086 0  0.1676885480443665 0.514824353120279 0  0.1619665607254926 0.528638450857557 0  0.1528641934768762 0.5405008850783964 0  0.1410017577169217 0.5496032503211987 0  0.1271876590121153 0.5553252353042526 0  0.1123633055618306 0.5572768961235188 0  0.09753895277155772 0.5553252302909656 0  0.08372485600180817 0.5496032406362719 0  0.0128313344605512 0.5153540830962242 0  0.0256241837477384 0.5165715269470507 0  0.03809234373417282 0.5196834634771356 0  0.04995687430503334 0.5246202718335253 0  0.06095233986089401
[...]
<PointData  Scalars="$\epsilon_{VM}$"> 
<DataArray  type="Float64"  Name="$\epsilon_{VM}$"  format="ascii">1.6419212789175190e-03  2.0814084802886377e-03  1.7310666691173798e-03  1.4596675239801019e-03  1.3809842696416250e-03  1.7371871818359413e-03  1.1024753595034725e-03  -1.2401282334992417e-07  1.7331208739760615e-03  1.1077172617427735e-03  1.6924788785825421e-03  1.3485987433363255e-03  1.5851311312749129e-03  2.0293305128970970e-03  1.5971112261903941e-03  6.2937478058705662e-04  1.2856668010221691e-07  1.4609083045105026e-07  1.6950333020786822e-05  1.6976229212343355e-05  4.5126181353215737e-05  7.3574952765769665e-03  4.8166434087628052e-05  1.3266125180637911e-05  1.6709365771134903e-05  2.7203521294549369e-07  3.8819726092402163e-07  6.3498501827111348e-04  1.5797411655078344e-03  1.8513365584925884e-03  1.6335000713134308e-03  1.3486718350639779e-03  1.6419543902092774e-03  1.0996447957323076e-03  1.5635873868491664e-03  1.5263488303137209e-05  1.2344784357584018e-04  1.2548615234173424e-04  6.1902642141282537e-07  1.4036838847257062e-07  1.3740658639984671e-07  2.0283111110095705e-05  2.9588784573889626e-05  3.5797585051717219e-05  4.4251579461631104e-05  2.1995719103212098e-05  1.8418445251721620e-05  1.7515148968721973e-07  5.1096966188599595e-07  1.6070134954152991e-03  2.0131414661081521e-03  1.6927109426321805e-03  1.4492143533752627e-03  1.4258519311129085e-03  1.8234870966875583e-03  1.0820329762362439e-03  2.0891499336280031e-05  1.2648803592848326e-04  1.4115072370755421e-04  3.0017182110869617e-03  3.4981946393777821e-03  2.2736222333870127e-03  3.8810856438485143e-03  2.4527537715168021e-03  5.2393352082179127e-04  2.7590128078835634e-03  3.5360230198174973e-04  5.9091524518464491e-03  2.8001374068719855e-04  7.2423018613800624e-04  4.2081216794549243e-04  2.3253503084427570e-04  2.4925286161383850e-03  1.0034613069394942e-03  2.6735698505923446e-03  2.5596914709800781e-03  2.3343786045443593e-03  2.6988530081628265e-03  2.1671831478276029e-04  2.3907637186866273e-03  -6.5005166006849825e-04  1.4824648009977165e-03  1.6271239594153628e-03  4.5034004639157621e-04  5.2116562933569727e-03  -7.5568335167460041e-04  1.6341521876559904e-03  2.2364340849213883e-03  2.6328001728102061e-03  3.0370212036166756e-03  2.7226898817140767e-03  3.2717632827288972e-03  7.3684286336713996e-04  3.8856388474900498e-03  3.1615954057170442e-04  4.7330514826434064e-03  4.0611269104232447e-04  5.8020108147424881e-04  3.5176203409571013e-04  2.9971631273963091e-04  1.7282665909212128e-03  1.5098538274490134e-03  2.4821507479953543e-03  3.2306846161913672e-03  1.8714281040977587e-03  3.3816900999733041e-03  1.9213007903211468e-03  3.0059817181158910e-03  2.1906220150479552e-03  2.4151924927917818e-03  1.6445500919150462e-03  3.2134631272099884e-03  1.4637875366040184e-03  3.5475627867860111e-03  3.2390664082936303e-03  2.7382717579389439e-04  3.5937453214037384e-04  3.6650184986784562e-04  5.5766299154811749e-04  3.5260100659628983e-04  3.9592884079675626e-03  7.2610883176111544e-04  3.3495587366260187e-03  6.5398782785440071e-03  2.9224512698078397e-03  2.7855563050409567e-03  2.2388028327591423e-03  2.5380759609331459e-03  2.1604137964386112e-03  2.4235766951378316e-03  2.1529625405221809e-03  2.9561992740607590e-03  2.2209524835378903e-03  2.9902220755531309e-03  2.9684236088691378e-03  2.3045971106237539e-03  6.9697894923906401e-03  2.1803721342603540e-03  3.0242942228883153e-03  2.1434613025347175e-03  2.2550366447198714e-03  3.1855396695921272e-03  1.2192920688526439e-03  3.6180521614686476e-03  1.6423887886990796e-03  2.9046287845379726e-03  2.6964238599069064e-03  3.0016111206080951e-03  1.9256805050535675e-03  3.4256452937048310e-03  2.1962719701657065e-03  3.1576125060083400e-03  2.1907670192185527e-03  1.1409959800738915e-03  2.4440398566735843e-03  1.7571887355975475e-03  1.6339864362224204e-03  4.9722013327922658e-03  -5.5977444592543316e-04  1.7255348238121820e-03  4.2971336474982856e-04  -8.1484290011406833e-04  2.2785330597341349e-03  3.9841394271181944e-04  2.5847373559163239e-03  1.7374846419462295e-03  2.5263238922186939e-03  2.3286875038186412e-03  1.0199500137076428e-03  2.9380533890019621e-03  2.5156052143004157e-03  3.9258214000250047e-04  3.0578568731327952e-04  3.0350327792398878e-04  7.4864297193148613e-04  4.1270966156980109e-04  2.7683503954312435e-03  6.1373292681505100e-04  2.5413951173490412e-03  4.6623216256203200e-03  2.2279884897983405e-03  3.8518557553024976e-03  2.9969683020178708e-03  3.4159691957536225e-03  1.5489544079838615e-03  1.5022100185023016e-03  1.4620105092571251e-03  1.4763367930573535e-03  1.4277597926566855e-03  1.3960603385771650e-03  1.3787445413712119e-03  1.3206339749627797e-03  1.3122434533302086e-05  9.7396374086981810e-05  3.0368409971725190e-04  6.9285912402525880e-04  1.2156646562983156e-03  1.4520026835092763e-03  1.1758247404885932e-03  6.8586871445732952e-04  1.5637488725062446e-03  1.5554470306321814e-03  1.4501767504977584e-03  1.5037698038843645e-03  1.4540536800696261e-03  1.3738772656425818e-03  1.3771825751888564e-03  1.3376784400147919e-03  8.1750710112552579e-04  5.6610627176856688e-04  3.8377715297011712e-04  1.2068452858111667e-04  5.8709628166526028e-05  5.4421680151067025e-05  1.4263279038195201e-05  1.5890184817276849e-06  1.5498181842346807e-07  7.6885671876863663e-07  1.3689747815155382e-06  3.0065165298628489e-07  8.9125773250403813e-06  3.0805683533453998e-06  8.1202308418377418e-07  3.1965266106641082e-07  -7.1419300731814631e-08  8.3088972909746908e-05  5.8877851315231511e-05  2.0184853837911887e-04  9.6772425060953041e-04  1.9957787227674949e-03  4.2211216378093344e-03  5.4131608200451275e-03  7.2861046919831182e-03  6.7581812442653842e-03  6.2389948727864502e-03  3.9167798774289442e-03  2.0703927751980038e-03  9.4175824869531489e-04  1.8155446373711119e-04  8.1887837059894743e-05  6.4363330131159938e-05  -1.3072181037762700e-07  1.8800183363288054e-07  7.9854979129983754e-07  2.3568669324722968e-06  9.8194856017337562e-06  3.9797575719963310e-07  1.0626516654363845e-06  8.2743687625307232e-07  6.9575106413218512e-08  2.6967723928284037e-06  1.7210097026724836e-05  3.9921789467686482e-05  7.3188535131576629e-05  1.1177932347162076e-04  3.9888369179973956e-04  5.6683889733126242e-04  8.1565842137695473e-04  1.3309326103737901e-03  1.3805752842481654e-03  1.3741821821132139e-03  1.4756797022823539e-03  1.4816668603482811e-03  1.4836727867489118e-03  1.5101383477397819e-03  1.5860540353952012e-03  6.6871576357792383e-04  1.1783103546890851e-03  1.6574367397276170e-03  1.1966394043491319e-03  6.5420472484841938e-04  3.2665910107324448e-04  9.7222332149369422e-05  2.2823672717132296e-05  1.2023972518467240e-04  9.9376600418103018e-05  7.7896029285575024e-05  3.9579121272349335e-05  1.4776886132524712e-05  6.9599193983594557e-06  1.5648410233446577e-04  2.0094708938622039e-04  2.5751469835749545e-04  3.0654587477153768e-04  3.3768608353813915e-04  3.4827460376018663e-04  3.3609627183792194e-04  3.0361223225997333e-04  2.5706207912090087e-04  2.0703770547648057e-04  1.5533355549314970e-04  1.2846783394311563e-04  1.2161122712411354e-04  1.4349923285465684e-04  1.7106943737063394e-04  1.9685601835378391e-04  2.1503688009152799e-04  2.2660807492061024e-04  2.2877554476706999e-04  2.2325463024638195e-04  2.2060460798180710e-04  2.3765678208311381e-04  2.8586471277796505e-04  3.6902307070374414e-04  4.7033275278596769e-04  5.7351564585568135e-04  6.6274521880622060e-04  7.2166673572022512e-04  7.4382290932728664e-04  7.2817040984356088e-04  6.8202578406175568e-04  6.3411825780666277e-04  6.0679084375058194e-04  6.0717516952089000e-04  6.3635738679055471e-04  6.8083174597286271e-04  7.2413445994108736e-04  7.4757041216307258e-04  7.2363276617392789e-04  6.5773505440904964e-04  5.8162369423127292e-04  4.7114570972945469e-04  3.5166909591882181e-04  2.9342790587802892e-04  2.3120737185122712e-04  2.2444404007497160e-04  2.2421177488853592e-04  2.2823190240841453e-04  2.2623598167680273e-04  2.1544795291101134e-04  1.9546724104833966e-04  1.7056311809288783e-04  1.4149918852026167e-04  1.2326061068642749e-04  1.2393116791829085e-04  1.5804230602016949e-04  2.0492726368600842e-04  2.5590215131858181e-04  3.0517251061386861e-04  3.3462511193298959e-04  3.4860839704651056e-04  3.3901018705254543e-04  3.0610982573958450e-04  2.5887092854237414e-04  2.0180747663331081e-04  1.5629226856077696e-04  2.0069290211403371e-05  2.1375091842727408e-05  3.3654796606681186e-05  7.5799941833833400e-05  1.0144008944387683e-04  1.1902757638776122e-04  9.8572035771774924e-06  9.4445799498455905e-05  3.2015919863709813e-04  7.1906126711064188e-04  1.2057360407077141e-03  1.5851302696841423e-03  1.6676474969188461e-03  1.1396004806002969e-03  7.3349823513910335e-04  7.6441018327835493e-04  5.7785033586617231e-04  6.2078440074352678e-04  4.2046870123645363e-04  1.1354249259559548e-04  6.9207813953081290e-05  5.5636203290832600e-05  1.4571984524514177e-05  1.6073885067177453e-06  1.6148427298808453e-07  7.5715076131663630e-07  1.3451926081922129e-06  2.8327753619418547e-07  8.5994322199046831e-06  2.6840733017902338e-06  9.0116420542106030e-07  3.5898602324580953e-07  -6.1563774198365027e-08  7.6844162034577147e-05  5.6024235684074353e-05  2.4041761843754327e-04  7.5141877764983538e-04  2.2397408998464348e-03  3.8779248137598534e-03  6.1745408586186450e-03  6.3496910959380329e-03  7.0241706566102312e-03  7.6578154902344035e-03  5.5576275648310846e-03  4.1594791562887864e-03  1.9185928635895098e-03  9.7587105994863461e-04  2.4394070453658516e-04  9.8968970061304157e-05  7.1658996181018830e-05  -4.8725385969018644e-08  3.4512754104779404e-07  9.0658873994349004e-07  3.4587246154887152e-06  8.4721668985603402e-06  8.3497418796288399e-07  1.5186156420246996e-06  1.0032690017115624e-06  8.3885036634239753e-08  2.9443328853786463e-06  1.7325134772336270e-05  5.9247893679723862e-05  5.7791923558000600e-05  1.3940194829925216e-04  3.9946953816801379e-04  6.2857241319330790e-04  6.0874809719053816e-04  7.0341597359441319e-04  1.4617715511651699e-03  1.4894781942740274e-03  1.4810121897121456e-03  1.5247780091231309e-03  1.3516012656276000e-03  1.3767999474658414e-03  1.3770747216264910e-03  1.4449497104288239e-03  7.2508821183839918e-04  1.1359747183872808e-03  1.6863649768616394e-03  1.6456597603662696e-03  1.1638180046333951e-03  6.9093951723038797e-04  3.5353642070423664e-04  1.0911895737605205e-04  8.6662205177663564e-06  1.1872302934318524e-04  9.9798810458771379e-05  7.7898667911292576e-05  3.8955239924455075e-05  1.5779140717505223e-05  2.4433384578327977e-06  1.2465542822246001e-04  1.5663119638447805e-04  2.4669194357626741e-04  3.3233251929329821e-04  3.4250615010267672e-04  3.5215553877412611e-04  3.3723442566201313e-04  3.0490201042387256e-04  2.5882175603759132e-04  2.0605204327284949e-04  1.5748741596102272e-04  1.2668802611549181e-04  1.1964627173951248e-04  1.4342594537539478e-04  1.7009992535700600e-04  1.9541268088371576e-04  2.1369369579488478e-04  2.2804083065881072e-04  2.2548375195128762e-04  2.2096560938860817e-04  2.2125893665115827e-04  2.3661711501817137e-04  2.8367331842213314e-04  3.5797301335279634e-04  4.6880591961285400e-04  5.6621254724021242e-04  6.5881844526734506e-04  7.2350294574825206e-04  7.4844527138975283e-04  7.2171180578747948e-04  6.8312340537217246e-04  6.3061728812984657e-04  6.0435127859962681e-04  6.0687140268409693e-04  6.3977309838389841e-04  6.8202183455780209e-04  7.2609522242443407e-04  7.4629006027141106e-04  7.2001767880906147e-04  6.6517445147199080e-04  5.8552373982538413e-04  4.6977135249058968e-04  3.5581464566914741e-04  2.8371394241033949e-04  2.3868473202706212e-04  2.2099655819137246e-04  2.1983208893584623e-04  2.2793531756352652e-04  2.2870611495081608e-04  2.1480910100913042e-04  1.9643273561662712e-04  1.7038920919112984e-04  1.4255281148055395e-04  1.2389690391169226e-04  1.2187294852736527e-04  1.5692208311639277e-04  2.0459414218193745e-04  2.5710556616264843e-04  3.0277509713661947e-04  3.3657448538155300e-04  3.5191290236825685e-04  3.3813210878445724e-04  3.0618653092490534e-04  2.5635013141219408e-04  1.9948849921863114e-04  1.5582703936490100e-04  1.6292404408472034e-05  2.4641612304154103e-05  3.2956899048083906e-05  7.0474951068344335e-05  8.8253894760560495e-05  1.2733475241271923e-04  2.3795177981468857e-03  2.0502525730633795e-03  1.8260664219070652e-03  1.7448033282922385e-03  1.6799698770085280e-03  1.6817915998654984e-03  1.7379902872677170e-03  1.8952496919114618e-03  3.6839027881922673e-03  3.4240971147582082e-03  1.9313117636845850e-03  9.1916521761848020e-04  1.2734661975810143e-03  2.6118873927626087e-03  4.3419124215164830e-03  4.5147971266205717e-03  4.8912269814755773e-03  4.9947539532552215e-03  3.2187103298057440e-03  1.9092655845172530e-03  6.7316439477849610e-04  5.1967968357892913e-04  7.6601260292891887e-04  7.6708905290967641e-04  6.7143598166946421e-04  7.3136964247765557e-03  6.6189251838732659e-03  5.2938256994062675e-03  3.0616773041285731e-03  1.4988352839635706e-03  6.3806305393875257e-04  1.7767615889359026e-03  2.3415191324495732e-03  1.1311636897525709e-03  1.5848165456851455e-03  2.5141665356195704e-03  2.9664011237192579e-03  2.8697471145861428e-03  1.5065226566691994e-03  2.2133080655092289e-03  4.4040906189804748e-03  2.7815563353081855e-04  1.5828903770515886e-04  1.5022281645452520e-04  1.5605373140647875e-04  1.5273310612948308e-04  1.5570359985114994e-04  1.5937684472683164e-04  2.7897777655606492e-04  1.3532008862816188e-03  8.0296088785377089e-04  1.5640681010255443e-03  1.7414964020101254e-03  2.4530966457442026e-03  2.2233832664025101e-03  1.3843511390772823e-03  1.4788000091808702e-03  1.3899538027230521e-03  2.2209020271078536e-03  2.2217952177502089e-03  2.0926179902694135e-03  1.3838382252292928e-03  1.0186522161422225e-03  9.4725754048857909e-04  1.2907217568836995e-03  1.9808694981044077e-03  1.8482353060269260e-03  1.6163203884740995e-03  1.5662012658428403e-03  1.3923345884279572e-03  1.1801417688203698e-03  8.9796523288984448e-04  5.8581924037065980e-04  1.5620208326351315e-03  1.7200836992546762e-03  1.8429324261427058e-03  1.9870307737254187e-03  4.2072500304709371e-04  8.2482230766914690e-04  1.0715425164133251e-03  1.3526608959021369e-03  4.2087624358432656e-03  3.2003768521348033e-03  3.0303939829691628e-03  4.6725424157551543e-03  4.6322774289216107e-03  4.3999178436247973e-03  2.7324549626524279e-03  1.9153756266636029e-03  9.3129440239482280e-04  3.3557713436486162e-04  1.4044370715600251e-04  3.8580048811670211e-04  9.0233841417940934e-04  1.9030761799804928e-03  2.7673042821110571e-03  3.8979052299219757e-03  1.8981460059131427e-03  1.7386000727630272e-03  1.6656528134323730e-03  1.7076452974392692e-03  1.7315481696345690e-03  1.8145313415052150e-03  1.9922485227436013e-03  2.3815911787954547e-03  2.3337859950862869e-03  1.8854824734762612e-03  8.3838496011916903e-04  1.6009575873708061e-03  2.9166453880753516e-03  5.3829598599225582e-03  6.1237018293865521e-03  7.3571913444255782e-03  6.3680697503142661e-03  4.4370240138439454e-03  2.2217143645320149e-03  1.5390435522831165e-03  2.3754733656371901e-03  3.0398030426270371e-03  2.4480841911508951e-03  1.7973818919245984e-03  1.0385484606903013e-03  5.1424780322712237e-03  4.1534673756759679e-03  2.7901656406077468e-03  1.2742624909216616e-03  1.0734298688930824e-03  2.0111479244295624e-03  3.3923095302414194e-03  3.7768737297840058e-03  6.7630347984678173e-04  8.1062778102266350e-04  7.0131153963696275e-04  5.1318453524760055e-04  7.0219416671675233e-04  1.7483617377438089e-03  3.6053944154445881e-03  4.4332445044619013e-03  2.6151657341463223e-04  1.6994131991806784e-04  1.5498332782694233e-04  1.5689141435185893e-04  1.4318252511304758e-04  1.5331141205416436e-04  1.8048501753775641e-04  2.6923696876320183e-04  9.6086843206294166e-04  1.1382562368749875e-03  1.4529378590878597e-03  1.1767341423659324e-03  2.0340451510087857e-03  2.8531545913753039e-03  2.6397971861355854e-03  3.5244036905896889e-03  3.7009704613787360e-03  4.6863150800926495e-03  3.8538151470023400e-03  3.4286872560784468e-03  2.0217291492857755e-03  1.3071784505714417e-03  1.2109385363935792e-03  1.7438104890339136e-03  1.8519108416908726e-03  1.8789881344044943e-03  1.9286958668669116e-03  1.9311187108702194e-03  1.9615213507769213e-03  1.9239427463726617e-03  1.9133437842559354e-03  1.9466678639659730e-03  2.5181115878434189e-03  2.4421382869971174e-03  2.5343306104026507e-03  2.7096938899189389e-03  2.5755454149601854e-03  2.5575240305588786e-03  2.4920143009716411e-03  2.4636425367083195e-03  1.1605521128951082e-03  9.2023948902993590e-04  1.8969524321159087e-03  1.0045919100925350e-03  1.1717800123308968e-03  2.2895661731574465e-03  2.9959686232512786e-03  3.8957948423699934e-03  4.5398000685295866e-03  3.5895224182354250e-03  3.0730155849206719e-03  3.1765129647443827e-03  2.4666714315640910e-03  1.9331082912230685e-03  1.5691921914950144e-03  1.3683251186539756e-03  2.6408489155053889e-04  1.9500567162870761e-04  1.4785252534180404e-04  1.3990326910433756e-04  1.5974940402955159e-04  1.5446296154909156e-04  1.6118816541366621e-04  2.7773691000724095e-04  6.5815127350803636e-04  8.5361614833080269e-04  6.7543673883267328e-04  5.1742860827723761e-04  7.1461867760686600e-04  1.9765608174095485e-03  3.1976908949778752e-03  4.7424208685152283e-03  5.1195133500339420e-03  4.8204336295924119e-03  4.4458421055756604e-03  2.6553022444926046e-03  1.2410215245754932e-03  1.1197418726447157e-03  1.8742589943785259e-03  3.4734419445423869e-03  3.7705064806043890e-03  4.5338238697580149e-03  2.3294393171501286e-03  1.6377385238797806e-03  2.3748866457939653e-03  3.1053345162684212e-03  2.3950586594747424e-03  1.8294064322990735e-03  1.0733460305018846e-03  2.3807174698840874e-03  1.5077496596608445e-03  8.4289648747665040e-04  1.3083900085144140e-03  3.2716845041445056e-03  4.9053901391668056e-03  7.0295621839351671e-03  6.5243951132277472e-03  1.8860591239592173e-03  1.6985996535703587e-03  1.6744337920637164e-03  1.6925268317252141e-03  1.7618719306771772e-03  1.8201446921000620e-03  2.0476182276561654e-03  2.4220756138413181e-03  1.6418503711644792e-03  1.3792453901464159e-03  1.2373133769227672e-03  1.1947164090769617e-03  1.1876595846699619e-03  1.2644159912516904e-03  1.3557433905015434e-03  1.6541100081124457e-03  3.0699788009668763e-03  3.1704570629602067e-03  2.0724805707970765e-03  1.2651395058990145e-03  1.2679437363325274e-03  2.8346669056874396e-03  5.3981761638211790e-03  5.7729409761465419e-03  7.1713326516988527e-03  6.1853093788818330e-03  5.4355825036531318e-03  2.9286965701447992e-03  1.2885036672432859e-03  1.2285575038982783e-03  2.0272124285708646e-03  3.2428364244165703e-03  3.0613976541801831e-03  5.9491650910942660e-03  5.3433969588422029e-03  2.9318076812279337e-03  1.3320818673501101e-03  1.2106113771231633e-03  2.0076761100557856e-03  3.2782840914431367e-03  3.0119465791998076e-03  3.1049621928538381e-03  3.1592975791635432e-03  2.0751133920682207e-03  1.3386412399134702e-03  1.2230075080075721e-03  2.8548643593291462e-03  5.4377777777527437e-03  6.2871608114178530e-03  1.6544898547911906e-03  1.3731717561036043e-03  1.2476502219895243e-03  1.1864124145648510e-03  1.1836305263811470e-03  1.2505654121431459e-03  1.3498450759244982e-03  1.6293395665184769e-03  1.9730382912632807e-03  9.4883871191089907e-04  2.3383491992139010e-03  2.8382349816550496e-03  4.2817664989316193e-03  4.6380892126633086e-03  3.4635725028949174e-03  3.5715846733127984e-03  2.7073457007953075e-03  2.8054148017176805e-03  1.9537333105867794e-03  1.5314829466485710e-03  1.2381754227585617e-03  1.4766000993308242e-03  1.1980890815899068e-03  9.6331844209625089e-04  2.6938378663732541e-03  2.6022994255545150e-03  2.4402914369996442e-03  2.5186316345825704e-03  2.4634313237204045e-03  2.4220531440873258e-03  2.5376250402797573e-03  2.6542697662626834e-03  1.7402148796190487e-03  1.9884557747904944e-03  1.8954027323794583e-03  1.8938384930