<?xml version="1.0"?>
<VTKFile type="UnstructuredGrid"  version="0.1"  >
<UnstructuredGrid>
<Piece  NumberOfPoints="4935" NumberOfCells="9500">
<Points>
<DataArray  type="Float64"  NumberOfComponents="3"  format="ascii">0.2499999999999999 0.3556624327025937 0  0.7499999999999999 0.3556624327025934 0  0.5000000000000002 0.7886751345948129 0  0 0 0  1 0 0  0 1 0  1 1 0  0.2647058823529411 0.3556624327025937 0  0.2794117647058823 0.3556624327025937 0  0.2941176470588235 0.3556624327025937 0  0.3088235294117647 0.3556624327025936 0  0.323529411764706 0.3556624327025936 0  0.3382352941176471 0.3556624327025936 0  0.3529411764705883 0.3556624327025936 0  0.3676470588235294 0.3556624327025936 0  0.3823529411764707 0.3556624327025936 0  0.3970588235294119 0.3556624327025936 0  0.4117647058823531 0.3556624327025936 0  0.4264705882352944 0.3556624327025936 0  0.4411764705882356 0.3556624327025936 0  0.4558823529411768 0.3556624327025936 0  0.470588235294118 0.3556624327025936 0  0.4852941176470592 0.3556624327025936 0  0.5000000000000004 0.3556624327025935 0  0.5147058823529416 0.3556624327025935 0  0.5294117647058827 0.3556624327025935 0  0.5441176470588238 0.3556624327025935 0  0.5588235294117649 0.3556624327025935 0  0.5735294117647061 0.3556624327025935 0  0.5882352941176472 0.3556624327025935 0  0.6029411764705883 0.3556624327025935 0  0.6176470588235294 0.3556624327025935 0  0.6323529411764706 0.3556624327025935 0  0.6470588235294117 0.3556624327025935 0  0.6617647058823528 0.3556624327025935 0  0.6764705882352939 0.3556624327025935 0  0.6911764705882351 0.3556624327025935 0  0.7058823529411762 0.3556624327025934 0  0.7205882352941173 0.3556624327025934 0  0.7352941176470585 0.3556624327025934 0  0.7426470588235293 0.3683981004053057 0  0.7352941176470588 0.3811337681080181 0  0.7279411764705881 0.3938694358107305 0  0.7205882352941175 0.4066051035134428 0  0.713235294117647 0.4193407712161552 0  0.7058823529411764 0.4320764389188675 0  0.6985294117647058 0.4448121066215799 0  0.6911764705882352 0.4575477743242922 0  0.6838235294117646 0.4702834420270046 0  0.676470588235294 0.483019109729717 0  0.6691176470588234 0.4957547774324293 0  0.6617647058823528 0.5084904451351417 0  0.6544117647058822 0.5212261128378541 0  0.6470588235294116 0.5339617805405665 0  0.639705882352941 0.5466974482432788 0  0.6323529411764703 0.5594331159459912 0  0.6249999999999998 0.5721687836487035 0  0.6176470588235292 0.5849044513514159 0  0.6102941176470587 0.5976401190541282 0  0.6029411764705881 0.6103757867568405 0  0.5955882352941175 0.6231114544595528 0  0.5882352941176471 0.635847122162265 0  0.5808823529411765 0.6485827898649773 0  0.573529411764706 0.6613184575676896 0  0.5661764705882354 0.674054125270402 0  0.5588235294117648 0.6867897929731142 0  0.5514705882352943 0.6995254606758265 0  0.5441176470588237 0.7122611283785388 0  0.5367647058823531 0.7249967960812511 0  0.5294117647058827 0.7377324637839633 0  0.522058823529412 0.7504681314866757 0  0.5147058823529415 0.7632037991893881 0  0.5073529411764709 0.7759394668921004 0  0.4926470588235296 0.7759394668921005 0  0.485294117647059 0.7632037991893882 0  0.4779411764705884 0.7504681314866758 0  0.4705882352941178 0.7377324637839635 0  0.4632352941176472 0.7249967960812511 0  0.4558823529411766 0.7122611283785388 0  0.448529411764706 0.6995254606758264 0  0.4411764705882354 0.6867897929731142 0  0.4338235294117648 0.6740541252704018 0  0.4264705882352942 0.6613184575676894 0  0.4191176470588235 0.648582789864977 0  0.4117647058823529 0.6358471221622646 0  0.4044117647058822 0.6231114544595523 0  0.3970588235294117 0.6103757867568399 0  0.389705882352941 0.5976401190541275 0  0.3823529411764705 0.5849044513514151 0  0.3749999999999998 0.5721687836487028 0  0.3676470588235293 0.5594331159459905 0  0.3602941176470587 0.5466974482432783 0  0.3529411764705881 0.5339617805405659 0  0.3455882352941175 0.5212261128378537 0  0.338235294117647 0.5084904451351413 0  0.3308823529411764 0.4957547774324291 0  0.3235294117647058 0.4830191097297168 0  0.3161764705882352 0.4702834420270045 0  0.3088235294117647 0.4575477743242922 0  0.3014705882352941 0.4448121066215799 0  0.2941176470588235 0.4320764389188676 0  0.2867647058823529 0.4193407712161553 0  0.2794117647058824 0.4066051035134431 0  0.2720588235294118 0.3938694358107308 0  0.2647058823529412 0.3811337681080185 0  0.2573529411764706 0.3683981004053061 0  0.01492537313432838 0 0  0.02985074626865675 0 0  0.04477611940298513 0 0  0.05970149253731351 0 0  0.0746268656716419 0 0  0.08955223880597028 0 0  0.1044776119402987 0 0  0.1194029850746271 0 0  0.1343283582089554 0 0  0.1492537313432838 0 0  0.1641791044776121 0 0  0.1791044776119405 0 0  0.1940298507462689 0 0  0.2089552238805972 0 0  0.2238805970149256 0 0  0.2388059701492539 0 0  0.2537313432835824 0 0  0.2686567164179108 0 0  0.2835820895522392 0 0  0.2985074626865676 0 0  0.313432835820896 0 0  0.3283582089552244 0 0  0.3432835820895528 0 0  0.3582089552238813 0 0  0.3731343283582096 0 0  0.3880597014925381 0 0  0.4029850746268665 0 0  0.4179104477611949 0 0  0.4328358208955234 0 0  0.4477611940298517 0 0  0.4626865671641802 0 0  0.4776119402985086 0 0  0.4925373134328369 0 0  0.5074626865671652 0 0  0.5223880597014936 0 0  0.5373134328358218 0 0  0.5522388059701502 0 0  0.5671641791044785 0 0  0.5820895522388068 0 0  0.5970149253731351 0 0  0.6119402985074635 0 0  0.6268656716417917 0 0  0.64179104477612 0 0  0.6567164179104483 0 0  0.6716417910447767 0 0  0.6865671641791049 0 0  0.7014925373134333 0 0  0.7164179104477616 0 0  0.7313432835820899 0 0  0.7462686567164182 0 0  0.7611940298507465 0 0  0.7761194029850749 0 0  0.791044776119403 0 0  0.8059701492537314 0 0  0.8208955223880597 0 0  0.835820895522388 0 0  0.8507462686567163 0 0  0.8656716417910447 0 0  0.8805970149253729 0 0  0.8955223880597013 0 0  0.9104477611940296 0 0  0.925373134328358 0 0  0.9402985074626862 0 0  0.9552238805970146 0 0  0.9701492537313429 0 0  0.9850746268656715 0 0  0 0.9850746268656716 0  0 0.9701492537313432 0  0 0.9552238805970149 0  0 0.9402985074626865 0  0 0.9253731343283581 0  0 0.9104477611940297 0  0 0.8955223880597013 0  0 0.8805970149253729 0  0 0.8656716417910446 0  0 0.8507462686567162 0  0 0.8358208955223878 0  0 0.8208955223880595 0  0 0.8059701492537311 0  0 0.7910447761194028 0  0 0.7761194029850744 0  0 0.761194029850746 0  0 0.7462686567164176 0  0 0.7313432835820892 0  0 0.7164179104477608 0  0 0.7014925373134324 0  0 0.686567164179104 0  0 0.6716417910447756 0  0 0.6567164179104472 0  0 0.6417910447761187 0  0 0.6268656716417904 0  0 0.6119402985074619 0  0 0.5970149253731335 0  0 0.5820895522388051 0  0 0.5671641791044766 0  0 0.5522388059701483 0  0 0.5373134328358198 0  0 0.5223880597014914 0  0 0.5074626865671631 0  0 0.4925373134328348 0  0 0.4776119402985064 0  0 0.4626865671641782 0  0 0.4477611940298498 0  0 0.4328358208955215 0  0 0.4179104477611932 0  0 0.4029850746268649 0  0 0.3880597014925365 0  0 0.3731343283582083 0  0 0.35820895522388 0  0 0.3432835820895517 0  0 0.3283582089552233 0  0 0.3134328358208951 0  0 0.2985074626865667 0  0 0.2835820895522384 0  0 0.2686567164179101 0  0 0.2537313432835818 0  0 0.2388059701492535 0  0 0.2238805970149251 0  0 0.208955223880597 0  0 0.1940298507462686 0  0 0.1791044776119403 0  0 0.164179104477612 0  0 0.1492537313432837 0  0 0.1343283582089553 0  0 0.1194029850746271 0  0 0.1044776119402987 0  0 0.08955223880597041 0  0 0.07462686567164201 0  0 0.05970149253731383 0  0 0.04477611940298543 0  0 0.02985074626865714 0  0 0.01492537313432851 0  1 0.01492537313432838 0  1 0.02985074626865675 0  1 0.04477611940298513 0  1 0.05970149253731351 0  1 0.0746268656716419 0  1 0.08955223880597028 0  1 0.1044776119402987 0  1 0.1194029850746271 0  1 0.1343283582089554 0  1 0.1492537313432838 0  1 0.1641791044776121 0  1 0.1791044776119405 0  1 0.1940298507462689 0  1 0.2089552238805972 0  1 0.2238805970149256 0  1 0.2388059701492539 0  1 0.2537313432835824 0  1 0.2686567164179108 0  1 0.2835820895522392 0  1 0.2985074626865676 0  1 0.313432835820896 0  1 0.3283582089552244 0  1 0.3432835820895528 0  1 0.3582089552238813 0  1 0.3731343283582096 0  1 0.3880597014925381 0  1 0.4029850746268665 0  1 0.4179104477611949 0  1 0.4328358208955234 0  1 0.4477611940298517 0  1 0.4626865671641802 0  1 0.4776119402985086 0  1 0.4925373134328369 0  1 0.5074626865671652 0  1 0.5223880597014936 0  1 0.5373134328358218 0  1 0.5522388059701502 0  1 0.5671641791044785 0  1 0.5820895522388068 0  1 0.5970149253731351 0  1 0.6119402985074635 0  1 0.6268656716417917 0  1 0.64179104477612 0  1 0.6567164179104483 0  1 0.6716417910447767 0  1 0.6865671641791049 0  1 0.7014925373134333 0  1 0.7164179104477616 0  1 0.7313432835820899 0  1 0.7462686567164182 0  1 0.7611940298507465 0  1 0.7761194029850749 0  1 0.791044776119403 0  1 0.8059701492537314 0  1 0.8208955223880597 0  1 0.835820895522388 0  1 0.8507462686567163 0  1 0.8656716417910447 0  1 0.8805970149253729 0  1 0.8955223880597013 0  1 0.9104477611940296 0  1 0.925373134328358 0  1 0.9402985074626862 0  1 0.9552238805970146 0  1 0.9701492537313429 0  1 0.9850746268656715 0  0.9850746268656716 1 0  0.9701492537313432 1 0  0.9552238805970149 1 0  0.9402985074626865 1 0  0.9253731343283581 1 0  0.9104477611940297 1 0  0.8955223880597013 1 0  0.8805970149253729 1 0  0.8656716417910446 1 0  0.8507462686567162 1 0  0.8358208955223878 1 0  0.8208955223880595 1 0  0.8059701492537311 1 0  0.7910447761194028 1 0  0.7761194029850744 1 0  0.761194029850746 1 0  0.7462686567164176 1 0  0.7313432835820892 1 0  0.7164179104477608 1 0  0.7014925373134324 1 0  0.686567164179104 1 0  0.6716417910447756 1 0  0.6567164179104472 1 0  0.6417910447761187 1 0  0.6268656716417904 1 0  0.6119402985074619 1 0  0.5970149253731335 1 0  0.5820895522388051 1 0  0.5671641791044766 1 0  0.5522388059701483 1 0  0.5373134328358198 1 0  0.5223880597014914 1 0  0.5074626865671631 1 0  0.4925373134328348 1 0  0.4776119402985064 1 
[...]
<PointData  Tensors="$\sigma$"> 
<DataArray  type="Float64"  Name="$\sigma$"  NumberOfComponents="9" format="ascii">2.2761275552647707e+08 -6.0660560099202074e+07 0.0000000000000000e+00 -6.0660560099202074e+07 6.5556332972531140e+08 0.0000000000000000e+00 0.0000000000000000e+00 0.0000000000000000e+00 0.0000000000000000e+00  2.2679201581406191e+08 6.3019478288209811e+07 0.0000000000000000e+00 6.3019478288209811e+07 6.5672512709093642e+08 0.0000000000000000e+00 0.0000000000000000e+00 0.0000000000000000e+00 0.0000000000000000e+00  1.0722021316820174e+07 -3.6508045551760530e+05 0.0000000000000000e+00 -3.6508045551760530e+05 1.2271059423650667e+07 0.0000000000000000e+00 0.0000000000000000e+00 0.0000000000000000e+00 0.0000000000000000e+00  6.3609472091276504e+07 1.2573790580120334e+07 0.0000000000000000e+00 1.2573790580120334e+07 2.7199479337329257e+08 0.0000000000000000e+00 0.0000000000000000e+00 0.0000000000000000e+00 0.0000000000000000e+00  1.7234166322979602e+05 -3.1128795284151146e+05 0.0000000000000000e+00 -3.1128795284151146e+05 2.6724228891119489e+08 0.0000000000000000e+00 0.0000000000000000e+00 0.0000000000000000e+00 0.0000000000000000e+00  7.8337181966249904e+04 -1.1897950444392046e+05 0.0000000000000000e+00 -1.1897950444392046e+05 2.0258434644616908e+08 0.0000000000000000e+00 0.0000000000000000e+00 0.0000000000000000e+00 0.0000000000000000e+00  3.5493737516465284e+04 2.4774090075087192e+05 0.0000000000000000e+00 2.4774090075087192e+05 2.0241538350900587e+08 0.0000000000000000e+00 0.0000000000000000e+00 0.0000000000000000e+00 0.0000000000000000e+00  -8.5488832681960583e+07 -1.1557308248601137e+08 0.0000000000000000e+00 -1.1557308248601137e+08 -6.5834720724733464e+07 0.0000000000000000e+00 0.0000000000000000e+00 0.0000000000000000e+00 0.0000000000000000e+00  -2.0526616097113633e+08 3.9917801155206427e+07 0.0000000000000000e+00 3.9917801155206427e+07 2.3704997592502937e+07 0.0000000000000000e+00 0.0000000000000000e+00 0.0000000000000000e+00 0.0000000000000000e+00  -1.7431125262916180e+08 -1.6215722371163652e+06 0.0000000000000000e+00 -1.6215722371163652e+06 -8.7867772952431440e+06 0.0000000000000000e+00 0.0000000000000000e+00 0.0000000000000000e+00 0.0000000000000000e+00  -1.7239105410409278e+08 4.2008998746301709e+06 0.0000000000000000e+00 4.2008998746301709e+06 1.9773088047808113e+06 0.0000000000000000e+00 0.0000000000000000e+00 0.0000000000000000e+00 0.0000000000000000e+00  -1.6679424530307898e+08 1.5400854920568357e+06 0.0000000000000000e+00 1.5400854920568357e+06 -7.2394396712770555e+04 0.0000000000000000e+00 0.0000000000000000e+00 0.0000000000000000e+00 0.0000000000000000e+00  -1.6172568522441357e+08 1.2177544609562897e+06 0.0000000000000000e+00 1.2177544609562897e+06 4.4782805080426612e+05 0.0000000000000000e+00 0.0000000000000000e+00 0.0000000000000000e+00 0.0000000000000000e+00  -1.5746513156000951e+08 9.9103104690920666e+05 0.0000000000000000e+00 9.9103104690920666e+05 3.7739204747703648e+05 0.0000000000000000e+00 0.0000000000000000e+00 0.0000000000000000e+00 0.0000000000000000e+00  -1.5366496720776853e+08 8.1348789189071686e+05 0.0000000000000000e+00 8.1348789189071686e+05 3.5055482405274105e+05 0.0000000000000000e+00 0.0000000000000000e+00 0.0000000000000000e+00 0.0000000000000000e+00  -1.5000001314479309e+08 6.7266167426569900e+05 0.0000000000000000e+00 6.7266167426569900e+05 2.7002575590536132e+05 0.0000000000000000e+00 0.0000000000000000e+00 0.0000000000000000e+00 0.0000000000000000e+00  -1.4696122624445045e+08 5.9875372643567831e+05 0.0000000000000000e+00 5.9875372643567831e+05 2.7720979983230709e+05 0.0000000000000000e+00 0.0000000000000000e+00 0.0000000000000000e+00 0.0000000000000000e+00  -1.4420156638285547e+08 4.4686860656891012e+05 0.0000000000000000e+00 4.4686860656891012e+05 2.1065353151895310e+05 0.0000000000000000e+00 0.0000000000000000e+00 0.0000000000000000e+00 0.0000000000000000e+00  -1.4192898577800128e+08 3.9716033480639802e+05 0.0000000000000000e+00 3.9716033480639802e+05 2.4299539711567390e+05 0.0000000000000000e+00 0.0000000000000000e+00 0.0000000000000000e+00 0.0000000000000000e+00  -1.3998424201086754e+08 2.6677499455683632e+05 0.0000000000000000e+00 2.6677499455683632e+05 1.8245276078675294e+05 0.0000000000000000e+00 0.0000000000000000e+00 0.0000000000000000e+00 0.0000000000000000e+00  -1.3854851736332393e+08 2.2035146449930806e+05 0.0000000000000000e+00 2.2035146449930806e+05 2.1864576754808152e+05 0.0000000000000000e+00 0.0000000000000000e+00 0.0000000000000000e+00 0.0000000000000000e+00  -1.3743604675450990e+08 9.5772241336962543e+04 0.0000000000000000e+00 9.5772241336962543e+04 1.6740873780730655e+05 0.0000000000000000e+00 0.0000000000000000e+00 0.0000000000000000e+00 0.0000000000000000e+00  -1.3685113552512139e+08 5.0070062199868538e+04 0.0000000000000000e+00 5.0070062199868538e+04 2.0874185983867274e+05 0.0000000000000000e+00 0.0000000000000000e+00 0.0000000000000000e+00 0.0000000000000000e+00  -1.3657096397639546e+08 -7.4773754158020747e+04 0.0000000000000000e+00 -7.4773754158020747e+04 1.6382001473458167e+05 0.0000000000000000e+00 0.0000000000000000e+00 0.0000000000000000e+00 0.0000000000000000e+00  -1.3685839782394734e+08 -1.1764736065994239e+05 0.0000000000000000e+00 -1.1764736065994239e+05 2.1217219614250684e+05 0.0000000000000000e+00 0.0000000000000000e+00 0.0000000000000000e+00 0.0000000000000000e+00  -1.3741145464772901e+08 -2.5852483285485560e+05 0.0000000000000000e+00 -2.5852483285485560e+05 1.7003680398801353e+05 0.0000000000000000e+00 0.0000000000000000e+00 0.0000000000000000e+00 0.0000000000000000e+00  -1.3845934745547414e+08 -2.9205971525293647e+05 0.0000000000000000e+00 -2.9205971525293647e+05 2.1907648903522742e+05 0.0000000000000000e+00 0.0000000000000000e+00 0.0000000000000000e+00 0.0000000000000000e+00  -1.4010769276256424e+08 -3.6187920945965644e+05 0.0000000000000000e+00 -3.6187920945965644e+05 2.6768995629158127e+05 0.0000000000000000e+00 0.0000000000000000e+00 0.0000000000000000e+00 0.0000000000000000e+00  -1.4179395875041708e+08 -5.3232652461824846e+05 0.0000000000000000e+00 -5.3232652461824846e+05 1.7026104463795060e+05 0.0000000000000000e+00 0.0000000000000000e+00 0.0000000000000000e+00 0.0000000000000000e+00  -1.4411233492524830e+08 -5.9879670474120055e+05 0.0000000000000000e+00 -5.9879670474120055e+05 3.1145073921888828e+05 0.0000000000000000e+00 0.0000000000000000e+00 0.0000000000000000e+00 0.0000000000000000e+00  -1.4692263697061229e+08 -6.3915940364360705e+05 0.0000000000000000e+00 -6.3915940364360705e+05 3.0365763060133083e+05 0.0000000000000000e+00 0.0000000000000000e+00 0.0000000000000000e+00 0.0000000000000000e+00  -1.5006080025815904e+08 -7.1061539835927449e+05 0.0000000000000000e+00 -7.1061539835927449e+05 3.9641286308298155e+05 0.0000000000000000e+00 0.0000000000000000e+00 0.0000000000000000e+00 0.0000000000000000e+00  -1.5346569146034029e+08 -8.9376402149403910e+05 0.0000000000000000e+00 -8.9376402149403910e+05 3.5822771744503430e+05 0.0000000000000000e+00 0.0000000000000000e+00 0.0000000000000000e+00 0.0000000000000000e+00  -1.5726568967406574e+08 -1.0624856521279146e+06 0.0000000000000000e+00 -1.0624856521279146e+06 3.6468614399685862e+05 0.0000000000000000e+00 0.0000000000000000e+00 0.0000000000000000e+00 0.0000000000000000e+00  -1.6161299423823890e+08 -1.3852509944624025e+06 0.0000000000000000e+00 -1.3852509944624025e+06 5.5058820749831188e+05 0.0000000000000000e+00 0.0000000000000000e+00 0.0000000000000000e+00 0.0000000000000000e+00  -1.6634153420583287e+08 -1.5790726987051251e+06 0.0000000000000000e+00 -1.5790726987051251e+06 -8.7881539090980630e+04 0.0000000000000000e+00 0.0000000000000000e+00 0.0000000000000000e+00 0.0000000000000000e+00  -1.7196520423173538e+08 -4.2517875706999563e+06 0.0000000000000000e+00 -4.2517875706999563e+06 2.0336304376275416e+06 0.0000000000000000e+00 0.0000000000000000e+00 0.0000000000000000e+00 0.0000000000000000e+00  -1.7338825306353703e+08 1.6290067095984623e+06 0.0000000000000000e+00 1.6290067095984623e+06 -8.7073683184434511e+06 0.0000000000000000e+00 0.0000000000000000e+00 0.0000000000000000e+00 0.0000000000000000e+00  -2.0444029761129287e+08 -4.0297228695954181e+07 0.0000000000000000e+00 -4.0297228695954181e+07 2.3209998884364571e+07 0.0000000000000000e+00 0.0000000000000000e+00 0.0000000000000000e+00 0.0000000000000000e+00  -8.2042967643608451e+07 1.1703432834096053e+08 0.0000000000000000e+00 1.1703432834096053e+08 -6.2662020394963428e+07 0.0000000000000000e+00 0.0000000000000000e+00 0.0000000000000000e+00 0.0000000000000000e+00  1.3862790547418511e+08 -1.5524571528633451e+08 0.0000000000000000e+00 -1.5524571528633451e+08 4.1586710252541476e+08 0.0000000000000000e+00 0.0000000000000000e+00 0.0000000000000000e+00 0.0000000000000000e+00  1.1778656934994704e+08 -1.8830745017644143e+08 0.0000000000000000e+00 -1.8830745017644143e+08 2.9131153990376478e+08 0.0000000000000000e+00 0.0000000000000000e+00 0.0000000000000000e+00 0.0000000000000000e+00  6.5709126343981154e+07 -1.4535344172081539e+08 0.0000000000000000e+00 -1.4535344172081539e+08 2.6297030495646897e+08 0.0000000000000000e+00 0.0000000000000000e+00 0.0000000000000000e+00 0.0000000000000000e+00  7.4101384302135408e+07 -1.2952527368161070e+08 0.0000000000000000e+00 -1.2952527368161070e+08 2.3434911252759030e+08 0.0000000000000000e+00 0.0000000000000000e+00 0.0000000000000000e+00 0.0000000000000000e+00  6.4589342321292683e+07 -1.1629083175188451e+08 0.0000000000000000e+00 -1.1629083175188451e+08 2.0809115846799019e+08 0.0000000000000000e+00 0.0000000000000000e+00 0.0000000000000000e+00 0.0000000000000000e+00  6.0210238182591535e+07 -1.0691512044450809e+08 0.0000000000000000e+00 -1.0691512044450809e+08 1.9019243448931587e+08 0.0000000000000000e+00 0.0000000000000000e+00 0.0000000000000000e+00 0.0000000000000000e+00  5.5492297291578919e+07 -9.8835820193510205e+07 0.0000000000000000e+00 -9.8835820193510205e+07 1.7552214226614851e+08 0.0000000000000000e+00 0.0000000000000000e+00 0.0000000000000000e+00 0.0000000000000000e+00  5.1585748641802482e+07 -9.1620969797205389e+07 0.0000000000000000e+00 -9.1620969797205389e+07 1.6235248107862458e+08 0.0000000000000000e+00 0.0000000000000000e+00 0.0000000000000000e+00 0.0000000000000000e+00  4.8134139353696361e+07 -8.5348686081483558e+07 0.0000000000000000e+00 -8.5348686081483558e+07 1.5137242862358001e+08 0.0000000000000000e+00 0.0000000000000000e+00 0.0000000000000000e+00 0.0000000000000000e+00  4.4901494421532527e+07 -7.9535043723178178e+07 0.0000000000000000e+00 -7.9535043723178178e+07 1.4090417734343946e+08 0.0000000000000000e+00 0.0000000000000000e+00 0.0000000000000000e+00 0.0000000000000000e+00  4.1931727153654508e+07 -7.4266428792712957e+07 0.0000000000000000e+00 -7.4266428792712957e+07 1.3166745918536396e+08 0.0000000000000000e+00 0.0000000000000000e+00 0.0000000000000000e+00 0.0000000000000000e+00  3.9145970279107526e+07 -6.9447974315753192e+07 0.0000000000000000e+00 -6.9447974315753192e+07 1.2320384998254883e+08 0.0000000000000000e+00 0.0000000000000000e+00 0.0000000000000000e+00 0.0000000000000000e+00  3.6572272577463210e+07 -6.4838761988502406e+07 0.0000000000000000e+00 -6.4838761988502406e+07 1.1486923316136505e+08 0.0000000000000000e+00 0.0000000000000000e+00 0.0000000000000000e+00 0.0000000000000000e+00  3.4217712577654548e+07 -6.0629849535836957e+07 0.0000000000000000e+00 -6.0629849535836957e+07 1.0764938550455771e+08 0.0000000000000000e+00 0.0000000000000000e+00 0.0000000000000000e+00 0.0000000000000000e+00  3.1964779670065686e+07 -5.6614831654376850e+07 0.0000000000000000e+00 -5.6614831654376850e+07 1.0037056179979271e+08 0.0000000000000000e+00 0.0000000000000000e+00 0.0000000000000000e+00 0.0000000000000000e+00  2.9844267089544680e+07 -5.2833142946324557e+07 0.0000000000000000e+00 -5.2833142946324557e+07 9.3817938043893576e+07 0.0000000000000000e+00 0.0000000000000000e+00 0.0000000000000000e+00 0.0000000000000000e+00  2.7823953069142289e+07 -4.9359343970116399e+07 0.0000000000000000e+00 -4.9359343970116399e+07 8.7702186032851294e+07 0.0000000000000000e+00 0.0000000000000000e+00 0.0000000000000000e+00 0.0000000000000000e+00  2.5919527915338855e+07 -4.5958789930333108e+07 0.0000000000000000e+00 -4.5958789930333108e+07 8.1574695879873365e+07 0.0000000000000000e+00 0.0000000000000000e+00 0.0000000000000000e+00 0.0000000000000000e+00  2.4114864284930769e+07 -4.2774980724729806e+07 0.0000000000000000e+00 -4.2774980724729806e+07 7.6126943054852784e+07 0.0000000000000000e+00 0.0000000000000000e+00 0.0000000000000000e+00 0.0000000000000000e+00  2.2401546341069918e+07 -3.9743295278104641e+07 0.0000000000000000e+00 -3.9743295278104641e+07 7.0705402769153744e+07 0.0000000000000000e+00 0.0000000000000000e+00 0.0000000000000000e+00 0.0000000000000000e+00  2.0757181817987110e+07 -3.6800442700377330e+07 0.0000000000000000e+00 -3.6800442700377330e+07 6.5552047329588413e+07 0.0000000000000000e+00 0.0000000000000000e+00 0.0000000000000000e+00 0.0000000000000000e+00  1.9178863308203313e+07 -3.4075844431744881e+07 0.0000000000000000e+00 -3.4075844431744881e+07 6.0813780021721870e+07 0.0000000000000000e+00 0.0000000000000000e+00 0.0000000000000000e+00 0.0000000000000000e+00  1.7655506045450471e+07 -3.1391641312595658e+07 0.0000000000000000e+00 -3.1391641312595658e+07 5.5980771160463870e+07 0.0000000000000000e+00 0.0000000000000000e+00 0.0000000000000000e+00 0.0000000000000000e+00  1.6187249179779086e+07 -2.8807543777822156e+07 0.0000000000000000e+00 -2.8807543777822156e+07 5.1592779408657752e+07 0.0000000000000000e+00 0.0000000000000000e+00 0.0000000000000000e+00 0.0000000000000000e+00  1.4775248891633384e+07 -2.6333327664876483e+07 0.0000000000000000e+00 -2.6333327664876483e+07 4.7189051424747773e+07 0.0000000000000000e+00 0.0000000000000000e+00 0.0000000000000000e+00 0.0000000000000000e+00  1.3383669874898110e+07 -2.3856764516942143e+07 0.0000000000000000e+00 -2.3856764516942143e+07 4.2903811340026595e+07 0.0000000000000000e+00 0.0000000000000000e+00 0.0000000000000000e+00 0.0000000000000000e+00  1.2022381011812022e+07 -2.1523775240076631e+07 0.0000000000000000e+00 -2.1523775240076631e+07 3.8888589320946164e+07 0.0000000000000000e+00 0.0000000000000000e+00 0.0000000000000000e+00 0.0000000000000000e+00  1.0665064143623564e+07 -1.9165474700232778e+07 0.0000000000000000e+00 -1.9165474700232778e+07 3.4704737114851221e+07 0.0000000000000000e+00 0.0000000000000000e+00 0.0000000000000000e+00 0.0000000000000000e+00  9.2835646142757013e+06 -1.6789717829357926e+07 0.0000000000000000e+00 -1.6789717829357926e+07 3.0725890041703977e+07 0.0000000000000000e+00 0.0000000000000000e+00 0.0000000000000000e+00 0.0000000000000000e+00  7.8740901106684981e+06 -1.4383032927190507e+07 0.0000000000000000e+00 -1.4383032927190507e+07 2.6659687701965112e+07 0.0000000000000000e+00 0.0000000000000000e+00 0.0000000000000000e+00 0.0000000000000000e+00  6.2669642590387724e+06 -1.1927263729068123e+07 0.0000000000000000e+00 -1.1927263729068123e+07 2.2340130556866057e+07 0.0000000000000000e+00 0.0000000000000000e+00 0.0000000000000000e+00 0.0000000000000000e+00  4.4544231581002269e+06 -8.6885152703130767e+06 0.0000000000000000e+00 -8.6885152703130767e+06 1.8410170430280723e+07 0.0000000000000000e+00 0.0000000000000000e+00 0.0000000000000000e+00 0.0000000000000000e+00  3.8314759184147669e+06 -8.2537364627782060e+06 0.0000000000000000e+00 -8.2537364627782060e+06 1.3175427945969151e+07 0.0000000000000000e+00 0.0000000000000000e+00 0.0000000000000000e+00 0.0000000000000000e+00  3.7757000372243626e+06 7.8163925226864526e+06 0.0000000000000000e+00 7.8163925226864526e+06 1.3284503309470560e+07 0.0000000000000000e+00 0.0000000000000000e+00 0.0000000000000000e+00 0.0000000000000000e+00  4.0692625223601665e+06 8.6871860170862880e+06 0.0000000000000000e+00 8.6871860170862880e+06 1.8713101138923060e+07 0.0000000000000000e+00 0.0000000000000000e+00 0.0000000000000000e+00 0.0000000000000000e+00  6.3226688896557959e+06 1.1664690107103512e+07 0.0000000000000000e+00 1.1664690107103512e+07 2.2226282720369831e+07 0.0000000000000000e+00 0.0000000000000000e+00 0.0000000000000000e+00 0.0000000000000000e+00  7.7986417751107011e+06 1.4224406101498270e+07 0.0000000000000000e+00 1.4224406101498270e+07 2.6752215045524757e+07 0.0000000000000000e+00 0.0000000000000000e+00 0.0000000000000000e+00 0.0000000000000000e+00  9.1691688209310174e+06 1.6742491486713979e+07 0.0000000000000000e+00 1.6742491486713979e+07 3.0977387631921697e+07 0.0000000000000000e+00 0.0000000000000000e+00 0.0000000000000000e+00 0.0000000000000000e+00  1.0549317838923231e+07 1.8925016080306131e+07 0.0000000000000000e+00 1.8925016080306131e+07 3.4719512919749677e+07 0.0000000000000000e+00 0.0000000000000000e+00 0.0000000000000000e+00 0.0000000000000000e+00  1.1948828610097241e+07 2.1529287275120188e+07 0.0000000000000000e+00 2.1529287275120188e+07 3.8999270985646032e+07 0.0000000000000000e+00 0.0000000000000000e+00 0.0000000000000000e+00 0.0000000000000000e+00  1.3370874445267810e+07 2.3699730609585367e+07 0.0000000000000000e+00 2.3699730609585367e+07 4.2845309955256768e+07 0.0000000000000000e+00 0.0000000000000000e+00 0.0000000000000000e+00 0.0000000000000000e+00  1.4701360760407979e+07 2.6144484003877297e+07 0.0000000000000000e+00 2.6144484003877297e+07 4.7198803845870115e+07 0.0000000000000000e+00 0.0000000000000000e+00 0.0000000000000000e+00 0.0000000000000000e+00  1.6126651020675233e+07 2.8766331919839274e+07 0.0000000000000000e+00 2.8766331919839274e+07 5.1766940991557263e+07 0.0000000000000000e+00 0.0000000000000000e+00 0.0000000000000000e+00 0.0000000000000000e+00  1.7533635328135226e+07 3.1148873774912920e+07 0.0000000000000000e+00 3.1148873774912920e+07 5.5993766682064638e+07 0.0000000000000000e+00 0.0000000000000000e+00 0.0000000000000000e+00 0.0000000000000000e+00  1.9165534031190708e+07 3.4123764216215812e+07 0.0000000000000000e+00 3.4123764216215812e+07 6.0862554440865338e+07 0.0000000000000000e+00 0.0000000000000000e+00 0.0000000000000000e+00 0.0000000000000000e+00  2.0766667985960960e+07 3.6619510472958662e+07 0.0000000000000000e+00 3.6619510472958662e+07 6.5422568464222118e+07 0.0000000000000000e+00 0.0000000000000000e+00 0.0000000000000000e+00 0.0000000000000000e+00  2.2342664150829278e+07 3.9553712053044006e+07 0.0000000000000000e+00 3.9553712053044006e+07 7.0714546532223925e+07 0.0000000000000000e+00 0.0000000000000000e+00 0.0000000000000000e+00 0.0000000000000000e+00  2.4053475447619583e+07 4.2683945584367774e+07 0.0000000000000000e+00 4.2683945584367774e+07 7.6224858110945359e+07 0.0000000000000000e+00 0.0000000000000000e+00 0.0000000000000000e+00 0.0000000000000000e+00  2.5839686382827517e+07 4.5818443710030839e+07 0.0000000000000000e+00 4.5818443710030839e+07 8.1592629757187858e+07 0.0000000000000000e+00 0.0000000000000000e+00 0.0000000000000000e+00 0.0000000000000000e+00  2.7859107185505576e+07 4.9309873274396725e+07 0.0000000000000000e+00 4.9309873274396725e+07 8.7568905823214695e+07 0.0000000000000000e+00 0.0000000000000000e+00 0.0000000000000000e+00 0.0000000000000000e+00  2.9843799024199929e+07 5.2704588491422929e+07 0.0000000000000000e+00 5.2704588491422929e+07 9.3692372176741764e+07 0.0000000000000000e+00 0.0000000000000000e+00 0.0000000000000000e+00 0.0000000000000000e+00  3.1890166973151539e+07 5.6430062846350759e+07 0.0000000000000000e+00 5.6430062846350759e+07 1.0039840432797834e+08 0.0000000000000000e+00 0.0000000000000000e+00 0.0000000000000000e+00 0.0000000000000000e+00  3.4195987632017344e+07 6.0521273554956481e+07 0.0000000000000000e+00 6.0521273554956481e+07 1.0759711302996424e+08 0.0000000000000000e+00 0.0000000000000000e+00 0.0000000000000000e+00 0.0000000000000000e+00  3.6477978438329034e+07 6.4556977608890511e+07 0.0000000000000000e+00 6.4556977608890511e+07 1.1482362381467623e+08 0.0000000000000000e+00 0.0000000000000000e+00 0.0000000000000000e+00 0.0000000000000000e+00  3.9163245904321998e+07 6.9444963278276354e+07 0.0000000000000000e+00 6.9444963278276354e+07 1.2302917214245208e+08 0.0000000000000000e+00 0.0000000000000000e+00 0.0000000000000000e+00 0