<?xml version="1.0"?>
<VTKFile type="UnstructuredGrid"  version="0.1"  >
<UnstructuredGrid>
<Piece  NumberOfPoints="11835" NumberOfCells="22454">
<Points>
<DataArray  type="Float64"  NumberOfComponents="3"  format="ascii">0 1 0  0 0 0  1 0 0  1 1 0  0.3743586654239869 0.262646040248429 0  0.375 0.25 0  0.3743586654239869 0.237353959751571 0  0.3724412426565618 0.2248376849889173 0  0.3692674070500061 0.2125796096283302 0  0.3648697264525288 0.2007055181108351 0  0.3592933270180727 0.1893372546836148 0  0.3525954301509096 0.1785914731131509 0  0.3448447653365989 0.1685784396597222 0  0.3361208648844608 0.15940090159636 0  0.3265132478184578 0.1511530328827876 0  0.3161205012908703 0.1439194678131561 0  0.3050492689447042 0.1377744325536573 0  0.2934131566056025 0.1327809834816149 0  0.28133156653234 0.1289903601417244 0  0.2689284721880721 0.1264414594589861 0  0.2563311461048391 0.1251604366036184 0  0.2436688538951608 0.1251604366036184 0  0.2310715278119279 0.1264414594589861 0  0.2186684334676599 0.1289903601417245 0  0.2065868433943974 0.132780983481615 0  0.1949507310552957 0.1377744325536573 0  0.1838794987091297 0.1439194678131561 0  0.1734867521815422 0.1511530328827877 0  0.1638791351155391 0.15940090159636 0  0.1551552346634011 0.1685784396597222 0  0.1474045698490904 0.178591473113151 0  0.1407066729819272 0.1893372546836149 0  0.1351302735474711 0.2007055181108352 0  0.1307325929499939 0.2125796096283302 0  0.1275587573434382 0.2248376849889175 0  0.1256413345760131 0.237353959751571 0  0.125 0.25 0  0.1256413345760131 0.2626460402484291 0  0.1275587573434382 0.2751623150110825 0  0.1307325929499939 0.2874203903716698 0  0.1351302735474712 0.2992944818891649 0  0.1407066729819272 0.3106627453163852 0  0.1474045698490904 0.3214085268868491 0  0.1551552346634011 0.3314215603402778 0  0.1638791351155392 0.34059909840364 0  0.1734867521815422 0.3488469671172124 0  0.1838794987091297 0.3560805321868439 0  0.1949507310552957 0.3622255674463427 0  0.2065868433943975 0.3672190165183851 0  0.21866843346766 0.3710096398582755 0  0.2310715278119279 0.3735585405410139 0  0.2436688538951609 0.3748395633963816 0  0.2563311461048391 0.3748395633963816 0  0.2689284721880721 0.3735585405410139 0  0.28133156653234 0.3710096398582755 0  0.2934131566056025 0.3672190165183851 0  0.3050492689447043 0.3622255674463427 0  0.3161205012908703 0.3560805321868439 0  0.3265132478184579 0.3488469671172123 0  0.3361208648844608 0.34059909840364 0  0.3448447653365989 0.3314215603402778 0  0.3525954301509096 0.3214085268868491 0  0.3592933270180728 0.3106627453163852 0  0.3648697264525288 0.2992944818891648 0  0.3692674070500061 0.2874203903716697 0  0.3724412426565618 0.2751623150110825 0  0.3693201760252164 0.5127552182776839 0  0.37 0.5 0  0.3693201760252164 0.4872447817223161 0  0.3672884067781439 0.4746340851644449 0  0.3639277130162057 0.4623107945573661 0  0.3592761727425896 0.4504145377077946 0  0.3533864897672567 0.4390801039593391 0  0.3463253965517156 0.4284359169753799 0  0.3381728981035681 0.4186025796476461 0  0.3290213654878046 0.4096915076172633 0  0.3189744892257289 0.4018036668910198 0  0.308146104439918 0.3950284298561646 0  0.2966589010567984 0.3894425626555504 0  0.2846430336807546 0.3851093553965594 0  0.2722346468904537 0.3820779050488975 0  0.2595743326663699 0.38038255915631 0  0.246805537427467 0.3800425266651857 0  0.2340729367259533 0.3810616602795192 0  0.2215207960154662 0.3834284128082348 0  0.2092913360658363 0.387115967999476 0  0.1975231215449373 0.3920825443794537 0  0.1863494910256309 0.3982718686532395 0  0.175897046206457 0.4056138133036829 0  0.1662842174638018 0.4140251911642022 0  0.1576199219884112 0.4234106979626216 0  0.1500023297100982 0.4336639921566569 0  0.1435177509932114 0.4446688998260809 0  0.1382396587057194 0.4563007309696613 0  0.1342278557422581 0.4684276922926975 0  0.1315277974334387 0.4809123804777114 0  0.1301700765187886 0.4936133390189386 0  0.1301700765187886 0.5063866609810614 0  0.1315277974334387 0.5190876195222887 0  0.1342278557422581 0.5315723077073026 0  0.1382396587057194 0.5436992690303386 0  0.1435177509932114 0.5553311001739191 0  0.1500023297100982 0.5663360078433433 0  0.1576199219884113 0.5765893020373785 0  0.1662842174638018 0.5859748088357979 0  0.175897046206457 0.5943861866963172 0  0.1863494910256309 0.6017281313467605 0  0.1975231215449374 0.6079174556205463 0  0.2092913360658364 0.612884032000524 0  0.2215207960154662 0.6165715871917652 0  0.2340729367259534 0.6189383397204808 0  0.246805537427467 0.6199574733348143 0  0.25957433266637 0.61961744084369 0  0.2722346468904537 0.6179220949511025 0  0.2846430336807546 0.6148906446034407 0  0.2966589010567985 0.6105574373444496 0  0.308146104439918 0.6049715701438354 0  0.3189744892257288 0.5981963331089802 0  0.3290213654878046 0.5903084923827366 0  0.3381728981035681 0.581397420352354 0  0.3463253965517156 0.5715640830246201 0  0.3533864897672567 0.5609198960406608 0  0.3592761727425896 0.5495854622922054 0  0.3639277130162057 0.5376892054426339 0  0.367288406778144 0.5253659148355549 0  0.3643020278915642 0.7626509454143191 0  0.365 0.75 0  0.3643020278915642 0.7373490545856809 0  0.3622165840021551 0.7248516745112668 0  0.358768982795573 0.7126595610414613 0  0.3540010734802214 0.7009207099179136 0  0.3479707320164077 0.6897776148913941 0  0.3407511585805852 0.6793655380406882 0  0.3324299890143719 0.6698108678741905 0  0.3231082310441463 0.661229585144623 0  0.312899038184079 0.6537258549998092 0  0.3019263362057523 0.6473907625588847 0  0.2903233188471667 0.6423012072623386 0  0.2782308310211918 0.6385189694169769 0  0.2657956591491169 0.6360899602666871 0  0.2531687493723386 0.6350436646921306 0  0.2405033752706818 0.635392783304233 0  0.22795327732877 0.637133078275972 0  0.2156707967348051 0.6402434247838567 0  0.2038050261649085 0.6446860674346684 0  0.1924999999999999 0.6504070785647895 0  0.1818929459435272 0.6573370128489875 0  0.1721126192630398 0.6653917502725899 0  0.1632777398756569 0.6744735172345105 0  0.1554955512490968 0.6844720733863194 0  0.1488605186112538 0.6952660498007366 0  0.1434531822702978 0.706724422225999 0  0.1393391799644362 0.7187081015427865 0  0.1365684501086869 0.7310716221177157 0  0.1351746256101686 0.7436649075590754 0  0.1351746256101686 0.7563350924409246 0  0.1365684501086869 0.7689283778822844 0  0.1393391799644362 0.7812918984572135 0  0.1434531822702978 0.793275577774001 0  0.1488605186112538 0.8047339501992635 0  0.1554955512490968 0.8155279266136807 0  0.1632777398756569 0.8255264827654895 0  0.1721126192630398 0.8346082497274101 0  0.1818929459435273 0.8426629871510125 0  0.1925 0.8495929214352105 0  0.2038050261649085 0.8553139325653316 0  0.2156707967348051 0.8597565752161433 0  0.2279532773287701 0.862866921724028 0  0.2405033752706818 0.864607216695767 0  0.2531687493723386 0.8649563353078694 0  0.2657956591491169 0.8639100397333128 0  0.2782308310211919 0.8614810305830229 0  0.2903233188471668 0.8576987927376613 0  0.3019263362057523 0.8526092374411153 0  0.3128990381840791 0.8462741450001908 0  0.3231082310441463 0.838770414855377 0  0.3324299890143719 0.8301891321258095 0  0.3407511585805852 0.8206344619593118 0  0.3479707320164076 0.810222385108606 0  0.3540010734802214 0.7990792900820864 0  0.358768982795573 0.7873404389585386 0  0.3622165840021551 0.7751483254887332 0  0.5991790013823246 0.2627877161684506 0  0.6 0.25 0  0.5991790013823246 0.2372122838315493 0  0.596729486303903 0.2246345416090492 0  0.5926916757346021 0.2124732995120625 0  0.5871318704123389 0.2009282447996062 0  0.5801413621867956 0.1901889469508783 0  0.5718349350097727 0.1804317449396513 0  0.5623489801858733 0.171816851753197 0  0.5518392568310524 0.1644857236994653 0  0.5404783343122394 0.1585587376984187 0  0.5284527586631032 0.1541332146963339 0  0.5159599895033379 0.151281821658555 0  0.5032051577571655 0.1500513783799312 0  0.4903976974092318 0.1504620887050802 0  0.4777479066043686 0.1525072087818176 0  0.4654634945578693 0.1561531577950239 0  0.4537461709759165 0.1613400693627 0  0.442788333987783 0.1679827745403044 0  0.4327699109738683 0.1759722002924685 0  0.4238554041630865 0.1851771604692212 0  0.4161911895108159 0.1954465098789452 0  0.4099031132097581 0.2066116260882442 0  0.4050944252989331 0.2184891781976379 0  0.4018440843008935 0.2308841371298628 0  0.4002054607249664 0.2435929780019287 0  0.4002054607249664 0.2564070219980713 0  0.4018440843008935 0.2691158628701373 0  0.4050944252989331 0.2815108218023621 0  0.4099031132097581 0.2933883739117558 0  0.4161911895108159 0.3045534901210549 0  0.4238554041630866 0.3148228395307789 0  0.4327699109738683 0.3240277997075315 0  0.442788333987783 0.3320172254596956 0  0.4537461709759165 0.3386599306373 0  0.4654634945578692 0.3438468422049761 0  0.4777479066043686 0.3474927912181824 0  0.4903976974092318 0.3495379112949198 0  0.5032051577571656 0.3499486216200688 0  0.515959989503338 0.348718178341445 0  0.5284527586631033 0.345866785303666 0  0.5404783343122394 0.3414412623015812 0  0.5518392568310525 0.3355142763005346 0  0.5623489801858733 0.328183148246803 0  0.5718349350097728 0.3195682550603486 0  0.5801413621867957 0.3098110530491216 0  0.5871318704123389 0.2990717552003938 0  0.5926916757346021 0.2875267004879374 0  0.596729486303903 0.2753654583909507 0  0.5941523613747042 0.512662260760509 0  0.595 0.5 0  0.5941523613747041 0.487337739239491 0  0.5916245716301658 0.4749014368222278 0  0.5874617392342607 0.462913018859468 0  0.5817381500297132 0.4515864189537678 0  0.5745559416014728 0.4411237605487768 0  0.5660432806290909 0.4317117500315967 0  0.5563520757492887 0.4235183449528815 0  0.5456552667427349 0.4166897568203662 0  0.5341437384195636 0.4113478419510477 0  0.5220229142754153 0.4075879269423215 0  0.5095090907042894 0.4054771075665921 0  0.4968255771842709 0.4050530514456258 0  0.4841987113146026 0.4063233258709473 0  0.4718538198158648 0.4092652627653433 0  0.4600111975693082 0.4138263631952
[...]
<PointData  Vectors="f_u"> 
<DataArray  type="Float64"  Name="f_u"  NumberOfComponents="3" format="ascii">-3.1519395109442482e-02 5.0000000000000003e-02 0.0000000000000000e+00  -3.2704902730088352e-02 0.0000000000000000e+00 0.0000000000000000e+00  -4.0233969789944604e-02 0.0000000000000000e+00 0.0000000000000000e+00  -3.8566488700328021e-02 5.0000000000000003e-02 0.0000000000000000e+00  -3.3523339742096717e-02 1.3067846113271761e-02 0.0000000000000000e+00  -3.3498016789234912e-02 1.1396677060846714e-02 0.0000000000000000e+00  -3.3617402324425012e-02 9.7038417373470874e-03 0.0000000000000000e+00  -3.3848226446887765e-02 8.1635874013950022e-03 0.0000000000000000e+00  -3.4121333608782396e-02 6.7824721059391579e-03 0.0000000000000000e+00  -3.4360447451338059e-02 5.6301719464472225e-03 0.0000000000000000e+00  -3.4564998008614199e-02 4.6243543970873133e-03 0.0000000000000000e+00  -3.4690565436264302e-02 3.7678947171300120e-03 0.0000000000000000e+00  -3.4774401466523552e-02 3.0394343127252872e-03 0.0000000000000000e+00  -3.4803339400923880e-02 2.3980604600628420e-03 0.0000000000000000e+00  -3.4790642443218604e-02 1.8606317954028822e-03 0.0000000000000000e+00  -3.4733033588115511e-02 1.4142632099901997e-03 0.0000000000000000e+00  -3.4652643942314112e-02 1.0474668088129983e-03 0.0000000000000000e+00  -3.4556817574560139e-02 7.5608284218559019e-04 0.0000000000000000e+00  -3.4443760190925959e-02 5.3064476928614882e-04 0.0000000000000000e+00  -3.4307905479033216e-02 3.7622071541116225e-04 0.0000000000000000e+00  -3.4156215051656481e-02 2.8587729804588065e-04 0.0000000000000000e+00  -3.3978107183546664e-02 2.6435136932763078e-04 0.0000000000000000e+00  -3.3774264156361547e-02 3.1162359648783403e-04 0.0000000000000000e+00  -3.3542963922819559e-02 4.3575803999189137e-04 0.0000000000000000e+00  -3.3260409043111346e-02 6.4585074829210743e-04 0.0000000000000000e+00  -3.2944277635349246e-02 9.6472131473547204e-04 0.0000000000000000e+00  -3.2588908527744417e-02 1.3899111714914488e-03 0.0000000000000000e+00  -3.2186949299967571e-02 1.9315926965508845e-03 0.0000000000000000e+00  -3.1754438030934119e-02 2.5969321485748318e-03 0.0000000000000000e+00  -3.1299027296390607e-02 3.3956219562625897e-03 0.0000000000000000e+00  -3.0827463750461120e-02 4.3181517362828707e-03 0.0000000000000000e+00  -3.0369068401072556e-02 5.3719272326995847e-03 0.0000000000000000e+00  -2.9930589034603779e-02 6.5131771173933912e-03 0.0000000000000000e+00  -2.9547116891515710e-02 7.7719039194645394e-03 0.0000000000000000e+00  -2.9225210876953164e-02 9.0574468165395237e-03 0.0000000000000000e+00  -2.8969838666183613e-02 1.0403003441620770e-02 0.0000000000000000e+00  -2.8828930113627874e-02 1.1757997773721831e-02 0.0000000000000000e+00  -2.8768344835422476e-02 1.3078775695959924e-02 0.0000000000000000e+00  -2.8807950953262232e-02 1.4353637610146986e-02 0.0000000000000000e+00  -2.8943275943091564e-02 1.5517306202797928e-02 0.0000000000000000e+00  -2.9129863644399817e-02 1.6590094883919240e-02 0.0000000000000000e+00  -2.9391636186998756e-02 1.7506881431532943e-02 0.0000000000000000e+00  -2.9672536950356151e-02 1.8254303160005408e-02 0.0000000000000000e+00  -2.9960768097380949e-02 1.8840338781419809e-02 0.0000000000000000e+00  -3.0229115199207880e-02 1.9226893990289391e-02 0.0000000000000000e+00  -3.0469003954140209e-02 1.9453381695888779e-02 0.0000000000000000e+00  -3.0644874732372769e-02 1.9542156083798248e-02 0.0000000000000000e+00  -3.0761018091386490e-02 1.9565782054261533e-02 0.0000000000000000e+00  -3.0870821170563504e-02 1.9596629331470015e-02 0.0000000000000000e+00  -3.1007122402179871e-02 1.9672513213554222e-02 0.0000000000000000e+00  -3.1234817267902868e-02 1.9828181034217948e-02 0.0000000000000000e+00  -3.1580598831989069e-02 2.0130227349986051e-02 0.0000000000000000e+00  -3.2060621867535992e-02 2.0661715743218775e-02 0.0000000000000000e+00  -3.2437331390290827e-02 2.0962597646158716e-02 0.0000000000000000e+00  -3.2730582929415331e-02 2.1082658347419951e-02 0.0000000000000000e+00  -3.2916532007380615e-02 2.1095086771246704e-02 0.0000000000000000e+00  -3.3082024085903411e-02 2.1074772247664231e-02 0.0000000000000000e+00  -3.3255500287221955e-02 2.0998686111854632e-02 0.0000000000000000e+00  -3.3479801803002716e-02 2.0810496043233467e-02 0.0000000000000000e+00  -3.3705660152560005e-02 2.0457980366841495e-02 0.0000000000000000e+00  -3.3905808058191711e-02 1.9898886565958104e-02 0.0000000000000000e+00  -3.4043421913890072e-02 1.9167173317222366e-02 0.0000000000000000e+00  -3.4089976745068674e-02 1.8281120627885911e-02 0.0000000000000000e+00  -3.4009280385729035e-02 1.7220826144379274e-02 0.0000000000000000e+00  -3.3853770829219768e-02 1.6020626213526772e-02 0.0000000000000000e+00  -3.3676742343010851e-02 1.4645953966489236e-02 0.0000000000000000e+00  -3.2626186118029830e-02 2.9204378570052949e-02 0.0000000000000000e+00  -3.2599433326904903e-02 2.7959931003533212e-02 0.0000000000000000e+00  -3.2667879487839051e-02 2.6715504352861470e-02 0.0000000000000000e+00  -3.2848631259735327e-02 2.5539326814278403e-02 0.0000000000000000e+00  -3.3073218750526802e-02 2.4462533913309156e-02 0.0000000000000000e+00  -3.3251868785082628e-02 2.3531123339012059e-02 0.0000000000000000e+00  -3.3350802050623032e-02 2.2711607640295738e-02 0.0000000000000000e+00  -3.3372111785440597e-02 2.2020384121274283e-02 0.0000000000000000e+00  -3.3291899511579619e-02 2.1514766589451201e-02 0.0000000000000000e+00  -3.3175053223913134e-02 2.1205588051041311e-02 0.0000000000000000e+00  -3.3065703130524884e-02 2.1078951468153508e-02 0.0000000000000000e+00  -3.2969068916250822e-02 2.1078968549078609e-02 0.0000000000000000e+00  -3.2899062474256405e-02 2.1124704182807964e-02 0.0000000000000000e+00  -3.2804275524215130e-02 2.1138809490541224e-02 0.0000000000000000e+00  -3.2620536107444087e-02 2.1060291020662422e-02 0.0000000000000000e+00  -3.2299490136255479e-02 2.0799436292679697e-02 0.0000000000000000e+00  -3.1900462696520374e-02 2.0322408113592295e-02 0.0000000000000000e+00  -3.1452026075343850e-02 1.9957618704016081e-02 0.0000000000000000e+00  -3.1176956320645172e-02 1.9739137265617965e-02 0.0000000000000000e+00  -3.0991761984310629e-02 1.9653545413448808e-02 0.0000000000000000e+00  -3.0868592473907767e-02 1.9592975094111658e-02 0.0000000000000000e+00  -3.0760087125096539e-02 1.9552771389005533e-02 0.0000000000000000e+00  -3.0604979608400716e-02 1.9579078133775199e-02 0.0000000000000000e+00  -3.0403515399950658e-02 1.9742993284713028e-02 0.0000000000000000e+00  -3.0151304381409900e-02 2.0052426159025014e-02 0.0000000000000000e+00  -2.9874485382076758e-02 2.0561765147428183e-02 0.0000000000000000e+00  -2.9606469420329296e-02 2.1264351254444234e-02 0.0000000000000000e+00  -2.9363598813297968e-02 2.2111071891830508e-02 0.0000000000000000e+00  -2.9158027020017564e-02 2.3076121670077190e-02 0.0000000000000000e+00  -2.9022875772074432e-02 2.4148985869147866e-02 0.0000000000000000e+00  -2.8945041457132753e-02 2.5269514701904052e-02 0.0000000000000000e+00  -2.8934751128560077e-02 2.6444978548201516e-02 0.0000000000000000e+00  -2.8998666885976406e-02 2.7555902820513064e-02 0.0000000000000000e+00  -2.9134058102967621e-02 2.8676877661635528e-02 0.0000000000000000e+00  -2.9324672913916935e-02 2.9695146667666469e-02 0.0000000000000000e+00  -2.9571866564202205e-02 3.0611853740526006e-02 0.0000000000000000e+00  -2.9842951609476528e-02 3.1393082040261804e-02 0.0000000000000000e+00  -3.0114129861180308e-02 3.1999426915030847e-02 0.0000000000000000e+00  -3.0387468950491749e-02 3.2450589733630374e-02 0.0000000000000000e+00  -3.0623407292214501e-02 3.2735752758086642e-02 0.0000000000000000e+00  -3.0795547700908966e-02 3.2893783712302914e-02 0.0000000000000000e+00  -3.0914543168652445e-02 3.2989402146019253e-02 0.0000000000000000e+00  -3.0989924751354227e-02 3.3102725075125301e-02 0.0000000000000000e+00  -3.1073599127479479e-02 3.3297946228901004e-02 0.0000000000000000e+00  -3.1166864978405925e-02 3.3627924639280923e-02 0.0000000000000000e+00  -3.1325453459041135e-02 3.4096711749073541e-02 0.0000000000000000e+00  -3.1524956488371440e-02 3.4592330112521337e-02 0.0000000000000000e+00  -3.1727808701293617e-02 3.4983935593251109e-02 0.0000000000000000e+00  -3.1919400340059828e-02 3.5224718997775288e-02 0.0000000000000000e+00  -3.2077717575822035e-02 3.5356932327292735e-02 0.0000000000000000e+00  -3.2256430092212303e-02 3.5404111295380125e-02 0.0000000000000000e+00  -3.2452156243988041e-02 3.5332804467897258e-02 0.0000000000000000e+00  -3.2666761594776779e-02 3.5111396859064316e-02 0.0000000000000000e+00  -3.2837151858432383e-02 3.4684172214652247e-02 0.0000000000000000e+00  -3.2981660674508806e-02 3.4107891541428181e-02 0.0000000000000000e+00  -3.3030445762001259e-02 3.3349756168530170e-02 0.0000000000000000e+00  -3.2993733472582075e-02 3.2470520030945825e-02 0.0000000000000000e+00  -3.2882601632626483e-02 3.1487522998915836e-02 0.0000000000000000e+00  -3.2738486881136397e-02 3.0371381682502221e-02 0.0000000000000000e+00  -3.2734926419103909e-02 4.2597304673516856e-02 0.0000000000000000e+00  -3.2646725130991469e-02 4.1569868400777359e-02 0.0000000000000000e+00  -3.2626340104453547e-02 4.0552375846527974e-02 0.0000000000000000e+00  -3.2680225888331034e-02 3.9561539355842210e-02 0.0000000000000000e+00  -3.2755483589712704e-02 3.8661190821923153e-02 0.0000000000000000e+00  -3.2833984064286580e-02 3.7819434809352979e-02 0.0000000000000000e+00  -3.2839941602006081e-02 3.7073764998987159e-02 0.0000000000000000e+00  -3.2786698122516666e-02 3.6459648732448183e-02 0.0000000000000000e+00  -3.2686906913271474e-02 3.5980356258661098e-02 0.0000000000000000e+00  -3.2530117332189849e-02 3.5673075015439655e-02 0.0000000000000000e+00  -3.2407547104903810e-02 3.5500523142612511e-02 0.0000000000000000e+00  -3.2312603881886212e-02 3.5420678746002097e-02 0.0000000000000000e+00  -3.2251194199389592e-02 3.5337254308163035e-02 0.0000000000000000e+00  -3.2188511078508779e-02 3.5169659697910582e-02 0.0000000000000000e+00  -3.2096767895449262e-02 3.4864461287100953e-02 0.0000000000000000e+00  -3.1963902715858764e-02 3.4413592493432593e-02 0.0000000000000000e+00  -3.1772003908883524e-02 3.3904134076410020e-02 0.0000000000000000e+00  -3.1563447652756323e-02 3.3498909655746305e-02 0.0000000000000000e+00  -3.1407407599391590e-02 3.3237283279778561e-02 0.0000000000000000e+00  -3.1260941477013797e-02 3.3062413479106004e-02 0.0000000000000000e+00  -3.1131539123469949e-02 3.2956115439477580e-02 0.0000000000000000e+00  -3.0958469402712581e-02 3.2936740068356583e-02 0.0000000000000000e+00  -3.0746972257635383e-02 3.3048317207674538e-02 0.0000000000000000e+00  -3.0484959659306147e-02 3.3340641786956580e-02 0.0000000000000000e+00  -3.0198385702724481e-02 3.3802653424330524e-02 0.0000000000000000e+00  -2.9933437960748543e-02 3.4489969393615844e-02 0.0000000000000000e+00  -2.9675767970879438e-02 3.5311923520372948e-02 0.0000000000000000e+00  -2.9472497565731726e-02 3.6290570492825525e-02 0.0000000000000000e+00  -2.9333260932329130e-02 3.7349994912702474e-02 0.0000000000000000e+00  -2.9262409313943426e-02 3.8532442381579046e-02 0.0000000000000000e+00  -2.9294314547208714e-02 3.9755421608833073e-02 0.0000000000000000e+00  -2.9379243105606447e-02 4.0996791623931841e-02 0.0000000000000000e+00  -2.9524990596123124e-02 4.2218766925368134e-02 0.0000000000000000e+00  -2.9773416384072427e-02 4.3382273071287704e-02 0.0000000000000000e+00  -3.0044942358942481e-02 4.4497784650746414e-02 0.0000000000000000e+00  -3.0375414012938598e-02 4.5518219618372671e-02 0.0000000000000000e+00  -3.0715872172334183e-02 4.6413079588043984e-02 0.0000000000000000e+00  -3.1056524859274407e-02 4.7211717608806582e-02 0.0000000000000000e+00  -3.1387535204583240e-02 4.7875926452447697e-02 0.0000000000000000e+00  -3.1689842497696651e-02 4.8425545004708082e-02 0.0000000000000000e+00  -3.1983963790446185e-02 4.8848529870419821e-02 0.0000000000000000e+00  -3.2241456412552348e-02 4.9154811749208834e-02 0.0000000000000000e+00  -3.2468558054053312e-02 4.9357460823995274e-02 0.0000000000000000e+00  -3.2672180965278436e-02 4.9480726947670077e-02 0.0000000000000000e+00  -3.2843085405704880e-02 4.9510916023606584e-02 0.0000000000000000e+00  -3.2990594064589034e-02 4.9454193081010789e-02 0.0000000000000000e+00  -3.3121287699716437e-02 4.9317358546374840e-02 0.0000000000000000e+00  -3.3231116902514360e-02 4.9115686279895515e-02 0.0000000000000000e+00  -3.3326078652476381e-02 4.8832322874489430e-02 0.0000000000000000e+00  -3.3390222622099064e-02 4.8464914925383351e-02 0.0000000000000000e+00  -3.3432079306754625e-02 4.8019851949779403e-02 0.0000000000000000e+00  -3.3443355651416262e-02 4.7487841232791310e-02 0.0000000000000000e+00  -3.3401788412865632e-02 4.6872671136412955e-02 0.0000000000000000e+00  -3.3328853933685253e-02 4.6188586713243517e-02 0.0000000000000000e+00  -3.3198413736376574e-02 4.5388739300278737e-02 0.0000000000000000e+00  -3.3052305980777179e-02 4.4549671270688249e-02 0.0000000000000000e+00  -3.2882517538035227e-02 4.3594638727680088e-02 0.0000000000000000e+00  -3.6407691605154634e-02 1.2681687963087674e-02 0.0000000000000000e+00  -3.6359057467148598e-02 1.1396874914809067e-02 0.0000000000000000e+00  -3.6342301137803366e-02 1.0069982540069206e-02 0.0000000000000000e+00  -3.6428670514906079e-02 8.7797176748050931e-03 0.0000000000000000e+00  -3.6515067768932367e-02 7.5545016912695762e-03 0.0000000000000000e+00  -3.6579310376874216e-02 6.3853002918417886e-03 0.0000000000000000e+00  -3.6608928880263812e-02 5.3153084862663288e-03 0.0000000000000000e+00  -3.6571395175176290e-02 4.3632350750917575e-03 0.0000000000000000e+00  -3.6494625060173716e-02 3.5260644355188911e-03 0.0000000000000000e+00  -3.6371710713688776e-02 2.8071509282178455e-03 0.0000000000000000e+00  -3.6224790305237654e-02 2.2548262262100985e-03 0.0000000000000000e+00  -3.6059903969661675e-02 1.8227548131984389e-03 0.0000000000000000e+00  -3.5884473330001387e-02 1.5405726302400299e-03 0.0000000000000000e+00  -3.5707074505147256e-02 1.3840614220714969e-03 0.0000000000000000e+00  -3.5540289415663014e-02 1.3551355555379587e-03 0.0000000000000000e+00  -3.5398007963207787e-02 1.4453202047675093e-03 0.0000000000000000e+00  -3.5271475139455166e-02 1.6589232577387367e-03 0.0000000000000000e+00  -3.5168078944133568e-02 1.9845077370413749e-03 0.0000000000000000e+00  -3.5093760591151900e-02 2.4192774620938997e-03 0.0000000000000000e+00  -3.5036112612217500e-02 2.9864219512473395e-03 0.0000000000000000e+00  -3.4999838498797536e-02 3.6693952035495537e-03 0.0000000000000000e+00  -3.4960028974758778e-02 4.4873497361328602e-03 0.0000000000000000e+00  -3.4881983771755914e-02 5.5215247872569722e-03 0.0000000000000000e+00  -3.4774508261030852e-02 6.8251919050535039e-03 0.0000000000000000e+00  -3.4587954429509904e-02 8.4249198869658214e-03 0.0000000000000000e+00  -3.4435969233044095e-02 1.0318399708960480e-02 0.0000000000000000e+00  -3.4379580687425436e-02 1.2283631070935714e-02 0.0000000000000000e+00  -3.4427733678910888e-02 1.4136453446640572e-02 0.0000000000000000e+00  -3.4530348483468885e-02 1.5720235478041859e-02 0.0000000000000000e+00  -3.4603279511261326e-02 1.7027780874390566e-02 0.0000000000000000e+00  -3.4634560995984380e-02 1.8046763529585660e-02 0.0000000000000000e+00  -3.4695943463169600e-02 1.8844844649218016e-02 0.0000000000000000e+00  -3.4801217718478376e-02 1.9419804829874963e-02 0.0000000000000000e+00  -3.4953866883015126e-02 1.9825418924678810e-02 0.0000000000000000e+00  -3.5084738497097943e-02 2.0035048570789984e-02 0.0000000000000000e+00  -3.5217955023172355e-02 2.0080913602407251e-02 0.0000000000000000e+00  -3.5305553468888973e-02 2.0036922940036683e-02 0.0000000000000000e+00  -3.5366352776626239e-02 1.9954619184110761e-02 0.0000000000000000e+00  -3.5412855292556104e-02 1.9869759874540965e-02 0.0000000000000000e+00  -3.5466162707421853e-02 1.9796999115867027e-02 0.0000000000000000e+00  -3.5550393937206180e-02 1.9719685218703469e-02 0.0000000000000000e+00  -3.5688786188004369e-02 1.9584660905663572e-02 0.0000000000000000e+00  -3.5862305850203058e-02 1.9338260781289682e-02 0.0000000000000000e+00  -3.6094847594717976e-02 1.8912771308347662e-02 0.0000000000000000e+00  -3.6303652969573968e-02 1.8277700271072547e-02 0.0000000000000000e+00  -3.6467509183335502e-02 1.7422871273620681e-02 0.0000000000000000e+00  -3.6535131301612678e-02 1.6413389037557579e-02 0.0000000000000000e+00  -3.6523755801037526e-02 1.5252608433081646e-02 0.0000000000000000e+00  -3.6454911880936164e-02 1.3994739328518779e-02 0.0000000000000000e+00  -3.6240508972402614e-02 2.7934644272486334e-02 0.0000000000000000e+00  -3.6244383740035413e-02 2.6699452127374852e-02 0.0000000000000000e+00  -3.6315613530030363e-02 2.5470283985216939e-02 0.0000000000000000e+00  -3.6357451327450101e-02 2.4301706429618694e-02 0.0000000000000000e+00  -3.6392306564348068e-02 2.3157048467875412e-02 0.0000000000000000e+00  -3.6321469380216478e-02 2.2133833216687212e-02 0.0000000000000000e+00  -3.6206880784982007e-02 2.1253823431003342e-02 0.0000000000000000e+00  -3.6003731248091392e-02 2.0558224979654146e-02 0.0000000000000000e+00  -3.5790160181126317e-02 2.0082953837995021e-02 0.0000000000000000e+00  -3.5557629652199475e-02 1.9831813003979508e-02 0.0000000000000000e+00  -3.5379562483619918e-02 1.9748832322386382e-02 0.0000000000000000e+00  -3.5253044230895599e-02 1.9765344213942083e-02 0.0000000000000000e+00  -3.5157422532053374e-02 1.9840427102673350e-02 0.0000000000000000e+00  -3.5075802441720524e-02 1.9919762501592213e-02 0.0000000000000000e+00  -3.4992074854644617e-02 2.0005303093919666e-02 0.0000000000000000e+00  -3.4875462314038132e-02 2.0108378665193792e-02 0.0000000000000000e+00  -3.4725604243607940e-02 2.0267312855741248e-02 0.0000000000000000e+00  -3.4514304141711742e-02 2.0535235208888305e-02 0.0000000000000000e+00  -3.4295158400152057e-02 2.0955037740426192e-02 0.0000000000000000e+00  -3.4077014798186131e-02 2.1558294375355433e-02 0.0000000000000000e+00  -3.3914301277080068e-02 2.2347883020456275e-02 0.0000000000000000e+00  -3.3775557037026005e-02 2.3277887714516738e-02 0.0000000000000000e+00  -3.3651523581995614e-02 2.4414733461418113e-02 0.0000000000000000e+00  -3.3546238138456433e-02 2.5670332131244356e-02 0.0000000000000000e+00  -3.3460342635074088e-02 2.7102662594525814e-02 0.0000000000000000e+00  -3.3428570412141853e-02 2.8602013715770255e-02 0.0000000000000000e+00  -3.3443348148971985e-02 3.0027987980877854e-02 0.0000000000000000e+00  -3.3501346721011266e-02 3.1258552585375014e-02 0.0000000000000000e+00  -3.3554895230931199e-02 3.2351235907512536e-02 0.0000000000000000e+00  -3.3617977313254686e-02 3.3243277551288308e-02 0.0000000000000000e+00  -3.3723073058570426e-02 3.3967539597500630e-02 0.0000000000000000e+00  -3.3887020681771782e-02 3.4505360775593505e-02 0.0000000000000000e+00  -3.4070718172491812e-02 3.4851724200871348e-02 0.0000000000000000e+00  -3.4256649755725843e-02 3.5048811432217948e-02 0.0000000000000000e+00  -3.4426368578043570e-02 3.5087272576260264e-02 0.0000000000000000e+00  -3.4554177718185447e-02 3.5029494415028860e-02 0.0000000000000000e+00  -3.4655491627666318e-02 3.4924801485666596e-02 0.0000000000000000e+00  -3.4751436773488055e-02 3.4798434015831999e-02 0.0000000000000000e+00  -3.4867766815362258e-02 3.4656467738249930e-02 0.0000000000000000e+00  -3.5019566962039013e-02 3.4475897783956662e-02 0.0000000000000000e+00  -3.5232214413098609e-02 3.4198331328240190e-02 0.0000000000000000e+00  -3.5473252447619869e-02 3.3754670217411548e-02 0.0000000000000000e+00  -3.5702876890890217e-02 3.3130945257859319e-02 0.0000000000000000e+00  -3.5935068952821426e-02 3.2351975094924615e-02 0.0000000000000000e+00  -3.6095662906681911e-02 3.1386986915358697e-02 0.0000000000000000e+00  -3.6177225919323916e-02 3.0284465599093105e-02 0.0000000000000000e+00  -3.6220411826977127e-02 2.9128524943249332e-02 0.0000000000000000e+00  -3.5087257476478867e-02 4.1506227970133362e-02 0.0000000000000000e+00  -3.5083072961401236e-02 4.0409338411723450e-02 0.0000000000000000e+00  -3.50914400359