<?xml version="1.0"?>
<VTKFile type="UnstructuredGrid"  version="0.1"  >
<UnstructuredGrid>
<Piece  NumberOfPoints="9282" NumberOfCells="17020">
<Points>
<DataArray  type="Float64"  NumberOfComponents="3"  format="ascii">0 1 0  0 0 0  1 0 0  1 1 0  0.08682478782975533 0.4476257436759869 0  0.0895340851671743 0.4357555364568845 0  0.08682478782975533 0.423885329237782 0  0.07923350538252552 0.4143661621369608 0  0.06826378441512818 0.4090834229436615 0  0.05608831269995523 0.4090834229436615 0  0.04511859173255792 0.4143661621369608 0  0.03752730928532811 0.423885329237782 0  0.03481801194790914 0.4357555364568845 0  0.03752730928532812 0.4476257436759869 0  0.04511859173255792 0.4571449107768081 0  0.05608831269995523 0.4624276499701075 0  0.0682637844151282 0.4624276499701075 0  0.07923350538252552 0.4571449107768081 0  0.1899876437577894 0.3640556093364088 0  0.1912758738753838 0.351387408458041 0  0.1899876437577894 0.3387192075796731 0  0.1861756936973812 0.326569644333716 0  0.1799960853775173 0.3154361232669723 0  0.1717018126888862 0.3057744520400476 0  0.161632444129896 0.2979801806081703 0  0.1502002208324525 0.2923724073595495 0  0.1378731793615821 0.2891807151898692 0  0.125155990243468 0.288535772351564 0  0.1125692966948124 0.2904639828802116 0  0.1006283994283707 0.2948864056102141 0  0.08982216018122699 0.3016219860353926 0  0.08059298765783843 0.3103949687017432 0  0.07331872526569436 0.3208461866681237 0  0.06829718216181865 0.3325477658430246 0  0.06573394091089027 0.3450206422001484 0  0.06573394091089028 0.3577541747159336 0  0.06829718216181865 0.3702270510730573 0  0.07331872526569436 0.3819286302479583 0  0.08059298765783843 0.3923798482143389 0  0.08982216018122699 0.4011528308806894 0  0.1006283994283707 0.4078884113058679 0  0.1125692966948124 0.4123108340358704 0  0.1251559902434681 0.414239044564518 0  0.1378731793615821 0.4135941017262128 0  0.1502002208324525 0.4104024095565325 0  0.161632444129896 0.4047946363079117 0  0.1717018126888862 0.3970003648760345 0  0.1799960853775173 0.3873386936491097 0  0.1861756936973812 0.376205172582366 0  0.1828678258909014 0.2513371468841861 0  0.1851320124962211 0.2392248183614215 0  0.1828678258909014 0.2271124898386569 0  0.1763810570222817 0.216635998399621 0  0.1665477799704965 0.2092102522653986 0  0.1546960332894583 0.2058381395988963 0  0.1424264610412368 0.2069750829012466 0  0.1313961369460012 0.2124675316794466 0  0.123094767393949 0.2215737002912912 0  0.1186434983425612 0.2330637502067286 0  0.1186434983425612 0.2453858865161145 0  0.123094767393949 0.2568759364315518 0  0.1313961369460013 0.2659821050433965 0  0.1424264610412368 0.2714745538215965 0  0.1546960332894583 0.2726114971239467 0  0.1665477799704965 0.2692393844574444 0  0.1763810570222818 0.261813638323222 0  0.3239200284398542 0.5876524401115168 0  0.3245214047020349 0.5750279987359848 0  0.3239200284398542 0.5624035573604526 0  0.3221213458098676 0.5498934448809604 0  0.3191416459605052 0.5376109548133613 0  0.3150079135150207 0.5256673192896979 0  0.3097575841945649 0.5141707017227906 0  0.3034382057944973 0.5032252172616202 0  0.296107007584189 0.4929299899084175 0  0.2878303820298966 0.4833782548363484 0  0.2786832835343068 0.4746565140373482 0  0.2687485496378592 0.466843752946688 0  0.2581161508291514 0.4600107251386404 0  0.2468823757582628 0.4542193115711558 0  0.2351489592318285 0.4495219601823239 0  0.2230221608868764 0.4459612109137249 0  0.2106118028870995 0.4435693104621307 0  0.1980302753563354 0.442367920248426 0  0.1853915185562002 0.442367920248426 0  0.1728099910254361 0.4435693104621307 0  0.1603996330256592 0.4459612109137249 0  0.1482728346807071 0.449521960182324 0  0.1365394181542728 0.4542193115711559 0  0.1253056430833842 0.4600107251386405 0  0.1146732442746764 0.466843752946688 0  0.1047385103782288 0.4746565140373483 0  0.09559141188263902 0.4833782548363484 0  0.08731478632834659 0.4929299899084175 0  0.0799835881180382 0.5032252172616203 0  0.07366420971797064 0.5141707017227907 0  0.06841388039751484 0.525667319289698 0  0.06428014795203041 0.5376109548133613 0  0.06130044810266802 0.5498934448809605 0  0.05950176547268143 0.5624035573604527 0  0.05890038921050064 0.5750279987359848 0  0.05950176547268143 0.587652440111517 0  0.06130044810266805 0.6001625525910091 0  0.06428014795203044 0.6124450426586083 0  0.06841388039751485 0.6243886781822715 0  0.07366420971797068 0.635885295749179 0  0.07998358811803824 0.6468307802103493 0  0.08731478632834658 0.657126007563552 0  0.09559141188263903 0.6666777426356212 0  0.1047385103782288 0.6753994834346212 0  0.1146732442746764 0.6832122445252815 0  0.1253056430833843 0.6900452723333291 0  0.1365394181542728 0.6958366859008136 0  0.1482728346807071 0.7005340372896456 0  0.1603996330256592 0.7040947865582446 0  0.1728099910254361 0.7064866870098387 0  0.1853915185562002 0.7076880772235434 0  0.1980302753563354 0.7076880772235434 0  0.2106118028870996 0.7064866870098387 0  0.2230221608868764 0.7040947865582446 0  0.2351489592318285 0.7005340372896456 0  0.2468823757582628 0.6958366859008136 0  0.2581161508291514 0.690045272333329 0  0.2687485496378592 0.6832122445252815 0  0.2786832835343069 0.6753994834346212 0  0.2878303820298966 0.6666777426356212 0  0.2961070075841891 0.657126007563552 0  0.3034382057944974 0.6468307802103492 0  0.3097575841945649 0.635885295749179 0  0.3150079135150208 0.6243886781822715 0  0.3191416459605052 0.6124450426586082 0  0.3221213458098676 0.600162552591009 0  0.6035345950608042 0.2773186360929012 0  0.6039661160781503 0.2645492567203695 0  0.6035345950608042 0.2517798773478376 0  0.6022420009401942 0.2390687617245962 0  0.6000942315268232 0.2264739077558106 0  0.5971010865999116 0.2140527828713827 0  0.5932762231932528 0.2018620618152493 0  0.5886370932813003 0.1899573680515242 0  0.5832048641498105 0.1783930199673888 0  0.577004321814374 0.1672217830307507 0  0.5700637579275099 0.1564946290335152 0  0.5624148406903452 0.1462605035189901 0  0.5540924703578762 0.1365661024545977 0  0.5451346199971104 0.1274556591688857 0  0.5355821622246698 0.1189707425249941 0  0.5254786827144169 0.1111500672514674 0  0.5148702813260218 0.1040293172958276 0  0.5038053617618751 0.09764098300690599 0  0.4923344107120964 0.09201421288883352 0  0.4805097674953471 0.08717468060310241 0  0.4683853852465234 0.08314446782553647 0  0.4560165847409763 0.07994196349266958 0  0.4434598019785033 0.07758177989724582 0  0.4307723306788238 0.07607468601567907 0  0.4180120608634778 0.07542755837168361 0  0.4052372147169359 0.07564334966027372 0  0.392506080932124 0.07672107527529345 0  0.3798767487524874 0.07865581780194886 0  0.3674068429240968 0.08143874945384352 0  0.3551532607671473 0.08505717235214358 0  0.3431719125665382 0.0894945764630859 0  0.3315174664660648 0.09473071492947599 0  0.3202430990302182 0.1007416964524532 0  0.3094002526117179 0.1075000943020077 0  0.2990384006318544 0.1149750714588592 0  0.2892048218446163 0.1231325213167025 0  0.2799443846145785 0.1319352233028303 0  0.2712993421928466 0.141343012707069 0  0.2633091399251627 0.1513129639441387 0  0.2560102352718404 0.1617995864132543 0  0.249435931460735 0.1727550320613024 0  0.2436162255322534 0.1841293137025333 0  0.2385776714697385 0.1958705330986252 0  0.2343432590397342 0.2079251177584414 0  0.2309323088949531 0.2202380653770202 0  0.22836038441857 0.2327531947984778 0  0.2266392207120735 0.2454134023577356 0  0.2257766710506901 0.2581609224314478 0  0.2257766710506901 0.2709375910092913 0  0.2266392207120735 0.2836851110830034 0  0.22836038441857 0.2963453186422613 0  0.2309323088949531 0.3088604480637188 0  0.2343432590397342 0.3211733956822976 0  0.2385776714697385 0.3332279803421138 0  0.2436162255322533 0.3449691997382056 0  0.249435931460735 0.3563434813794367 0  0.2560102352718404 0.3672989270274847 0  0.2633091399251627 0.3777855494966003 0  0.2712993421928466 0.38775550073367 0  0.2799443846145785 0.3971632901379087 0  0.2892048218446163 0.4059659921240365 0  0.2990384006318545 0.4141234419818799 0  0.3094002526117179 0.4215984191387313 0  0.3202430990302184 0.4283568169882858 0  0.3315174664660649 0.4343677985112631 0  0.3431719125665382 0.4396039369776531 0  0.3551532607671474 0.4440413410885955 0  0.3674068429240968 0.4476597639868954 0  0.3798767487524875 0.4504426956387901 0  0.3925060809321239 0.4523774381654455 0  0.4052372147169359 0.4534551637804652 0  0.4180120608634779 0.4536709550690554 0  0.4307723306788237 0.4530238274250599 0  0.4434598019785033 0.4515167335434932 0  0.4560165847409764 0.4491565499480694 0  0.4683853852465234 0.4459540456152026 0  0.4805097674953471 0.4419238328376366 0  0.4923344107120964 0.4370843005519054 0  0.5038053617618751 0.4314575304338331 0  0.5148702813260219 0.4250691961449113 0  0.525478682714417 0.4179484461892715 0  0.5355821622246698 0.4101277709157449 0  0.5451346199971104 0.4016428542718533 0  0.5540924703578763 0.3925324109861412 0  0.5624148406903452 0.3828380099217489 0  0.5700637579275099 0.3726038844072238 0  0.5770043218143741 0.3618767304099882 0  0.5832048641498107 0.3507054934733501 0  0.5886370932813003 0.3391411453892147 0  0.5932762231932529 0.3272364516254896 0  0.5971010865999116 0.3150457305693563 0  0.6000942315268232 0.3026246056849284 0  0.6022420009401942 0.2900297517161427 0  0.6321661395054307 0.08878772825799099 0  0.6344303261107503 0.07667539973522641 0  0.6321661395054307 0.06456307121246184 0  0.6256793706368111 0.0540865797734259 0  0.6158460935850258 0.04666083363920352 0  0.6039943469039877 0.04328872097270122 0  0.5917247746557661 0.04442566427505144 0  0.5806944505605306 0.04991811305325149 0  0.5723930810084783 0.05902428166509609 0  0.5679418119570905 0.0705143315805335 0  0.5679418119570905 0.08283646788991934 0  0.5723930810084783 0.09432651780535675 0  0.5806944505605306 0.1034326864172014 0  0.5917247746557661 0.1089251351954014 0  0.6039943469039876 0.1100620784977516 0  0.6158460935850258 0.1066899658312493 0  0.6256793706
[...]
<PointData  Vectors="f_u"> 
<DataArray  type="Float64"  Name="f_u"  NumberOfComponents="3" format="ascii">-1.4575153212280470e-02 5.0000000000000003e-02 0.0000000000000000e+00  -1.2776183680889829e-02 0.0000000000000000e+00 0.0000000000000000e+00  -1.9221076888507736e-02 0.0000000000000000e+00 0.0000000000000000e+00  -2.0665925459049488e-02 5.0000000000000003e-02 0.0000000000000000e+00  -2.6510093478209601e-03 2.0013189483654895e-02 0.0000000000000000e+00  -4.2981054836710598e-03 1.8586230496482385e-02 0.0000000000000000e+00  -5.2141469119866392e-03 1.7332376770609878e-02 0.0000000000000000e+00  -4.5788237975861830e-03 1.5619240065471754e-02 0.0000000000000000e+00  -2.9376006543300527e-03 1.4292266356406279e-02 0.0000000000000000e+00  -1.4306354694591907e-03 1.4411057724276888e-02 0.0000000000000000e+00  -1.0913114603926678e-04 1.5744116026726682e-02 0.0000000000000000e+00  1.3101728719114665e-03 1.7931904659069194e-02 0.0000000000000000e+00  2.2101313872759281e-03 2.0174935705031358e-02 0.0000000000000000e+00  2.5763403354945816e-03 2.2226389565142737e-02 0.0000000000000000e+00  2.2364717080703119e-03 2.3666313905464167e-02 0.0000000000000000e+00  1.6014020527874964e-03 2.4021185603822329e-02 0.0000000000000000e+00  6.1689406223091529e-04 2.3345957339796594e-02 0.0000000000000000e+00  -8.9276070708992940e-04 2.1777252410088987e-02 0.0000000000000000e+00  -4.3106827130696568e-03 7.8924667848192624e-03 0.0000000000000000e+00  -3.9675150615052172e-03 7.7969485472496663e-03 0.0000000000000000e+00  -3.9371159777163529e-03 7.6001636379020958e-03 0.0000000000000000e+00  -4.1727490940115198e-03 7.3528862191407085e-03 0.0000000000000000e+00  -4.5908914993015078e-03 7.1826626384854063e-03 0.0000000000000000e+00  -5.1644106911915861e-03 7.1163882895863067e-03 0.0000000000000000e+00  -5.8399147829610639e-03 7.0209966944432883e-03 0.0000000000000000e+00  -6.4264211480006602e-03 6.5914134867417519e-03 0.0000000000000000e+00  -6.6551414095121809e-03 5.8078550057261424e-03 0.0000000000000000e+00  -6.5983009540743574e-03 5.4255968487073739e-03 0.0000000000000000e+00  -6.3110654445514202e-03 5.6592497319556826e-03 0.0000000000000000e+00  -5.9490515475636527e-03 6.3016117347090492e-03 0.0000000000000000e+00  -5.5149523373922878e-03 7.2024639750329772e-03 0.0000000000000000e+00  -5.0071452281494153e-03 8.3083208197254448e-03 0.0000000000000000e+00  -4.4498704122787015e-03 9.5102068149028381e-03 0.0000000000000000e+00  -3.9459655325230292e-03 1.0721870177336446e-02 0.0000000000000000e+00  -3.4797485476994175e-03 1.1872419172659548e-02 0.0000000000000000e+00  -3.0851697218376955e-03 1.2825469008854621e-02 0.0000000000000000e+00  -2.6438065450829027e-03 1.3508864444142220e-02 0.0000000000000000e+00  -2.2508504001965586e-03 1.4106712681365558e-02 0.0000000000000000e+00  -2.1080626129552564e-03 1.5089849484450022e-02 0.0000000000000000e+00  -3.2197841712661626e-03 1.6659118606804284e-02 0.0000000000000000e+00  -4.8336881876931380e-03 1.7330547176999053e-02 0.0000000000000000e+00  -6.0408584010967293e-03 1.6266878184534719e-02 0.0000000000000000e+00  -6.6749323112670535e-03 1.4482367018834931e-02 0.0000000000000000e+00  -7.0482940831949094e-03 1.2471686472755237e-02 0.0000000000000000e+00  -7.1814722798919295e-03 1.0602182119643581e-02 0.0000000000000000e+00  -7.0014145602830622e-03 9.1822697742903071e-03 0.0000000000000000e+00  -6.4907969129886136e-03 8.2852725823658029e-03 0.0000000000000000e+00  -5.7328155547124639e-03 7.9528976024709538e-03 0.0000000000000000e+00  -4.9428869868245262e-03 7.8975352152966805e-03 0.0000000000000000e+00  -7.8683060973195711e-03 6.2183180332838987e-03 0.0000000000000000e+00  -9.0130348647264585e-03 5.3680721033072332e-03 0.0000000000000000e+00  -9.9269520976611025e-03 4.4752401021543519e-03 0.0000000000000000e+00  -1.0581680636832550e-02 3.7352726332130701e-03 0.0000000000000000e+00  -1.0826387766996737e-02 3.2886653130799401e-03 0.0000000000000000e+00  -1.0880720148206836e-02 3.0973097628759199e-03 0.0000000000000000e+00  -1.0672345066393731e-02 3.1818043897033723e-03 0.0000000000000000e+00  -1.0253021688488821e-02 3.5093830183039361e-03 0.0000000000000000e+00  -9.7133122361847471e-03 4.0345714328467713e-03 0.0000000000000000e+00  -9.0609651724240011e-03 4.5517333974306054e-03 0.0000000000000000e+00  -8.3485354641238199e-03 4.9750006090590760e-03 0.0000000000000000e+00  -7.5629569628290873e-03 5.2190478462809499e-03 0.0000000000000000e+00  -6.7616323882331297e-03 5.4343976207432429e-03 0.0000000000000000e+00  -6.1881667151402935e-03 6.0559035800023791e-03 0.0000000000000000e+00  -6.0031575765771492e-03 6.8481180589545550e-03 0.0000000000000000e+00  -6.2569972514544409e-03 7.1585030603820692e-03 0.0000000000000000e+00  -6.8639854397162716e-03 6.8607237142416736e-03 0.0000000000000000e+00  -1.5198849307350050e-02 3.3208657122617301e-02 0.0000000000000000e+00  -1.5778810707872272e-02 3.2284087897899875e-02 0.0000000000000000e+00  -1.6299992723829610e-02 3.1355685169010543e-02 0.0000000000000000e+00  -1.6817272324344580e-02 3.0413072652630671e-02 0.0000000000000000e+00  -1.7287172132869660e-02 2.9362620168916279e-02 0.0000000000000000e+00  -1.7652727937676735e-02 2.8195530768885754e-02 0.0000000000000000e+00  -1.7810767737705430e-02 2.6807624804869166e-02 0.0000000000000000e+00  -1.7689800824273259e-02 2.5210766271584736e-02 0.0000000000000000e+00  -1.7322106783300359e-02 2.3432756870286738e-02 0.0000000000000000e+00  -1.6737194452308445e-02 2.1413076054279188e-02 0.0000000000000000e+00  -1.5882970731543621e-02 1.9207900440496244e-02 0.0000000000000000e+00  -1.4759329718757361e-02 1.6940815001639742e-02 0.0000000000000000e+00  -1.3481642013482722e-02 1.4790255086400835e-02 0.0000000000000000e+00  -1.2144718130150892e-02 1.2849807901393949e-02 0.0000000000000000e+00  -1.0849431060618735e-02 1.1262532544986844e-02 0.0000000000000000e+00  -9.5920060837885422e-03 9.9807951392663560e-03 0.0000000000000000e+00  -8.4981819162301374e-03 9.0647363235808430e-03 0.0000000000000000e+00  -7.3970123015884952e-03 8.5301798139332426e-03 0.0000000000000000e+00  -6.3020790452100054e-03 8.4153260712562690e-03 0.0000000000000000e+00  -5.1731924207829164e-03 8.8168815134963430e-03 0.0000000000000000e+00  -3.9507606540529136e-03 9.8317797966534261e-03 0.0000000000000000e+00  -2.8482673027299859e-03 1.1283804449705552e-02 0.0000000000000000e+00  -1.9238014739420147e-03 1.2929872919856063e-02 0.0000000000000000e+00  -1.0321811491880543e-03 1.4448164718887095e-02 0.0000000000000000e+00  8.1644661700218564e-05 1.5938844199878260e-02 0.0000000000000000e+00  1.4706751992986714e-03 1.7649606162559884e-02 0.0000000000000000e+00  2.6573839713666964e-03 1.9613549711091645e-02 0.0000000000000000e+00  3.3996911550781932e-03 2.1344801441370312e-02 0.0000000000000000e+00  3.8803543961250567e-03 2.2680823384583361e-02 0.0000000000000000e+00  4.3134534590632372e-03 2.3802108742885776e-02 0.0000000000000000e+00  4.8212473913998022e-03 2.4894019642420117e-02 0.0000000000000000e+00  5.3281049950913394e-03 2.6181639020100862e-02 0.0000000000000000e+00  5.7532924762856708e-03 2.7556825588519983e-02 0.0000000000000000e+00  5.9670980357349086e-03 2.9119829583696414e-02 0.0000000000000000e+00  5.9184199468532879e-03 3.0806108071275248e-02 0.0000000000000000e+00  5.5268447251083201e-03 3.2520623117217158e-02 0.0000000000000000e+00  4.8191057215679848e-03 3.4265956196401798e-02 0.0000000000000000e+00  3.9188045578238467e-03 3.5977314537545428e-02 0.0000000000000000e+00  2.8234664976800198e-03 3.7595881477294299e-02 0.0000000000000000e+00  1.6388493016517704e-03 3.9179419588829027e-02 0.0000000000000000e+00  3.9207307262066377e-04 4.0603602278454679e-02 0.0000000000000000e+00  -7.8767149728563193e-04 4.1918668172586680e-02 0.0000000000000000e+00  -1.9036493181630982e-03 4.3133807021356031e-02 0.0000000000000000e+00  -2.9241840296364689e-03 4.4235789906189302e-02 0.0000000000000000e+00  -3.8318047868009485e-03 4.5221710236054750e-02 0.0000000000000000e+00  -4.6205098276066291e-03 4.6124216152052880e-02 0.0000000000000000e+00  -5.3310603644497008e-03 4.6928011521517404e-02 0.0000000000000000e+00  -5.9612856566504859e-03 4.7630866780668621e-02 0.0000000000000000e+00  -6.5647338215079429e-03 4.8110513428596069e-02 0.0000000000000000e+00  -7.0992169176205735e-03 4.8324040186856848e-02 0.0000000000000000e+00  -7.6078719939638023e-03 4.8244920560492344e-02 0.0000000000000000e+00  -8.1539457394047502e-03 4.7847670677883203e-02 0.0000000000000000e+00  -8.7563041040209597e-03 4.7128907683328322e-02 0.0000000000000000e+00  -9.3358259835514424e-03 4.5950857460716601e-02 0.0000000000000000e+00  -9.7838767041953361e-03 4.4501280370764965e-02 0.0000000000000000e+00  -1.0024434876780603e-02 4.2990710996938505e-02 0.0000000000000000e+00  -1.0150660782445534e-02 4.1721882969845553e-02 0.0000000000000000e+00  -1.0168708130323074e-02 4.0696910861812353e-02 0.0000000000000000e+00  -1.0266645744660022e-02 3.9933442245800331e-02 0.0000000000000000e+00  -1.0502656304751064e-02 3.9297512056751471e-02 0.0000000000000000e+00  -1.0927432856883064e-02 3.8676449873991978e-02 0.0000000000000000e+00  -1.1529278547329720e-02 3.7966764695554878e-02 0.0000000000000000e+00  -1.2261464653087108e-02 3.7148979965153484e-02 0.0000000000000000e+00  -1.3047871897972759e-02 3.6218736462263770e-02 0.0000000000000000e+00  -1.3826628951736019e-02 3.5219171294877401e-02 0.0000000000000000e+00  -1.4561895019662669e-02 3.4192009743243892e-02 0.0000000000000000e+00  -2.0071877311846949e-02 1.3297150240592946e-02 0.0000000000000000e+00  -2.0615654417044771e-02 1.2509637890501463e-02 0.0000000000000000e+00  -2.1089741233107910e-02 1.1687540562998313e-02 0.0000000000000000e+00  -2.1422972256882489e-02 1.0734082540761117e-02 0.0000000000000000e+00  -2.1603860016641916e-02 9.6741364034775516e-03 0.0000000000000000e+00  -2.1437583797235690e-02 8.5018206523197054e-03 0.0000000000000000e+00  -2.0972255913260771e-02 7.2786233195463431e-03 0.0000000000000000e+00  -2.0236965738795337e-02 6.1087203047070528e-03 0.0000000000000000e+00  -1.9357019322415913e-02 5.0958587444529559e-03 0.0000000000000000e+00  -1.8493631354376174e-02 4.2227939861786985e-03 0.0000000000000000e+00  -1.7761350018661023e-02 3.4516140048356284e-03 0.0000000000000000e+00  -1.7126699278939207e-02 2.7134084131705595e-03 0.0000000000000000e+00  -1.6547488272265556e-02 1.9977150874235534e-03 0.0000000000000000e+00  -1.5989889441406759e-02 1.4021600378798691e-03 0.0000000000000000e+00  -1.5555972483903854e-02 1.0083443440542859e-03 0.0000000000000000e+00  -1.5270298388941780e-02 7.6446761160311495e-04 0.0000000000000000e+00  -1.5152344388488344e-02 6.1549144859033200e-04 0.0000000000000000e+00  -1.5093150868125465e-02 5.1168542836843882e-04 0.0000000000000000e+00  -1.5067238025675257e-02 4.1079590186005250e-04 0.0000000000000000e+00  -1.5040319224990689e-02 3.1882417211721598e-04 0.0000000000000000e+00  -1.5000207072640647e-02 2.3828960663746534e-04 0.0000000000000000e+00  -1.4950337181397972e-02 1.7321624105209914e-04 0.0000000000000000e+00  -1.4890955511502298e-02 1.2422129895528361e-04 0.0000000000000000e+00  -1.4826897524736404e-02 8.6928309032836856e-05 0.0000000000000000e+00  -1.4761329671349207e-02 5.8631047208327384e-05 0.0000000000000000e+00  -1.4695348014233330e-02 3.5908722833065473e-05 0.0000000000000000e+00  -1.4629310701733468e-02 1.6420262656314906e-05 0.0000000000000000e+00  -1.4560394679593648e-02 -2.1492674653023822e-06 0.0000000000000000e+00  -1.4486742546903388e-02 -2.0860073787411653e-05 0.0000000000000000e+00  -1.4405804776254664e-02 -3.7058843335828319e-05 0.0000000000000000e+00  -1.4311286481871383e-02 -5.0485479523117559e-05 0.0000000000000000e+00  -1.4203229628866691e-02 -5.5764886047953022e-05 0.0000000000000000e+00  -1.4073228407870491e-02 -5.1483973795373068e-05 0.0000000000000000e+00  -1.3927452747306342e-02 -2.6156642166754564e-05 0.0000000000000000e+00  -1.3748438148543310e-02 1.9142811243659723e-05 0.0000000000000000e+00  -1.3552243376160688e-02 8.9232591065136399e-05 0.0000000000000000e+00  -1.3325646586602588e-02 1.9302491445947001e-04 0.0000000000000000e+00  -1.3072077722979063e-02 3.3330341864500139e-04 0.0000000000000000e+00  -1.2790042433886399e-02 5.0880248507304893e-04 0.0000000000000000e+00  -1.2489599764901426e-02 7.2196647464633102e-04 0.0000000000000000e+00  -1.2164594008686434e-02 9.7698202805257214e-04 0.0000000000000000e+00  -1.1821095565321215e-02 1.2665865472636189e-03 0.0000000000000000e+00  -1.1449548937854770e-02 1.5716599216799494e-03 0.0000000000000000e+00  -1.1032966676795011e-02 1.8968899384109795e-03 0.0000000000000000e+00  -1.0499844720241224e-02 2.2085282634761467e-03 0.0000000000000000e+00  -9.7871766572102496e-03 2.5670311521748166e-03 0.0000000000000000e+00  -8.8806371504391995e-03 3.0010540522352365e-03 0.0000000000000000e+00  -7.8737405127744242e-03 3.6197803109487541e-03 0.0000000000000000e+00  -6.9567857451455608e-03 4.3394118485779072e-03 0.0000000000000000e+00  -6.1536663168013199e-03 5.1265305785840416e-03 0.0000000000000000e+00  -5.5053438656465174e-03 5.9024241622176229e-03 0.0000000000000000e+00  -4.9402965609356827e-03 6.7305445803121939e-03 0.0000000000000000e+00  -4.5065288864410517e-03 7.5887721353695790e-03 0.0000000000000000e+00  -4.2126587400611428e-03 8.5302214139547829e-03 0.0000000000000000e+00  -4.0802599190425393e-03 9.5749465505871999e-03 0.0000000000000000e+00  -4.0445684981506962e-03 1.0693569959240248e-02 0.0000000000000000e+00  -4.1298884917622056e-03 1.1936927342865482e-02 0.0000000000000000e+00  -4.3237841992465409e-03 1.3388267421716372e-02 0.0000000000000000e+00  -4.6480015738408114e-03 1.5073265204219543e-02 0.0000000000000000e+00  -5.1782764877950308e-03 1.6979133865398673e-02 0.0000000000000000e+00  -6.0202116140049009e-03 1.9082875615691372e-02 0.0000000000000000e+00  -7.1288514732430249e-03 2.1297451552115331e-02 0.0000000000000000e+00  -8.3932841869223413e-03 2.3417785876681058e-02 0.0000000000000000e+00  -9.7907734493367510e-03 2.5343363404226462e-02 0.0000000000000000e+00  -1.1201330254679285e-02 2.6897079419766854e-02 0.0000000000000000e+00  -1.2512062729175681e-02 2.8122037041729990e-02 0.0000000000000000e+00  -1.3690210232151386e-02 2.8939328697622373e-02 0.0000000000000000e+00  -1.4670733110394529e-02 2.9420344622708063e-02 0.0000000000000000e+00  -1.5535980575729271e-02 2.9516665932213693e-02 0.0000000000000000e+00  -1.6230427775483829e-02 2.9342726962433764e-02 0.0000000000000000e+00  -1.6758700793604111e-02 2.8928990805095717e-02 0.0000000000000000e+00  -1.7198656584037630e-02 2.8402292533711303e-02 0.0000000000000000e+00  -1.7592559616668526e-02 2.7733824560874008e-02 0.0000000000000000e+00  -1.7988582724426241e-02 2.6928671107877413e-02 0.0000000000000000e+00  -1.8339461301539364e-02 2.6002775194014911e-02 0.0000000000000000e+00  -1.8655066932367306e-02 2.4957084331993968e-02 0.0000000000000000e+00  -1.8881408579534558e-02 2.3844667826584551e-02 0.0000000000000000e+00  -1.9011134453806793e-02 2.2706901542010986e-02 0.0000000000000000e+00  -1.9012083097738473e-02 2.1602266678253441e-02 0.0000000000000000e+00  -1.8920237302264942e-02 2.0590561294815315e-02 0.0000000000000000e+00  -1.8697899718724410e-02 1.9712841569300452e-02 0.0000000000000000e+00  -1.8351161106581762e-02 1.8983796242445589e-02 0.0000000000000000e+00  -1.7944506932236533e-02 1.8402396700037283e-02 0.0000000000000000e+00  -1.7514492634739483e-02 1.8012996386825530e-02 0.0000000000000000e+00  -1.7169393457772093e-02 1.7740074498518821e-02 0.0000000000000000e+00  -1.6976163704690985e-02 1.7504629735024407e-02 0.0000000000000000e+00  -1.6953970882108656e-02 1.7251931296230906e-02 0.0000000000000000e+00  -1.7093872126149327e-02 1.6927132776890237e-02 0.0000000000000000e+00  -1.7395999183163185e-02 1.6529023008683637e-02 0.0000000000000000e+00  -1.7813518433831419e-02 1.6025452754121958e-02 0.0000000000000000e+00  -1.8341809413819962e-02 1.5437612831261001e-02 0.0000000000000000e+00  -1.8912974966598620e-02 1.4766654411615052e-02 0.0000000000000000e+00  -1.9497843125850928e-02 1.4059087884045984e-02 0.0000000000000000e+00  -1.7533976613629848e-02 3.2326092794963258e-03 0.0000000000000000e+00  -1.7832651362351661e-02 1.9270947304230886e-03 0.0000000000000000e+00  -1.7728894156337233e-02 1.0910858113806286e-03 0.0000000000000000e+00  -1.7440301209661224e-02 5.4227988722630024e-04 0.0000000000000000e+00  -1.7044876523128059e-02 2.5361238454560940e-04 0.0000000000000000e+00  -1.6567578901662734e-02 1.1242941119645977e-04 0.0000000000000000e+00  -1.6149367949414371e-02 1.2305529304117402e-04 0.0000000000000000e+00  -1.5694930950032025e-02 2.5394908041377178e-04 0.0000000000000000e+00  -1.5322438136226319e-02 5.2750037252902811e-04 0.0000000000000000e+00  -1.5012620835645514e-02 9.4376461156960175e-04 0.0000000000000000e+00  -1.4815946052163931e-02 1.5633835629857663e-03 0.0000000000000000e+00  -1.4736052214112297e-02 2.4299632625169559e-03 0.0000000000000000e+00  -1.4836556076454725e-02 3.5646395018122824e-03 0.0000000000000000e+00  -1.5024317601031520e-02 4.7539515825768472e-03 0.0000000000000000e+00  -1.5354657874188457e-02 5.6878264922021358e-03 0.0000000000000000e+00  -1.5882968696036552e-02 5.8857462388565568e-03 0.0000000000000000e+00  -1.6727097638652849e-02 4.9011542404681589e-03 0.0000000000000000e+00  -8.5207706748895960e-03 4.7802351422862238e-02 0.0000000000000000e+00  -7.3348910298255826e-03 4.7998495173473765e-02 0.0000000000000000e+00  -7.0269652028920803e-03 4.8225184980891664e-02 0.0000000000000000e+00  -7.2675049342148619e-03 4.8349284764385429e-02 0.0000000000000000e+00  -7.5360827496806513e-03 4.8102179933729602e-02 0.0000000000000000e+00  -7.7265802035221282e-03 4.7463482997337804e-02 0.0000000000000000e+00  -8.1122894794325405e-03 4.6663854349882634e-02 0.0000000000000000e+00  -8.6522239356767363e-03 4.6046446683949624e-02 0.0000000000000000e+00  -9.2920659376457548e-03 4.5828145239567887e-02 0.0000000000000000e+00  -9.9458630929012241e-03 4.6037564652071504e-02 0.0000000000000000e+00  -1.0533708840130121e-02 4.6504975859829531e-02 0.0000000000000000e+00  -1.0925684955841862e-02 4.7023339927769942e-02 0.0000000000000000e+00  -1.1030629986560399e-02 4.7417382493754198e-02 0.0000000000000000e+00  -1.0710790753024769e-02 4.7644562829819867e-02 0.0000000000000000e+00  -9.8748913527417961e-03 4.7747730662394745e-02 0.0000000000000000e+00  -1.4538810217889084e-02 4.1277506808170258e-02 0.0000000000000000e+00  -1.3287890705000100e-02 4.0447130215433849e-02 0.0000000000000000e+00  -1.1928885814334898e-02 3.9650827481985222e-02 0.0000000000000000e+00  -1.0586406249104854e-02 3.8920542418651130e-02 0.0000000000000000e+00  -9.3746888427137052e-03 3.8461840570642905e-02 0.0000000000000000e+00  -8.4420263756803064e-03 3.8305390783387974e-02 0.0000000000000000e+00  -7.7491726734069833e-03 3.8481151191176392e-02 0.0000000000000000e+00  -7.2606572747346033e-03 3.9009215042765777e-02 0.0000000000000000e+00  -6.9347948004008855e-03 3.9840226749656510e-02 0.0000000000000000e+00  -6.6683248913529331e-03 4.0951929253526836e-02 0.0000000000000000e+00  -6.3949669867122659e-03 4.2360691086842241e-02 0.0000000000000000e+00  -6.2015100062091759e-03 4.3967658906673340e-02 0.0000000000000000e+00  -6.2265814565077736e-03 4.5570643405907142e-02 0.0000000000000000e+00  -6.4321142940104315e-03 4.6884428057834153e-02 0.0000000000000000e+00  -6.7805044759531819e-03 4.7851342357872841e-02 0.0000000000000000e+00  -7.4678707386399857e-03 4.8603271776789497e-02 0.0000000000000000e+00  -8.6180428061941507e-03 4.9027004686611447e-02 0.0000000000000000e+00  -1.0049796066080703e-02 4.9127680506661477e-02 0.0000000000000000e+00  -1.1153087603316101e-02 4.9124816205437696e-02 0.0000000000000000e+00  -1.1962409217000375e-02 4.9181481579075217e-02 0.0000000000000000e+00  -1.2655777969373139e-02 4.9315745011157000e-02 0.0000000000000000e+00  -1.3259144412474139e-02 4.9449368235818643e-02 0.0000000000000000e+00  -1.3775634259526002e-02 4.9586801739840231e-02 0.0000000000000000e+00  -1.4213563335492507e-02 4.9676