<?xml version="1.0"?>
<VTKFile type="UnstructuredGrid"  version="0.1"  >
<UnstructuredGrid>
<Piece  NumberOfPoints="9558" NumberOfCells="17846">
<Points>
<DataArray  type="Float64"  NumberOfComponents="3"  format="ascii">0 1 0  0 0 0  1 0 0  1 1 0  0.2962462297074247 0.5667764423166002 0  0.2969160382717402 0.5539957335462841 0  0.2962462297074247 0.5412150247759679 0  0.2942441425772751 0.5285743441254747 0  0.2909317121668531 0.5162121855372435 0  0.2863452301569059 0.5042639914077151 0  0.2805349470041175 0.492860668652093 0  0.2735645213865897 0.4821271544607864 0  0.2655103227460437 0.4721810474614076 0  0.2564605945682346 0.4631313192835985 0  0.2465144875688557 0.4550771206430523 0  0.2357809733775492 0.4481066950255246 0  0.224377650621927 0.4422964118727362 0  0.2124294564923986 0.437709929862789 0  0.2000672979041675 0.434397499452367 0  0.1874266172536741 0.4323954123222174 0  0.174645908483358 0.4317256037579019 0  0.1618651997130418 0.4323954123222174 0  0.1492245190625485 0.434397499452367 0  0.1368623604743174 0.437709929862789 0  0.124914166344789 0.4422964118727363 0  0.1135108435891669 0.4481066950255247 0  0.1027773293978604 0.4550771206430524 0  0.09283122239848153 0.4631313192835985 0  0.0837814942206724 0.4721810474614076 0  0.07572729558012632 0.4821271544607864 0  0.0687568699625986 0.492860668652093 0  0.0629465868098102 0.5042639914077151 0  0.05836010479986296 0.5162121855372435 0  0.05504767438944096 0.5285743441254747 0  0.05304558725929137 0.5412150247759679 0  0.05237577869497582 0.5539957335462842 0  0.05304558725929137 0.5667764423166002 0  0.05504767438944096 0.5794171229670935 0  0.05836010479986298 0.5917792815553247 0  0.06294658680981019 0.6037274756848531 0  0.06875686996259861 0.6151307984404751 0  0.07572729558012635 0.6258643126317818 0  0.08378149422067242 0.6358104196311606 0  0.09283122239848159 0.6448601478089697 0  0.1027773293978604 0.6529143464495157 0  0.113510843589167 0.6598847720670435 0  0.1249141663447891 0.665695055219832 0  0.1368623604743174 0.6702815372297791 0  0.1492245190625486 0.6735939676402012 0  0.1618651997130419 0.6755960547703508 0  0.1746459084833581 0.6762658633346663 0  0.1874266172536742 0.6755960547703507 0  0.2000672979041674 0.6735939676402012 0  0.2124294564923986 0.6702815372297791 0  0.224377650621927 0.6656950552198319 0  0.2357809733775492 0.6598847720670434 0  0.2465144875688557 0.6529143464495157 0  0.2564605945682345 0.6448601478089697 0  0.2655103227460437 0.6358104196311606 0  0.2735645213865897 0.6258643126317818 0  0.2805349470041175 0.6151307984404751 0  0.2863452301569059 0.6037274756848531 0  0.2909317121668531 0.5917792815553247 0  0.2942441425772751 0.5794171229670935 0  0.4671084661317482 0.2774637603850804 0  0.4676473378928454 0.2647782995855627 0  0.4671084661317482 0.252092838786045 0  0.4654957334318435 0.2394987770222745 0  0.4628207595691899 0.2270868547978516 0  0.4591028177917647 0.2149465002968214 0  0.4543686959552705 0.2031651850515597 0  0.4486525035160216 0.1918277937083769 0  0.4419954257715288 0.1810160124316958 0  0.4344454271194881 0.1708077403533671 0  0.426056905473195 0.1612765283076365 0  0.4168903003233336 0.1524910488957011 0  0.4070116572700611 0.1445146016980425 0  0.3964921521629445 0.1374046571994997 0  0.3854075782773351 0.1312124427131088 0  0.3738378002220806 0.1259825732861384 0  0.3618661785131902 0.1217527302476521 0  0.3495789689594056 0.1185533897136689 0  0.3370647011871222 0.1164076030060486 0  0.3244135407824036 0.1153308305671904 0  0.3117166396458661 0.1153308305671904 0  0.2990654792411474 0.1164076030060486 0  0.2865512114688643 0.1185533897136688 0  0.2742640019150795 0.1217527302476522 0  0.2622923802061891 0.1259825732861385 0  0.2507226021509346 0.1312124427131088 0  0.239638028265325 0.1374046571994998 0  0.2291185231582087 0.1445146016980425 0  0.2192398801049361 0.1524910488957011 0  0.2100732749550748 0.1612765283076366 0  0.2016847533087817 0.1708077403533671 0  0.1941347546567408 0.181016012431696 0  0.1874776769122482 0.1918277937083768 0  0.1817614844729993 0.2031651850515598 0  0.1770273626365051 0.2149465002968215 0  0.1733094208590798 0.2270868547978516 0  0.1706344469964262 0.2394987770222747 0  0.1690217142965215 0.2520928387860451 0  0.1684828425354243 0.2647782995855627 0  0.1690217142965215 0.2774637603850804 0  0.1706344469964262 0.2900578221488508 0  0.1733094208590798 0.3024697443732738 0  0.1770273626365051 0.314610098874304 0  0.1817614844729993 0.3263914141195657 0  0.1874776769122482 0.3377288054627486 0  0.1941347546567409 0.3485405867394294 0  0.2016847533087817 0.3587488588177583 0  0.2100732749550748 0.3682800708634889 0  0.2192398801049362 0.3770655502754243 0  0.2291185231582087 0.3850419974730829 0  0.2396380282653252 0.3921519419716257 0  0.2507226021509347 0.3983441564580166 0  0.2622923802061891 0.403574025884987 0  0.2742640019150795 0.4078038689234733 0  0.2865512114688642 0.4110032094574566 0  0.2990654792411475 0.4131489961650768 0  0.3117166396458662 0.414225768603935 0  0.3244135407824036 0.414225768603935 0  0.3370647011871223 0.4131489961650768 0  0.3495789689594055 0.4110032094574566 0  0.3618661785131903 0.4078038689234733 0  0.3738378002220806 0.403574025884987 0  0.3854075782773351 0.3983441564580166 0  0.3964921521629446 0.3921519419716257 0  0.4070116572700611 0.3850419974730829 0  0.4168903003233336 0.3770655502754243 0  0.426056905473195 0.3682800708634889 0  0.4344454271194881 0.3587488588177583 0  0.4419954257715288 0.3485405867394294 0  0.4486525035160215 0.3377288054627486 0  0.4543686959552705 0.3263914141195656 0  0.4591028177917647 0.314610098874304 0  0.4628207595691899 0.3024697443732738 0  0.4654957334318436 0.2900578221488508 0  0.5140839711660742 0.09602065322555491 0  0.5157273301017384 0.08353810283129914 0  0.5140839711660742 0.07105555243704334 0  0.5092658865547677 0.05942366722376625 0  0.5016014207718184 0.04943514094615347 0  0.4916128944942056 0.04177067516320415 0  0.4799810092809285 0.03695259055189771 0  0.4674984588866727 0.03530923161623341 0  0.455015908492417 0.03695259055189771 0  0.4433840232791398 0.04177067516320417 0  0.4333954970015271 0.0494351409461535 0  0.4257310312185777 0.05942366722376629 0  0.4209129466072713 0.07105555243704338 0  0.419269587671607 0.08353810283129914 0  0.4209129466072713 0.09602065322555492 0  0.4257310312185777 0.107652538438832 0  0.4333954970015271 0.1176410647164448 0  0.4433840232791399 0.1253055304993941 0  0.455015908492417 0.1301236151107006 0  0.4674984588866727 0.1317669740463649 0  0.4799810092809285 0.1301236151107006 0  0.4916128944942056 0.1253055304993941 0  0.5016014207718185 0.1176410647164448 0  0.5092658865547678 0.107652538438832 0  0.1516663073665349 0.3763367331280458 0  0.1533096663021992 0.36385418273379 0  0.1516663073665349 0.3513716323395342 0  0.1468482227552285 0.3397397471262571 0  0.1391837569722791 0.3297512208486443 0  0.1291952306946663 0.322086755065695 0  0.1175633454813892 0.3172686704543886 0  0.1050807950871335 0.3156253115187242 0  0.09259824469287771 0.3172686704543886 0  0.08096635947960058 0.322086755065695 0  0.07097783320198778 0.3297512208486443 0  0.06331336741903848 0.3397397471262572 0  0.05849528280773204 0.3513716323395342 0  0.05685192387206774 0.36385418273379 0  0.05849528280773204 0.3763367331280458 0  0.06331336741903848 0.3879686183413228 0  0.07097783320198781 0.3979571446189357 0  0.08096635947960061 0.405621610401885 0  0.09259824469287771 0.4104396950131914 0  0.1050807950871335 0.4120830539488557 0  0.1175633454813892 0.4104396950131914 0  0.1291952306946663 0.405621610401885 0  0.1391837569722791 0.3979571446189357 0  0.1468482227552285 0.3879686183413228 0  0.3222076865573406 0.7953189074138386 0  0.3232306862384335 0.7826467825225927 0  0.3222076865573406 0.7699746576313468 0  0.319165182668445 0.7576307341184233 0  0.3141819738243155 0.7459347131188423 0  0.3073871225164558 0.7351895154328559 0  0.2989566118245685 0.7256734360363385 0  0.2891087875472298 0.7176329363870935 0  0.2780987031603989 0.7112762612025562 0  0.2662115140663635 0.7067680450309983 0  0.253755092218606 0.7042250483032062 0  0.2410520523999263 0.703713133298655 0  0.2284313966690281 0.7052455583470661 0  0.2162199933800165 0.7087826344446313 0  0.2047341114637221 0.7142327531783644 0  0.1942712292285205 0.7214547593358772 0  0.1851023298284044 0.7302616067512355 0  0.1774648829416358 0.7404252027024054 0  0.1715566944308156 0.7516823153929431 0  0.1675307832749456 0.7637413915172524 0  0.1654914184582488 0.7762901073380554 0  0.1654914184582488 0.78900345770713 0  0.1675307832749456 0.8015521735279328 0  0.1715566944308156 0.8136112496522424 0  0.1774648829416358 0.8248683623427799 0  0.1851023298284045 0.8350319582939499 0  0.1942712292285205 0.8438388057093081 0  0.204734111463722 0.8510608118668209 0  0.2162199933800166 0.8565109306005541 0  0.2284313966690281 0.8600480066981193 0  0.2410520523999263 0.8615804317465303 0  0.2537550922186061 0.8610685167419792 0  0.2662115140663635 0.858525520014187 0  0.2780987031603989 0.8540173038426292 0  0.2891087875472298 0.8476606286580919 0  0.2989566118245685 0.8396201290088469 0  0.3073871225164558 0.8301040496123294 0  0.3141819738243155 0.8193588519263431 0  0.319165182668445 0.8076628309267621 0  0.3502904823604249 0.4840937341119224 0  0.3536219862727894 0.4716603922453636 0  0.3502904823604249 0.4592270503788048 0  0.3411886444062306 0.4501252124246106 0  0.3287553025396718 0.446793708512246 0  0.316321960673113 0.4501252124246106 0  0.3072201227189187 0.4592270503788048 0  0.3038886188065543 0.4716603922453636 0  0.3072201227189188 0.4840937341119224 0  0.3163219606731131 0.4931955720661166 0  0.3287553025396718 0.4965270759784812 0  0.3411886444062306 0.4931955720661166 0  0.8587716763886428 0.6531886281651049 0  0.8590930857779883 0.6405051771475729 0  0.8587716763886428 0.6278217261300409 0  0.8578082732738992 0.6151708333493637 0  0.8562053494757358 0.6025849734658686 0  
[...]
<PointData  Vectors="f_u"> 
<DataArray  type="Float64"  Name="f_u"  NumberOfComponents="3" format="ascii">1.4184202084208813e-02 5.0000000000000003e-02 0.0000000000000000e+00  1.3832249721642213e-02 0.0000000000000000e+00 0.0000000000000000e+00  7.0303828643419938e-03 0.0000000000000000e+00 0.0000000000000000e+00  1.0147665936694424e-02 5.0000000000000003e-02 0.0000000000000000e+00  1.9172744377665439e-02 3.5518535103540652e-02 0.0000000000000000e+00  1.8607178205536649e-02 3.4753950257750153e-02 0.0000000000000000e+00  1.8047045493801275e-02 3.4052925920867290e-02 0.0000000000000000e+00  1.7414414353564046e-02 3.3397181714915854e-02 0.0000000000000000e+00  1.6675967869945414e-02 3.2756980323360399e-02 0.0000000000000000e+00  1.5835286226516958e-02 3.2067305369640461e-02 0.0000000000000000e+00  1.4930798376759216e-02 3.1180296736064095e-02 0.0000000000000000e+00  1.4198330679826869e-02 2.9854953497470336e-02 0.0000000000000000e+00  1.3753129113686724e-02 2.8159460076019219e-02 0.0000000000000000e+00  1.3659101521496363e-02 2.6078935731156248e-02 0.0000000000000000e+00  1.3917929069469379e-02 2.3647899865195322e-02 0.0000000000000000e+00  1.4604674946039972e-02 2.0896715743321553e-02 0.0000000000000000e+00  1.5568730201158216e-02 1.8025590687828528e-02 0.0000000000000000e+00  1.6754520040393895e-02 1.5353923016456701e-02 0.0000000000000000e+00  1.8060807787861954e-02 1.3097718212249088e-02 0.0000000000000000e+00  1.9310994256473195e-02 1.1324286133868797e-02 0.0000000000000000e+00  2.0524235465911884e-02 1.0100339235422941e-02 0.0000000000000000e+00  2.1820991121465357e-02 9.5045364901424588e-03 0.0000000000000000e+00  2.3202788225453623e-02 9.5351042128380952e-03 0.0000000000000000e+00  2.4557702843103605e-02 1.0312365508824013e-02 0.0000000000000000e+00  2.5817961025766174e-02 1.1804340107476254e-02 0.0000000000000000e+00  2.6772203024452299e-02 1.3476329706675233e-02 0.0000000000000000e+00  2.7525180988829150e-02 1.4913624128937640e-02 0.0000000000000000e+00  2.8224439983929078e-02 1.6112502118467754e-02 0.0000000000000000e+00  2.9054161100217111e-02 1.7172516205053220e-02 0.0000000000000000e+00  3.0073929201363918e-02 1.8256888982373338e-02 0.0000000000000000e+00  3.1248680620287371e-02 1.9468741420761670e-02 0.0000000000000000e+00  3.2516540094357775e-02 2.0875416675885300e-02 0.0000000000000000e+00  3.3762159470780470e-02 2.2502920669210023e-02 0.0000000000000000e+00  3.4888927974247141e-02 2.4277720818288731e-02 0.0000000000000000e+00  3.5701811700361442e-02 2.6244180675992223e-02 0.0000000000000000e+00  3.6105645252220243e-02 2.8247770298974722e-02 0.0000000000000000e+00  3.6053947421176138e-02 3.0335914629825350e-02 0.0000000000000000e+00  3.5505101743212794e-02 3.2352682878350400e-02 0.0000000000000000e+00  3.4587580974472946e-02 3.4348206213575802e-02 0.0000000000000000e+00  3.3475427292759152e-02 3.6226680553102679e-02 0.0000000000000000e+00  3.2233014986582528e-02 3.7947060695480976e-02 0.0000000000000000e+00  3.0923420119218132e-02 3.9531358214100802e-02 0.0000000000000000e+00  2.9671053503074949e-02 4.0983854743563447e-02 0.0000000000000000e+00  2.8497199697013576e-02 4.2285566567307288e-02 0.0000000000000000e+00  2.7436824589783148e-02 4.3442853752550747e-02 0.0000000000000000e+00  2.6503411790097974e-02 4.4479998740760425e-02 0.0000000000000000e+00  2.5663175971023910e-02 4.5361070199354765e-02 0.0000000000000000e+00  2.4915787563006112e-02 4.6088807958411165e-02 0.0000000000000000e+00  2.4222657781900202e-02 4.6671171323291849e-02 0.0000000000000000e+00  2.3526350083318659e-02 4.7004705528602857e-02 0.0000000000000000e+00  2.2864215464009921e-02 4.7032101404489567e-02 0.0000000000000000e+00  2.2186845754758305e-02 4.6616450017232303e-02 0.0000000000000000e+00  2.1476285728869896e-02 4.5686100816921274e-02 0.0000000000000000e+00  2.0916153802387583e-02 4.4285597293031331e-02 0.0000000000000000e+00  2.0595314155762118e-02 4.2790411862819316e-02 0.0000000000000000e+00  2.0577986123949305e-02 4.1412560066476950e-02 0.0000000000000000e+00  2.0741562996847856e-02 4.0335595875581075e-02 0.0000000000000000e+00  2.0927831359566707e-02 3.9566849214112937e-02 0.0000000000000000e+00  2.1074895864866945e-02 3.9056509987921796e-02 0.0000000000000000e+00  2.1096519186724692e-02 3.8618371869943449e-02 0.0000000000000000e+00  2.0938994970431404e-02 3.8169607914767534e-02 0.0000000000000000e+00  2.0629425398083948e-02 3.7629529344117285e-02 0.0000000000000000e+00  2.0204237798216042e-02 3.6989878660811319e-02 0.0000000000000000e+00  1.9696396509643950e-02 3.6269811188368986e-02 0.0000000000000000e+00  2.9700385988496005e-03 1.0251434247053446e-02 0.0000000000000000e+00  3.2510494329441733e-03 9.1543636661104519e-03 0.0000000000000000e+00  3.7845484228641040e-03 8.0500345031014539e-03 0.0000000000000000e+00  4.6078504362766174e-03 7.0389274324139288e-03 0.0000000000000000e+00  5.5963450922564707e-03 6.0850466724361426e-03 0.0000000000000000e+00  6.6524810025528269e-03 5.3050277330667786e-03 0.0000000000000000e+00  7.6323787726278146e-03 4.6673438939839884e-03 0.0000000000000000e+00  8.4474653946667293e-03 4.1524801338554494e-03 0.0000000000000000e+00  9.0673885146297459e-03 3.6391567664289469e-03 0.0000000000000000e+00  9.5744664283858791e-03 3.0559720298056147e-03 0.0000000000000000e+00  1.0066828191783698e-02 2.3846089779363915e-03 0.0000000000000000e+00  1.0588314618612609e-02 1.6942312597144336e-03 0.0000000000000000e+00  1.1103277251367331e-02 1.1162621606998809e-03 0.0000000000000000e+00  1.1534654596186097e-02 7.3622761459509855e-04 0.0000000000000000e+00  1.1847089965932686e-02 4.9618193122850896e-04 0.0000000000000000e+00  1.2035703439597348e-02 3.5952255096548388e-04 0.0000000000000000e+00  1.2145168950287053e-02 2.8028860798190371e-04 0.0000000000000000e+00  1.2226015260707880e-02 2.0734164215547714e-04 0.0000000000000000e+00  1.2296106465916406e-02 1.4130788541799291e-04 0.0000000000000000e+00  1.2376263069295875e-02 7.8293557818947491e-05 0.0000000000000000e+00  1.2473535199019174e-02 2.0956883046456152e-05 0.0000000000000000e+00  1.2592655096199381e-02 -3.0854021974869603e-05 0.0000000000000000e+00  1.2741525810447961e-02 -6.9387498328588062e-05 0.0000000000000000e+00  1.2915476533882544e-02 -9.5198668945692980e-05 0.0000000000000000e+00  1.3122239149228136e-02 -9.2667067064675318e-05 0.0000000000000000e+00  1.3382450271390572e-02 -6.6367473154984333e-05 0.0000000000000000e+00  1.3672935296781416e-02 7.6530824944859158e-07 0.0000000000000000e+00  1.4023025660988609e-02 1.0292939682754556e-04 0.0000000000000000e+00  1.4421006166627007e-02 2.5481488512676237e-04 0.0000000000000000e+00  1.4870260085616991e-02 4.6265739001125468e-04 0.0000000000000000e+00  1.5378076229335812e-02 7.1622649825707116e-04 0.0000000000000000e+00  1.5930906025900103e-02 1.0276027970865811e-03 0.0000000000000000e+00  1.6542917416466810e-02 1.3854961294319872e-03 0.0000000000000000e+00  1.7199329585741840e-02 1.7840540722250582e-03 0.0000000000000000e+00  1.7899727312695027e-02 2.2245834160331880e-03 0.0000000000000000e+00  1.8651208414657061e-02 2.6809825501577559e-03 0.0000000000000000e+00  1.9435177495788904e-02 3.1731326346870377e-03 0.0000000000000000e+00  2.0262903212793504e-02 3.6888613952243249e-03 0.0000000000000000e+00  2.1097636364825017e-02 4.2202316187839421e-03 0.0000000000000000e+00  2.1956159393913894e-02 4.8125697556648172e-03 0.0000000000000000e+00  2.2786915328626808e-02 5.4682615007805675e-03 0.0000000000000000e+00  2.3536289193622065e-02 6.2273514776402441e-03 0.0000000000000000e+00  2.4159630526127983e-02 7.1045656766605004e-03 0.0000000000000000e+00  2.4661582396661053e-02 8.0931965305407749e-03 0.0000000000000000e+00  2.4990056621178546e-02 9.2278719925229114e-03 0.0000000000000000e+00  2.5146711199199465e-02 1.0447008337834374e-02 0.0000000000000000e+00  2.5232805246875645e-02 1.1840155870200937e-02 0.0000000000000000e+00  2.5208620628211623e-02 1.3409805348231342e-02 0.0000000000000000e+00  2.5069047457632301e-02 1.5324202917977823e-02 0.0000000000000000e+00  2.4687874060795170e-02 1.7648745230462559e-02 0.0000000000000000e+00  2.4041072026207221e-02 2.0319407602279967e-02 0.0000000000000000e+00  2.3055914228065456e-02 2.3068593073222871e-02 0.0000000000000000e+00  2.1807703391586407e-02 2.5688289152435925e-02 0.0000000000000000e+00  2.0394407810219305e-02 2.7885432631028627e-02 0.0000000000000000e+00  1.9108457493795430e-02 2.9576521427046525e-02 0.0000000000000000e+00  1.7846382280843898e-02 3.0709414314476276e-02 0.0000000000000000e+00  1.6713189210055351e-02 3.1369975978861028e-02 0.0000000000000000e+00  1.5681586463830166e-02 3.1565292307297828e-02 0.0000000000000000e+00  1.4712734509203141e-02 3.1277654656593955e-02 0.0000000000000000e+00  1.3841145074604761e-02 3.0646722439574683e-02 0.0000000000000000e+00  1.2959936071708481e-02 2.9815330880826958e-02 0.0000000000000000e+00  1.2030448083418839e-02 2.8778366280343814e-02 0.0000000000000000e+00  1.1023140714061026e-02 2.7547568516416873e-02 0.0000000000000000e+00  9.9489387952501583e-03 2.6127994774988898e-02 0.0000000000000000e+00  8.8601448683579432e-03 2.4530580136067775e-02 0.0000000000000000e+00  7.8037626163936363e-03 2.2836756421088220e-02 0.0000000000000000e+00  6.8231804225083164e-03 2.1119986955377579e-02 0.0000000000000000e+00  5.9128949740991600e-03 1.9442249609368394e-02 0.0000000000000000e+00  5.0921182597792533e-03 1.7841375474258278e-02 0.0000000000000000e+00  4.3785878756110860e-03 1.6369136326935287e-02 0.0000000000000000e+00  3.8004447054917909e-03 1.4985461469312652e-02 0.0000000000000000e+00  3.3427513236808852e-03 1.3683739778510902e-02 0.0000000000000000e+00  3.0437631128033089e-03 1.2477277985971667e-02 0.0000000000000000e+00  2.9219029247250219e-03 1.1316409005289881e-02 0.0000000000000000e+00  9.3763869547287271e-03 3.2580594100324466e-03 0.0000000000000000e+00  9.2015494979652956e-03 2.2959822933744018e-03 0.0000000000000000e+00  9.2645204111738415e-03 1.4868285763270893e-03 0.0000000000000000e+00  9.4108623033002329e-03 8.8662750850139753e-04 0.0000000000000000e+00  9.6904396341903395e-03 4.7618078960761718e-04 0.0000000000000000e+00  1.0040272091103543e-02 2.2619506829998397e-04 0.0000000000000000e+00  1.0395349914681391e-02 1.0108211661977587e-04 0.0000000000000000e+00  1.0757931709762518e-02 6.3163123324672324e-05 0.0000000000000000e+00  1.1100522792931040e-02 5.5563165978478740e-05 0.0000000000000000e+00  1.1424224732158065e-02 6.7427779531851250e-05 0.0000000000000000e+00  1.1723508918309911e-02 1.1998097349496563e-04 0.0000000000000000e+00  1.1982700621174845e-02 2.3995035221513120e-04 0.0000000000000000e+00  1.2201957764469119e-02 4.2774129350660485e-04 0.0000000000000000e+00  1.2355488990100350e-02 6.8376573814133551e-04 0.0000000000000000e+00  1.2450430533538837e-02 1.1126465208914260e-03 0.0000000000000000e+00  1.2437845123887880e-02 1.6471885758161486e-03 0.0000000000000000e+00  1.2303812732786187e-02 2.4312787133477102e-03 0.0000000000000000e+00  1.2068911029787421e-02 3.3613911860704772e-03 0.0000000000000000e+00  1.1803877849181188e-02 4.3190784959556061e-03 0.0000000000000000e+00  1.1556794341447036e-02 5.1800723684612728e-03 0.0000000000000000e+00  1.1245145228107737e-02 5.7567894337084728e-03 0.0000000000000000e+00  1.0868081144422030e-02 5.8577577796965416e-03 0.0000000000000000e+00  1.0362533573185610e-02 5.3832319759728273e-03 0.0000000000000000e+00  9.7852408738742201e-03 4.4067957247140533e-03 0.0000000000000000e+00  2.3967715582711106e-02 8.5116261749843183e-03 0.0000000000000000e+00  2.4711899130567767e-02 8.3136293650401642e-03 0.0000000000000000e+00  2.5015415449848543e-02 7.9448721763134989e-03 0.0000000000000000e+00  2.4925249264527771e-02 7.4698573248652110e-03 0.0000000000000000e+00  2.4664715643812354e-02 7.0697727664188548e-03 0.0000000000000000e+00  2.4348635233716505e-02 6.9164710056461446e-03 0.0000000000000000e+00  2.4116904113870012e-02 7.0894728909767085e-03 0.0000000000000000e+00  2.4063070025879981e-02 7.6126216122531683e-03 0.0000000000000000e+00  2.4159342321368751e-02 8.4429129557434916e-03 0.0000000000000000e+00  2.4435569926235239e-02 9.5701600750783267e-03 0.0000000000000000e+00  2.4826065491363535e-02 1.0926676287332763e-02 0.0000000000000000e+00  2.5135727118446471e-02 1.2524123185608162e-02 0.0000000000000000e+00  2.5301449030494624e-02 1.4131630019534455e-02 0.0000000000000000e+00  2.5243993319517769e-02 1.5678579056035619e-02 0.0000000000000000e+00  2.4976689389068878e-02 1.6852566020227163e-02 0.0000000000000000e+00  2.4587000996409144e-02 1.7583088050108189e-02 0.0000000000000000e+00  2.4203007967739672e-02 1.7668419842424923e-02 0.0000000000000000e+00  2.3786054725277228e-02 1.7069485892453877e-02 0.0000000000000000e+00  2.3251632571953961e-02 1.5986478215583917e-02 0.0000000000000000e+00  2.2751239019206813e-02 1.4337561456166983e-02 0.0000000000000000e+00  2.2125005518183916e-02 1.2410699822990997e-02 0.0000000000000000e+00  2.1838534108564924e-02 1.0567543777970314e-02 0.0000000000000000e+00  2.2158590854683143e-02 9.3192960389234247e-03 0.0000000000000000e+00  2.3007435249940207e-02 8.7203012815961906e-03 0.0000000000000000e+00  1.4330432856617432e-02 4.4615948908960569e-02 0.0000000000000000e+00  1.5057889010013781e-02 4.3488813745334386e-02 0.0000000000000000e+00  1.5984681042654478e-02 4.2338151415567557e-02 0.0000000000000000e+00  1.7098104137003984e-02 4.1142876989966784e-02 0.0000000000000000e+00  1.8297496467217522e-02 4.0105298286269006e-02 0.0000000000000000e+00  1.9471383467490642e-02 3.9258562107234843e-02 0.0000000000000000e+00  2.0508079337268521e-02 3.8711127784934414e-02 0.0000000000000000e+00  2.1378198709610219e-02 3.8518668575549558e-02 0.0000000000000000e+00  2.2069079816321956e-02 3.8648551686300610e-02 0.0000000000000000e+00  2.2612924667054862e-02 3.9106666830087282e-02 0.0000000000000000e+00  2.3165345925919227e-02 3.9908728032773379e-02 0.0000000000000000e+00  2.3585041887590807e-02 4.1087791215262945e-02 0.0000000000000000e+00  2.3914092699439095e-02 4.2607447236927214e-02 0.0000000000000000e+00  2.4001354803528482e-02 4.4229718018461109e-02 0.0000000000000000e+00  2.3806510187181672e-02 4.5661951253026689e-02 0.0000000000000000e+00  2.3279783886153222e-02 4.6691814462607797e-02 0.0000000000000000e+00  2.2506813548378211e-02 4.7299591318643079e-02 0.0000000000000000e+00  2.1616510201308229e-02 4.7640402915605277e-02 0.0000000000000000e+00  2.0682671394274543e-02 4.7829554278877369e-02 0.0000000000000000e+00  1.9753734995426063e-02 4.7952050020902477e-02 0.0000000000000000e+00  1.8881495204996719e-02 4.8100498555779331e-02 0.0000000000000000e+00  1.8044919132482722e-02 4.8305910968264011e-02 0.0000000000000000e+00  1.7278686893094475e-02 4.8555349885035848e-02 0.0000000000000000e+00  1.6572239563038865e-02 4.8819480028216844e-02 0.0000000000000000e+00  1.5943770840765085e-02 4.9093784605233316e-02 0.0000000000000000e+00  1.5374778359009423e-02 4.9328919039117840e-02 0.0000000000000000e+00  1.4890920138418501e-02 4.9522804177046242e-02 0.0000000000000000e+00  1.4466509761140322e-02 4.9647188883501912e-02 0.0000000000000000e+00  1.4103607810483179e-02 4.9694357459190083e-02 0.0000000000000000e+00  1.3803415965531477e-02 4.9668342788327977e-02 0.0000000000000000e+00  1.3554673981782221e-02 4.9557752396260035e-02 0.0000000000000000e+00  1.3370591365779423e-02 4.9380617103375171e-02 0.0000000000000000e+00  1.3213425942638147e-02 4.9113979416477341e-02 0.0000000000000000e+00  1.3115012226888363e-02 4.8771727566906932e-02 0.0000000000000000e+00  1.3086087646077556e-02 4.8322741176925851e-02 0.0000000000000000e+00  1.3102249765015245e-02 4.7808500084399887e-02 0.0000000000000000e+00  1.3225993026460398e-02 4.7175121442297775e-02 0.0000000000000000e+00  1.3443480527898559e-02 4.6440133656857577e-02 0.0000000000000000e+00  1.3805747643833619e-02 4.5564587126079255e-02 0.0000000000000000e+00  1.6877791589278247e-02 3.0785982306957761e-02 0.0000000000000000e+00  1.6850457962107920e-02 3.0447808726500266e-02 0.0000000000000000e+00  1.6486001898944898e-02 3.0633636275962342e-02 0.0000000000000000e+00  1.6029185845588732e-02 3.1244263014258290e-02 0.0000000000000000e+00  1.5742170616007554e-02 3.1773178636249857e-02 0.0000000000000000e+00  1.5342046364927486e-02 3.1792317800021293e-02 0.0000000000000000e+00  1.4627111569353896e-02 3.1359992626182040e-02 0.0000000000000000e+00  1.4264434442982152e-02 3.1180061143411469e-02 0.0000000000000000e+00  1.4802493546631990e-02 3.1535372347395355e-02 0.0000000000000000e+00  1.5618575246194380e-02 3.2003132561641182e-02 0.0000000000000000e+00  1.6256303477499033e-02 3.2036385164843792e-02 0.0000000000000000e+00  1.6639502658521543e-02 3.1479244221138139e-02 0.0000000000000000e+00  -6.8543884908829015e-04 3.6725405995233329e-02 0.0000000000000000e+00  -1.1204406136351474e-03 3.5592315999468195e-02 0.0000000000000000e+00  -1.4865398174330430e-03 3.4453242902779159e-02 0.0000000000000000e+00  -1.7726409439705109e-03 3.3348167458157045e-02 0.0000000000000000e+00  -2.0080393732623005e-03 3.2268439530459783e-02 0.0000000000000000e+00  -2.1904953382260632e-03 3.1226676984012488e-02 0.0000000000000000e+00  -2.3038323255565735e-03 3.0236614119477378e-02 0.0000000000000000e+00  -2.3852883422252552e-03 2.9293935583664155e-02 0.0000000000000000e+00  -2.4358028336539665e-03 2.8407621430056054e-02 0.0000000000000000e+00  -2.4718368038456613e-03 2.7574512309674979e-02 0.0000000000000000e+00  -2.5093555470444731e-03 2.6767738757717489e-02 0.0000000000000000e+00  -2.5594455143405455e-03 2.5997355828554058e-02 0.0000000000000000e+00  -2.6234233029211831e-03 2.5202142079830667e-02 0.0000000000000000e+00  -2.6910786826776080e-03 2.4375176356876395e-02 0.0000000000000000e+00  -2.7595243537357227e-03 2.3432811366175445e-02 0.0000000000000000e+00  -2.7825698582960700e-03 2.2345384910652900e-02 0.0000000000000000e+00  -2.6990751327939889e-03 2.1057959994493402e-02 0.0000000000000000e+00  -2.4707236200962601e-03 1.9564804154262105e-02 0.0000000000000000e+00  -2.0382937954283469e-03 1.7886503443960228e-02 0.0000000000000000e+00  -1.3307863973409592e-03 1.6104435642594079e-02 0.0000000000000000e+00  -4.4751902483207472e-04 1.4329279297954066e-02 0.0000000000000000e+00  5.7950833368306974e-04 1.2702369752209754e-02 0.0000000000000000e+00  1.6539015143610257e-03 1.1309192014983161e-02 0.0000000000000000e+00  2.6418761923505435e-03 1.0144999281244701e-02 0.0000000000000000e+00  3.5321701228606078e-03 9.2354783946291506e-03 0.0000000000000000e+00  4.2747003689539284e-03 8.5009645294628448e-03 0.0000000000000000e+00  4.8652091930747208e-03 7.9186719308980812e-03 0.0000000000000000e+00  5.3474153287605495e-03 7.4235843093593094e-03 0.0000000000000000e+00  5.7663773496898219e-03 7.0190834728292954e-03 0.0000000000000000e+00  6.1476989253091540e-03 6.7067551918266310e-03 0.0000000000000000e+00  6.4937703805125445e-03 6.5144775956808964e-03 0.0000000000000000e+00  6.8474812022023459e-03 6.4539799722168265e-03 0.0000000000000000e+00  7.1911914477765472e-03 6.5383149881459678e-03 0.0000000000000000e+00  7.4981309685428973e-03 6.7662063577770800e-03 0.0000000000000000e+00  7.8143109434294228e-03 7.1096683027137781e-03 0.0000000000000000e+00  8.1164880972261280e-03 7.5282400400206650e-03 0.0000000000000000e+00  8.4676797694570316e-03 8.0256790140136678e-03 0.0000000000000000e+00  8.8895237952400091e-03 8.6001941202411922e-03 0.0000000000000000e+00  9.4080201257106290e-03 9.2569998623969214e-03 0.0000000000000000e+00  1.0047449651760298e-02 1.0070490974142044e-02 0.0000000000000000e+00  1.0785489943396597e-02 1.1054224930111285e-02 0.0000000000000000e+00  1.1630078984914197e-02 1.2186367123960701e-02 0.0000000000000000e+00  1.2579821911944445e-02 1.3489415957394902e-02 0.0000000000000000e+00  1.3544767694822473e-02 1.4981067260766173e-02 0.0000000000000000e+00  1.4515122595228080e-02 1.6623662747468890e-02 0.0000000000000000e+00  1.5430330701476973e-02 1.8359111490788928e-02 0.0000000000000000e+00  1.6233650464141818e-02 2.0151223175514141e-02 0.0000000000