<?xml version="1.0"?>
<VTKFile type="UnstructuredGrid"  version="0.1"  >
<UnstructuredGrid>
<Piece  NumberOfPoints="9282" NumberOfCells="17020">
<Points>
<DataArray  type="Float64"  NumberOfComponents="3"  format="ascii">0 1 0  0 0 0  1 0 0  1 1 0  0.08682478782975533 0.4476257436759869 0  0.0895340851671743 0.4357555364568845 0  0.08682478782975533 0.423885329237782 0  0.07923350538252552 0.4143661621369608 0  0.06826378441512818 0.4090834229436615 0  0.05608831269995523 0.4090834229436615 0  0.04511859173255792 0.4143661621369608 0  0.03752730928532811 0.423885329237782 0  0.03481801194790914 0.4357555364568845 0  0.03752730928532812 0.4476257436759869 0  0.04511859173255792 0.4571449107768081 0  0.05608831269995523 0.4624276499701075 0  0.0682637844151282 0.4624276499701075 0  0.07923350538252552 0.4571449107768081 0  0.1899876437577894 0.3640556093364088 0  0.1912758738753838 0.351387408458041 0  0.1899876437577894 0.3387192075796731 0  0.1861756936973812 0.326569644333716 0  0.1799960853775173 0.3154361232669723 0  0.1717018126888862 0.3057744520400476 0  0.161632444129896 0.2979801806081703 0  0.1502002208324525 0.2923724073595495 0  0.1378731793615821 0.2891807151898692 0  0.125155990243468 0.288535772351564 0  0.1125692966948124 0.2904639828802116 0  0.1006283994283707 0.2948864056102141 0  0.08982216018122699 0.3016219860353926 0  0.08059298765783843 0.3103949687017432 0  0.07331872526569436 0.3208461866681237 0  0.06829718216181865 0.3325477658430246 0  0.06573394091089027 0.3450206422001484 0  0.06573394091089028 0.3577541747159336 0  0.06829718216181865 0.3702270510730573 0  0.07331872526569436 0.3819286302479583 0  0.08059298765783843 0.3923798482143389 0  0.08982216018122699 0.4011528308806894 0  0.1006283994283707 0.4078884113058679 0  0.1125692966948124 0.4123108340358704 0  0.1251559902434681 0.414239044564518 0  0.1378731793615821 0.4135941017262128 0  0.1502002208324525 0.4104024095565325 0  0.161632444129896 0.4047946363079117 0  0.1717018126888862 0.3970003648760345 0  0.1799960853775173 0.3873386936491097 0  0.1861756936973812 0.376205172582366 0  0.1828678258909014 0.2513371468841861 0  0.1851320124962211 0.2392248183614215 0  0.1828678258909014 0.2271124898386569 0  0.1763810570222817 0.216635998399621 0  0.1665477799704965 0.2092102522653986 0  0.1546960332894583 0.2058381395988963 0  0.1424264610412368 0.2069750829012466 0  0.1313961369460012 0.2124675316794466 0  0.123094767393949 0.2215737002912912 0  0.1186434983425612 0.2330637502067286 0  0.1186434983425612 0.2453858865161145 0  0.123094767393949 0.2568759364315518 0  0.1313961369460013 0.2659821050433965 0  0.1424264610412368 0.2714745538215965 0  0.1546960332894583 0.2726114971239467 0  0.1665477799704965 0.2692393844574444 0  0.1763810570222818 0.261813638323222 0  0.3239200284398542 0.5876524401115168 0  0.3245214047020349 0.5750279987359848 0  0.3239200284398542 0.5624035573604526 0  0.3221213458098676 0.5498934448809604 0  0.3191416459605052 0.5376109548133613 0  0.3150079135150207 0.5256673192896979 0  0.3097575841945649 0.5141707017227906 0  0.3034382057944973 0.5032252172616202 0  0.296107007584189 0.4929299899084175 0  0.2878303820298966 0.4833782548363484 0  0.2786832835343068 0.4746565140373482 0  0.2687485496378592 0.466843752946688 0  0.2581161508291514 0.4600107251386404 0  0.2468823757582628 0.4542193115711558 0  0.2351489592318285 0.4495219601823239 0  0.2230221608868764 0.4459612109137249 0  0.2106118028870995 0.4435693104621307 0  0.1980302753563354 0.442367920248426 0  0.1853915185562002 0.442367920248426 0  0.1728099910254361 0.4435693104621307 0  0.1603996330256592 0.4459612109137249 0  0.1482728346807071 0.449521960182324 0  0.1365394181542728 0.4542193115711559 0  0.1253056430833842 0.4600107251386405 0  0.1146732442746764 0.466843752946688 0  0.1047385103782288 0.4746565140373483 0  0.09559141188263902 0.4833782548363484 0  0.08731478632834659 0.4929299899084175 0  0.0799835881180382 0.5032252172616203 0  0.07366420971797064 0.5141707017227907 0  0.06841388039751484 0.525667319289698 0  0.06428014795203041 0.5376109548133613 0  0.06130044810266802 0.5498934448809605 0  0.05950176547268143 0.5624035573604527 0  0.05890038921050064 0.5750279987359848 0  0.05950176547268143 0.587652440111517 0  0.06130044810266805 0.6001625525910091 0  0.06428014795203044 0.6124450426586083 0  0.06841388039751485 0.6243886781822715 0  0.07366420971797068 0.635885295749179 0  0.07998358811803824 0.6468307802103493 0  0.08731478632834658 0.657126007563552 0  0.09559141188263903 0.6666777426356212 0  0.1047385103782288 0.6753994834346212 0  0.1146732442746764 0.6832122445252815 0  0.1253056430833843 0.6900452723333291 0  0.1365394181542728 0.6958366859008136 0  0.1482728346807071 0.7005340372896456 0  0.1603996330256592 0.7040947865582446 0  0.1728099910254361 0.7064866870098387 0  0.1853915185562002 0.7076880772235434 0  0.1980302753563354 0.7076880772235434 0  0.2106118028870996 0.7064866870098387 0  0.2230221608868764 0.7040947865582446 0  0.2351489592318285 0.7005340372896456 0  0.2468823757582628 0.6958366859008136 0  0.2581161508291514 0.690045272333329 0  0.2687485496378592 0.6832122445252815 0  0.2786832835343069 0.6753994834346212 0  0.2878303820298966 0.6666777426356212 0  0.2961070075841891 0.657126007563552 0  0.3034382057944974 0.6468307802103492 0  0.3097575841945649 0.635885295749179 0  0.3150079135150208 0.6243886781822715 0  0.3191416459605052 0.6124450426586082 0  0.3221213458098676 0.600162552591009 0  0.6035345950608042 0.2773186360929012 0  0.6039661160781503 0.2645492567203695 0  0.6035345950608042 0.2517798773478376 0  0.6022420009401942 0.2390687617245962 0  0.6000942315268232 0.2264739077558106 0  0.5971010865999116 0.2140527828713827 0  0.5932762231932528 0.2018620618152493 0  0.5886370932813003 0.1899573680515242 0  0.5832048641498105 0.1783930199673888 0  0.577004321814374 0.1672217830307507 0  0.5700637579275099 0.1564946290335152 0  0.5624148406903452 0.1462605035189901 0  0.5540924703578762 0.1365661024545977 0  0.5451346199971104 0.1274556591688857 0  0.5355821622246698 0.1189707425249941 0  0.5254786827144169 0.1111500672514674 0  0.5148702813260218 0.1040293172958276 0  0.5038053617618751 0.09764098300690599 0  0.4923344107120964 0.09201421288883352 0  0.4805097674953471 0.08717468060310241 0  0.4683853852465234 0.08314446782553647 0  0.4560165847409763 0.07994196349266958 0  0.4434598019785033 0.07758177989724582 0  0.4307723306788238 0.07607468601567907 0  0.4180120608634778 0.07542755837168361 0  0.4052372147169359 0.07564334966027372 0  0.392506080932124 0.07672107527529345 0  0.3798767487524874 0.07865581780194886 0  0.3674068429240968 0.08143874945384352 0  0.3551532607671473 0.08505717235214358 0  0.3431719125665382 0.0894945764630859 0  0.3315174664660648 0.09473071492947599 0  0.3202430990302182 0.1007416964524532 0  0.3094002526117179 0.1075000943020077 0  0.2990384006318544 0.1149750714588592 0  0.2892048218446163 0.1231325213167025 0  0.2799443846145785 0.1319352233028303 0  0.2712993421928466 0.141343012707069 0  0.2633091399251627 0.1513129639441387 0  0.2560102352718404 0.1617995864132543 0  0.249435931460735 0.1727550320613024 0  0.2436162255322534 0.1841293137025333 0  0.2385776714697385 0.1958705330986252 0  0.2343432590397342 0.2079251177584414 0  0.2309323088949531 0.2202380653770202 0  0.22836038441857 0.2327531947984778 0  0.2266392207120735 0.2454134023577356 0  0.2257766710506901 0.2581609224314478 0  0.2257766710506901 0.2709375910092913 0  0.2266392207120735 0.2836851110830034 0  0.22836038441857 0.2963453186422613 0  0.2309323088949531 0.3088604480637188 0  0.2343432590397342 0.3211733956822976 0  0.2385776714697385 0.3332279803421138 0  0.2436162255322533 0.3449691997382056 0  0.249435931460735 0.3563434813794367 0  0.2560102352718404 0.3672989270274847 0  0.2633091399251627 0.3777855494966003 0  0.2712993421928466 0.38775550073367 0  0.2799443846145785 0.3971632901379087 0  0.2892048218446163 0.4059659921240365 0  0.2990384006318545 0.4141234419818799 0  0.3094002526117179 0.4215984191387313 0  0.3202430990302184 0.4283568169882858 0  0.3315174664660649 0.4343677985112631 0  0.3431719125665382 0.4396039369776531 0  0.3551532607671474 0.4440413410885955 0  0.3674068429240968 0.4476597639868954 0  0.3798767487524875 0.4504426956387901 0  0.3925060809321239 0.4523774381654455 0  0.4052372147169359 0.4534551637804652 0  0.4180120608634779 0.4536709550690554 0  0.4307723306788237 0.4530238274250599 0  0.4434598019785033 0.4515167335434932 0  0.4560165847409764 0.4491565499480694 0  0.4683853852465234 0.4459540456152026 0  0.4805097674953471 0.4419238328376366 0  0.4923344107120964 0.4370843005519054 0  0.5038053617618751 0.4314575304338331 0  0.5148702813260219 0.4250691961449113 0  0.525478682714417 0.4179484461892715 0  0.5355821622246698 0.4101277709157449 0  0.5451346199971104 0.4016428542718533 0  0.5540924703578763 0.3925324109861412 0  0.5624148406903452 0.3828380099217489 0  0.5700637579275099 0.3726038844072238 0  0.5770043218143741 0.3618767304099882 0  0.5832048641498107 0.3507054934733501 0  0.5886370932813003 0.3391411453892147 0  0.5932762231932529 0.3272364516254896 0  0.5971010865999116 0.3150457305693563 0  0.6000942315268232 0.3026246056849284 0  0.6022420009401942 0.2900297517161427 0  0.6321661395054307 0.08878772825799099 0  0.6344303261107503 0.07667539973522641 0  0.6321661395054307 0.06456307121246184 0  0.6256793706368111 0.0540865797734259 0  0.6158460935850258 0.04666083363920352 0  0.6039943469039877 0.04328872097270122 0  0.5917247746557661 0.04442566427505144 0  0.5806944505605306 0.04991811305325149 0  0.5723930810084783 0.05902428166509609 0  0.5679418119570905 0.0705143315805335 0  0.5679418119570905 0.08283646788991934 0  0.5723930810084783 0.09432651780535675 0  0.5806944505605306 0.1034326864172014 0  0.5917247746557661 0.1089251351954014 0  0.6039943469039876 0.1100620784977516 0  0.6158460935850258 0.1066899658312493 0  0.6256793706
[...]
<PointData  Scalars="f_sigma_Mis"> 
<DataArray  type="Float64"  Name="f_sigma_Mis"  format="ascii">5.6139573785958491e-02  5.1397594194029055e-02  5.8358994234835551e-02  5.3030538797378179e-02  7.5449859267019928e-02  1.1476850575191065e-01  1.2710535419702695e-01  6.0974790720224221e-02  1.2503023746789763e-01  8.8284322012331717e-02  3.1474914012952951e-02  1.3874475144849338e-01  2.3294536274082672e-01  1.6406284009178962e-01  3.5558043531756456e-02  7.7878269989211060e-02  7.9018442328805755e-02  4.0512586880983387e-02  1.4624283932875161e-02  1.6211391079091125e-02  2.6518959237911279e-02  3.3663631338124715e-02  3.6238509157904004e-02  4.7225535618405458e-02  6.5233087492238800e-02  5.9890319298963671e-02  2.7336045104443714e-02  5.5337235473926268e-03  1.3172243193943656e-02  4.3390058106260255e-03  2.4916635497020185e-02  5.1180330686720614e-02  7.6722711456705922e-02  9.5545214377176724e-02  9.4668171697081138e-02  8.7053075047343817e-02  7.5752120699745240e-02  9.6376775189619901e-02  7.3260638430451164e-02  7.2372983920409306e-02  1.3762743960345877e-01  1.4707902813867399e-01  7.8045981230562278e-02  8.7280186534319341e-03  5.9671714344251649e-02  1.0677162592084112e-01  8.7785092229065831e-02  5.5692260517052040e-02  2.9459310761191775e-02  3.8404425490474695e-02  8.8267169539417337e-02  9.8773807808974615e-02  7.0001102759274819e-02  2.6756387031357826e-02  6.4012896757689227e-03  2.6873709743200257e-02  9.4088968208779506e-03  1.3700642961242421e-02  3.4950683198550457e-02  4.2658443056722166e-02  5.7149504561295202e-02  8.4615840626467986e-02  6.4267771045765310e-02  1.2248506969665764e-02  3.9443397198131176e-02  1.9333752135905744e-02  8.6751338056211658e-02  9.1784925301616554e-02  9.9512428177180187e-02  1.0400473731225231e-01  1.1158760223684652e-01  1.2145075872258392e-01  1.3330450199208047e-01  1.2091100691576299e-01  1.1304484963756960e-01  9.5341649152137428e-02  6.8767738192348132e-02  2.7916889004764144e-02  9.5470033602135726e-03  4.0497711844849626e-02  7.9247588360879417e-02  9.0722508833250823e-02  9.1279495289127835e-02  1.0285744138794882e-01  1.1416295747393111e-01  9.8746831875398441e-02  8.1392165470869207e-02  3.5667993077351419e-02  1.7036359121486943e-02  1.4391028589896986e-02  7.6407531559344001e-03  2.3270943023556485e-02  6.1590639506112328e-02  8.2225582696756255e-02  7.6674155132888028e-02  7.2176942148499415e-02  8.7832513248248492e-02  1.0671673874555854e-01  1.4094786189262140e-01  1.5273941299060245e-01  1.6750102309879114e-01  1.6942764471720989e-01  1.6016566781630920e-01  1.3557961668145893e-01  1.0090542179130600e-01  7.7469529693450515e-02  4.9859637627717592e-02  2.8057107257797309e-02  7.9908520313318465e-03  2.5615735308700560e-03  1.2994427843317101e-02  2.0904056725668103e-02  2.5238432412210649e-02  3.4423913840637470e-02  4.6941345654591078e-02  4.7411155306052478e-02  5.5999763506479804e-02  5.8622266840875861e-02  5.0305373552478057e-02  1.1950912966208966e-02  1.0510418562050233e-02  4.0126451004769408e-02  4.9730758979371112e-02  4.3990922634168192e-02  3.1125386255681821e-02  2.1075250448552109e-02  1.9595966653124696e-02  2.4477438056002655e-02  4.2703924200382104e-02  6.4213196393835936e-02  7.6666993322676527e-02  8.5874546087428769e-02  6.8699965423394155e-02  7.6400083883599146e-02  8.8284021980884364e-02  1.0242742364174610e-01  1.1182286318952200e-01  1.1537115974728503e-01  1.0361999209300461e-01  7.1488163654851972e-02  4.3445374901218289e-02  2.8350544400159564e-02  2.1345495502828160e-02  1.9297785792745450e-02  9.2047220994475910e-03  2.3057242688405357e-04  1.0035679818959441e-02  1.0978820526466226e-03  1.5758404005614712e-03  1.1397902764232911e-03  1.6036007015138162e-03  7.1041267880438358e-05  1.9699817410615602e-03  4.0119738805306617e-03  5.6165099084638003e-03  6.4469374448795540e-03  6.7039245938914343e-03  6.4527503021038889e-03  6.6364794068390293e-03  6.7877055999253037e-03  7.3921276000912623e-03  8.4466151936306248e-03  8.9279706425998660e-03  9.8061681309843819e-03  1.0555097654497837e-02  1.0885661279043828e-02  1.1391404487817898e-02  9.1655603031951232e-03  6.8882091098021675e-03  4.5913608937249205e-03  1.7496521097445199e-03  2.5662570234720101e-03  7.1281880254993775e-03  1.1329158280553963e-02  1.4863308092261010e-02  1.7251584579042162e-02  1.6509321229441293e-02  2.3825578883936313e-02  3.9339055695085681e-02  6.0836495587635514e-02  7.8740998707419546e-02  8.2091530318619904e-02  8.3288920026605984e-02  8.5632281671714564e-02  8.9094361039544323e-02  9.2136421171708449e-02  9.5208973680229569e-02  9.7599454184062143e-02  1.0416839157806176e-01  1.1305046067176243e-01  1.1437571759951641e-01  9.1799818711827227e-02  6.5763831903239395e-02  3.9265431621404494e-02  2.8598620710748911e-03  3.1815088777253434e-02  6.5269728008504918e-02  7.0789522787695805e-02  7.8516599464417178e-02  7.7335160866359054e-02  7.9995124883441973e-02  6.4861066808649226e-02  5.3651371202990426e-02  4.0762191748151239e-02  3.2297082716027277e-02  2.3672072700686952e-02  8.6202900315699178e-03  5.9034127061287339e-03  2.2526902834303232e-02  4.2466774099391182e-02  5.3051530822192619e-02  6.2475941231474451e-02  6.9302249539920799e-02  7.0229692049038117e-02  6.3775357790496104e-02  5.3004391733382887e-02  3.5942806258746608e-02  2.5314369244010888e-02  2.0675194660873038e-02  2.0621848165858374e-02  2.4729322681753600e-02  3.4865154386709465e-02  4.4347274371770599e-02  5.3991103325680488e-02  6.3037748246660322e-02  1.1490908969123594e-01  1.0762693639086561e-01  5.2021513588688624e-02  9.2158068515260354e-03  2.5049930575159682e-02  3.8656465114615006e-02  3.4231357520706898e-02  2.6017001185289136e-02  1.7356456969166063e-02  4.3988218150655220e-02  7.8866761014905168e-02  8.1685024577089579e-02  5.0420193138107514e-02  1.3021462772551468e-02  3.2714237217155655e-02  2.3689782249419596e-02  5.5758665881490616e-02  4.7539804419075786e-02  7.0913734643787175e-03  2.1406016253293490e-02  2.6263093934333639e-02  3.0847280421656974e-02  1.6048239913205406e-02  2.1832286065150319e-03  8.2930822254852947e-04  1.6534265131105463e-02  2.0788949784325803e-02  1.1285813787522313e-02  1.7244286332199666e-03  1.4138901081738701e-02  4.5508574688801560e-02  7.5689666693194366e-02  1.2184063192786451e-01  8.3844132114623673e-02  4.9131088595460136e-02  9.6030033140286717e-03  1.7766446255226376e-02  5.5556726401084715e-02  6.6657607480632097e-02  6.4727018790021143e-02  5.5649768018877638e-02  4.0768042281258611e-02  1.1771070498694176e-02  2.4306491375412537e-02  5.8406877027189046e-02  8.6506907596213475e-02  9.4226162508269665e-02  9.6148762180174055e-02  8.9659187083681535e-02  2.2254884071450303e-02  1.3550104438418538e-02  3.7325202490576903e-03  3.3478516303449683e-03  9.6513821932643924e-03  1.7572889053901617e-02  2.4876705306277599e-02  2.6775589444100731e-02  2.3819374459778962e-02  1.8720027421898180e-02  1.3651957965923113e-02  4.0054082285977599e-03  -1.0906083684490623e-03  -2.2300017184468155e-04  6.0474558321514250e-02  1.2166473068881700e-01  1.6754913066948141e-01  1.4530294629785623e-01  3.6059673599229271e-02  6.0932765770848989e-02  8.6536258201727931e-02  7.2166144575311272e-02  3.6257601289446953e-02  1.1011142531173464e-02  3.2219187486634236e-02  4.2641908534152000e-02  6.8770411548416455e-02  1.6108721965383829e-01  1.0916856129558367e-01  6.2584487927625235e-02  2.4502328200025514e-02  1.5340919956436714e-02  3.8527039128661608e-02  3.7423462844519244e-02  3.0534760419366470e-02  1.4806209264267258e-02  9.7714099334912149e-03  4.9917950097729397e-02  6.7306463248563972e-02  8.7298495982917959e-02  9.7054925429933422e-02  1.0411421555925704e-01  1.0333493958219096e-01  9.6275399355269839e-02  8.9708309219549767e-02  8.0894354329632767e-02  6.9465245896883701e-02  5.9489990478940602e-02  5.5549577170663229e-02  6.0905050717657137e-02  6.8921419797465702e-02  7.6808469315693184e-02  7.4033509182440782e-02  6.1938224782014592e-02  4.1091311449494926e-02  1.5967011471605581e-02  7.5011745000943646e-03  3.8180609616061983e-02  5.5577169462694503e-02  6.3472375001955281e-02  6.2481569266264053e-02  6.0079026524205277e-02  5.5420170503848232e-02  4.8991889127365865e-02  4.1302175599804966e-02  3.6101311353098471e-02  3.0271008443090948e-02  2.2333941202204739e-02  1.1054482002448933e-02  2.6083254887946136e-03  1.7602479783491248e-02  3.3860822579863739e-02  4.8958844977858927e-02  6.2594763890839164e-02  6.3238406207765219e-02  6.4669484067896979e-02  5.3704983439025966e-02  3.9988388362482204e-02  2.4011045516051672e-02  1.3746523553686345e-02  8.3761052349078068e-03  7.5688267365136069e-03  1.3379500097653849e-02  2.6147552400185542e-02  4.1026079142839358e-02  5.7356867039038251e-02  6.8309505698469677e-02  8.2132262333609041e-02  8.7431761066029651e-02  9.8420373743998549e-02  1.1218577126381478e-01  1.2216771075653561e-01  1.1730116054163013e-01  1.1333331751687520e-01  9.3720990420238084e-02  6.8852039403714260e-02  4.5565217212865036e-02  2.8074982979643604e-02  2.1286715437828518e-02  1.9141213587855355e-02  1.2943332057743536e-02  2.6651815066539449e-03  9.1788159022053867e-03  1.8369343084995621e-02  1.2189828989877020e-02  4.7977759905737122e-03  3.6461371880276754e-04  1.4703178496766232e-03  7.9766748299041573e-04  5.9297775132577759e-04  2.5651543097245781e-03  4.3276387760869481e-03  5.4593015623364436e-03  6.1123581377970325e-03  6.6382914596434502e-03  6.6475579617240894e-03  6.8907250147857554e-03  6.8877853931152613e-03  7.0370502289508951e-03  6.9706950835608569e-03  7.6725226263785083e-03  8.5831196510621453e-03  9.4622292368920207e-03  1.1266505434618714e-02  1.2435238148775420e-02  1.3279589275728369e-02  1.2645914590725123e-02  1.2435626871016386e-02  1.1896493304523739e-02  1.0174371982077220e-02  8.0401747047398175e-03  5.0410550113469199e-03  1.9024193557579392e-03  1.1669450804170098e-03  6.8584002417361517e-03  1.3374883809900286e-02  1.9105420277689130e-02  2.3545317726696425e-02  2.8040727953938843e-02  3.2072692575148637e-02  3.6334985809113741e-02  1.0810094795829178e-01  1.0860479948743770e-01  1.0253538255748230e-01  9.6438301483958225e-02  8.8668796699617664e-02  6.7478918045637687e-02  5.2425093620266497e-02  3.6081611111625445e-02  2.1518221965891739e-02  3.9259610062910982e-03  3.0825910543043015e-03  1.2046503934464287e-02  1.5805682540653870e-02  1.8812007589263192e-02  2.3087533867872038e-02  3.1432171971501451e-02  3.8105892358331665e-02  3.3616520863312301e-02  2.6647957103821517e-02  2.3531529284552235e-02  2.6455393497105361e-02  1.2423104448195168e-02  2.1538850946504793e-02  4.6541882402533069e-02  6.5420580443390108e-02  6.3288231475975981e-02  4.8020251074546161e-02  3.5867250779037213e-02  3.3121532152696732e-02  3.7627652451989131e-02  5.0252157580100529e-02  6.6372538562519373e-02  7.1746702250368388e-02  7.8268037790925435e-02  7.8602554378010364e-02  7.7308460504161097e-02  8.0257837636078896e-02  8.7302733207481137e-02  9.6816486383442271e-02  1.0608540725247195e-01  1.0961285184646825e-01  1.0866435476237266e-01  9.2438794471640259e-02  8.4387699380104431e-02  5.5037634455571180e-02  2.0419352207932746e-02  7.7282526607251592e-03  3.9949991512924284e-02  6.7643582242401509e-02  8.5771080681685624e-02  1.0582140152895031e-01  1.2571381691238745e-01  1.5210306521517694e-01  1.2881064897673536e-01  9.8844440942100792e-02  3.5981968031513420e-02  3.1275801763307520e-02  5.1381643326210945e-02  5.3916697790910413e-02  6.0560639638882308e-02  8.3215070538827360e-02  1.3235057123738528e-01  1.3950215611319783e-01  1.1253796842163012e-01  1.0484980202446935e-01  1.0321867477602882e-01  1.1249710136129245e-02  5.4162997551233079e-03  2.2534487473884958e-02  2.6958890017256171e-02  7.5295883892720150e-03  3.9764277921306768e-02  8.2490674445686626e-02  8.1171196869204834e-02  2.1506344343549783e-02  4.1379015608034156e-02  7.9438276437934913e-03  2.9694556006559725e-02  4.9396749677277599e-02  3.1716812576499116e-02  1.2499417892321783e-02  4.5080877941989346e-02  6.6050231186337488e-02  5.6507873720568938e-02  3.9431325744587367e-02  5.7871295774849577e-02  6.3426242194044413e-02  1.2589901252855475e-02  5.0156023966409094e-03  6.5807932005516280e-03  2.4609191490477866e-02  5.0338346389833893e-02  2.4827686207145549e-02  6.3909630634404094e-02  1.2071152037192553e-02  1.0690912087206134e-03  1.0570539057390426e-02  1.6335206969485688e-02  2.2270968389652590e-02  2.6340147530566516e-02  2.3697093476156769e-02  1.7840708519223338e-02  1.2380655400435901e-02  4.2096605829230272e-03  9.0932613208131587e-05  1.3718169041307111e-02  6.5224751177345261e-02  1.3093855456931372e-01  1.1982344735230434e-01  9.8542207881387414e-02  7.5464252795554632e-02  5.2472502045411137e-02  4.5461892916331993e-03  2.2098662893206396e-02  3.9896198640784405e-02  5.3574235622931933e-02  5.2718749612909621e-02  4.2040653830630603e-02  1.2760322148589928e-02  2.4936574668751339e-02  6.5827424587690461e-02  9.5355435338456307e-02  1.0677420468197019e-01  1.1004388467568083e-01  3.0572072957939515e-02  5.2691346871718055e-03  1.5424085126573644e-02  6.1685385883540498e-03  4.2528850462119648e-02  3.8688946370927645e-02  1.4485528821127004e-02  2.6303541795885017e-02  7.8642167512558536e-02  6.4445922257599181e-02  3.7008694782021137e-02  5.3368220785488960e-02  6.1508852959245908e-02  1.7200079528114362e-01  1.5783630176739130e-01  1.2479338345365076e-01  8.9711333616673911e-02  5.8565029474712420e-02  6.9346582144695620e-02  4.2165995371753917e-02  7.1828792311869089e-02  1.9057521425997151e-01  1.5926007713178178e-01  1.1145036346406055e-01  4.5985981980260854e-02  4.7681264459156450e-02  1.0390017335235624e-01  1.4963375569914519e-01  1.5844045094073608e-01  1.2075145337410613e-01  7.7220125740056461e-02  6.5263077105057077e-02  5.8091971935224508e-02  5.0949092190940175e-02  3.5662965660455792e-02  1.3482841233398464e-02  3.8610980082587072e-04  1.5578279580975619e-03  7.3663770018755834e-03  4.6017274646947470e-03  1.6746803648701111e-02  2.7481914276824584e-02  2.2387185502508983e-02  5.2453793827900623e-03  1.6854206204490591e-02  6.5642930694384177e-02  9.6721829303630089e-02  1.3973502910940985e-01  1.3260056403805068e-01  2.1849842484862025e-01  2.3081295873720922e-01  8.4001515531596127e-02  2.5901491013835997e-02  8.3250715772663381e-02  4.8594339223501253e-02  1.6743804461261613e-02  7.4593500897538328e-02  1.2328269471404162e-01  1.5441280466123528e-01  6.5556842618997371e-02  1.3643283080515572e-01  1.5834473540800248e-01  5.2762678316340746e-02  5.0267269296826594e-02  5.5552604027654544e-02  3.5980246927998900e-02  1.9982760658891228e-02  2.8744751070368089e-02  3.2229355772891391e-02  1.0747386233971751e-02  1.1036128400846029e-02  1.4299659357329369e-02  4.7211784147421967e-03  4.4639361817088767e-02  9.6254470499506528e-02  9.4740964051769044e-02  6.9114392346610778e-02  3.4984792628182104e-02  3.0428348911309441e-03  1.4444532027244966e-02  2.7139956479771683e-03  2.6477087312255551e-02  1.1905168022324669e-02  6.1956594572083147e-03  8.7723959427896139e-02  1.3574941951364661e-01  6.5555873990964450e-03  2.0180416658199642e-03  5.9097983899685236e-03  1.0598116055998585e-02  7.2185890358048468e-02  5.6982851550093007e-02  6.4070334475136159e-02  5.7971274020037059e-02  3.0236918797085567e-03  1.7497611605997745e-02  3.5872581287998539e-03  1.2417424611167101e-02  4.4091682363902124e-02  9.7080023580079569e-02  3.9068382699560748e-02  4.9994775889495295e-02  1.8032856290823532e-02  2.5464464603252392e-02  6.0581036754284209e-02  6.4552352335153149e-02  6.5732849541983607e-02  5.2671701355490860e-02  2.8494846913211264e-02  2.3143697273879899e-02  5.9318871606492733e-02  2.6783721864279169e-02  5.4913792820925060e-02  2.7376678132853108e-02  2.3166107223465918e-02  6.2667342831926071e-02  1.9639152442546021e-02  2.8064663379594540e-02  3.6889400377904703e-02  2.4961161660741835e-02  3.9534738065405209e-02  5.2077794989194938e-02  3.8825139146167427e-02  3.3662339725884387e-02  1.6844290064026095e-02  5.4719375924525637e-02  1.0289387463070431e-02  1.4000420650190139e-02  1.1076147602414255e-02  3.6647047465943876e-02  6.3179904321794836e-02  3.8782274159334357e-02  4.0953154175614223e-02  1.1259270384344757e-02  3.8061083540516516e-02  1.4806153104527285e-02  1.4957608648851223e-02  5.6402727048489046e-02  5.8250681999689732e-02  2.6151586426376758e-02  7.4054603104263747e-02  1.4616650154741511e-03  6.3954942728727121e-03  1.1718877810199771e-03  4.2709610205796091e-02  3.9195295556382403e-02  2.4873812510572933e-03  2.4849904272242509e-02  1.6507641667850754e-02  6.6803730167229763e-02  5.6058773102831701e-02  5.3701782037617732e-02  3.9178360561695396e-03  1.0895024390362371e-02  3.9389980358295398e-03  1.0936572187776557e-02  4.6437884767308334e-02  6.7245516626439031e-02  5.2127057737455650e-02  4.0306010003174839e-02  8.9547424709096948e-03  4.1396593437567922e-02  2.3155044697104051e-02  4.1293350901069760e-02  3.9381710056352597e-02  4.4419841864241728e-02  4.8504397077441690e-02  2.2729115306450144e-02  1.4882570518471784e-02  2.4520860437841869e-02  1.8147655962073544e-02  2.1576307919852045e-02  1.7911957044159651e-02  2.0154626794602653e-02  3.1101406535992901e-02  1.3217751427751234e-02  4.6332510329736140e-03  4.2254023245140132e-02  1.8505455620855375e-02  5.2436364139229856e-02  3.9884306323824852e-03  1.5336964155231836e-02  1.3925586518523252e-02  1.6026449341593852e-02  3.0369107731643636e-03  4.7783437848136247e-02  4.5257837232844364e-02  1.1301269738265368e-02  1.0322712387316900e-02  4.7052385490809499e-02  4.1911358709078049e-02  3.2556124107562714e-02  4.1795687373879183e-02  1.0716153643350754e-02  2.7110636861335660e-02  5.1583605400991632e-03  5.7814361508602294e-02  5.7836274251453823e-02  6.6776304281447891e-03  1.9015944471340713e-02  5.8648234238048418e-03  4.2645875582704558e-02  2.2349841816808033e-02  4.2960527625341607e-03  5.1123091059604442e-02  5.8199757455572728e-03  2.6272775647475183e-02  5.7303938689682796e-02  2.3856068730981093e-02  3.1936968643511816e-02  3.4426723744782298e-02  4.8598345073815080e-02  4.5840618775567998e-02  4.7619962777930645e-02  1.8537372609639800e-02  2.5228330317789704e-02  1.5705395045134421e-02  5.8855024408647191e-02  4.4419643374094282e-03  2.0331741416008322e-02  6.7319356633073993e-02  1.7310440990690720e-02  1.6458037018808609e-02  1.6802326560731249e-02  3.2581573828736284e-02  5.0803103104636024e-02  2.8807630261533071e-03  3.8060213455175700e-03  3.9058920997651343e-03  3.4046534626786244e-02  2.4526252054275326e-02  3.2539791012844585e-02  1.7665044886539770e-02  5.0843144426246004e-02  3.4999901064691252e-02  1.8362678258596405e-02  3.2151763247617357e-02  5.5773702235721055e-02  2.2650496778754439e-02  1.8365061454314047e-02  1.1780394378934604e-02  3.1275583856975243e-02  1.8057218904034451e-02  1.7768393535017336e-02  4.2043823437305200e-02  2.1912220684533242e-02  3.0311286400070730e-02  3.2587899628981759e-02  1.3162890958156970e-02  5.1510669901401115e-03  6.8245767235867144e-02  1.9904419205134170e-02  2.2875001020843663e-02  5.2845551526227531e-02  2.9157485335808905e-02  3.8861740114688383e-02  4.5371599124560964e-02  5.7009706675060657e-03  6.1841028180216563e-02  5.6988600461656672e-02  3.6236571969555383e-02  4.5172621142655967e-02  4.6335210640892126e-02  1.2828193488756306e-01  4.5661858328595983e-02  1.9530195602265744e-02  1.6317972773236093e-02  9.6816898077189146e-03  8.8444463530988598e-03  7.4977483664458635e-03  2.1820637243933285e-03  3.6064116383613176e-02  2.8073143422049019e-02  7.5090651968685224e-02  6.5927982862468001e-03  6.9252486741897490e-02  4.8782632923654937e-02  3.2625646806716162e-03  5.6106415949964223e-03  2.9499912880262959e-02  5.0647768257466294e-02  2.6780475270436987e-02  4.6324913575308858e-02  8.3666412894380440e-03  5.1430043215342496e-02  6.8128299949093335e-02  4.3967144976438680e-02  5.6091948958213803e-02  5.2212679629203201e-02  6.6405669620355975e-02  1.1