<?xml version="1.0"?>
<VTKFile type="UnstructuredGrid"  version="0.1"  >
<UnstructuredGrid>
<Piece  NumberOfPoints="9558" NumberOfCells="17846">
<Points>
<DataArray  type="Float64"  NumberOfComponents="3"  format="ascii">0 1 0  0 0 0  1 0 0  1 1 0  0.2962462297074247 0.5667764423166002 0  0.2969160382717402 0.5539957335462841 0  0.2962462297074247 0.5412150247759679 0  0.2942441425772751 0.5285743441254747 0  0.2909317121668531 0.5162121855372435 0  0.2863452301569059 0.5042639914077151 0  0.2805349470041175 0.492860668652093 0  0.2735645213865897 0.4821271544607864 0  0.2655103227460437 0.4721810474614076 0  0.2564605945682346 0.4631313192835985 0  0.2465144875688557 0.4550771206430523 0  0.2357809733775492 0.4481066950255246 0  0.224377650621927 0.4422964118727362 0  0.2124294564923986 0.437709929862789 0  0.2000672979041675 0.434397499452367 0  0.1874266172536741 0.4323954123222174 0  0.174645908483358 0.4317256037579019 0  0.1618651997130418 0.4323954123222174 0  0.1492245190625485 0.434397499452367 0  0.1368623604743174 0.437709929862789 0  0.124914166344789 0.4422964118727363 0  0.1135108435891669 0.4481066950255247 0  0.1027773293978604 0.4550771206430524 0  0.09283122239848153 0.4631313192835985 0  0.0837814942206724 0.4721810474614076 0  0.07572729558012632 0.4821271544607864 0  0.0687568699625986 0.492860668652093 0  0.0629465868098102 0.5042639914077151 0  0.05836010479986296 0.5162121855372435 0  0.05504767438944096 0.5285743441254747 0  0.05304558725929137 0.5412150247759679 0  0.05237577869497582 0.5539957335462842 0  0.05304558725929137 0.5667764423166002 0  0.05504767438944096 0.5794171229670935 0  0.05836010479986298 0.5917792815553247 0  0.06294658680981019 0.6037274756848531 0  0.06875686996259861 0.6151307984404751 0  0.07572729558012635 0.6258643126317818 0  0.08378149422067242 0.6358104196311606 0  0.09283122239848159 0.6448601478089697 0  0.1027773293978604 0.6529143464495157 0  0.113510843589167 0.6598847720670435 0  0.1249141663447891 0.665695055219832 0  0.1368623604743174 0.6702815372297791 0  0.1492245190625486 0.6735939676402012 0  0.1618651997130419 0.6755960547703508 0  0.1746459084833581 0.6762658633346663 0  0.1874266172536742 0.6755960547703507 0  0.2000672979041674 0.6735939676402012 0  0.2124294564923986 0.6702815372297791 0  0.224377650621927 0.6656950552198319 0  0.2357809733775492 0.6598847720670434 0  0.2465144875688557 0.6529143464495157 0  0.2564605945682345 0.6448601478089697 0  0.2655103227460437 0.6358104196311606 0  0.2735645213865897 0.6258643126317818 0  0.2805349470041175 0.6151307984404751 0  0.2863452301569059 0.6037274756848531 0  0.2909317121668531 0.5917792815553247 0  0.2942441425772751 0.5794171229670935 0  0.4671084661317482 0.2774637603850804 0  0.4676473378928454 0.2647782995855627 0  0.4671084661317482 0.252092838786045 0  0.4654957334318435 0.2394987770222745 0  0.4628207595691899 0.2270868547978516 0  0.4591028177917647 0.2149465002968214 0  0.4543686959552705 0.2031651850515597 0  0.4486525035160216 0.1918277937083769 0  0.4419954257715288 0.1810160124316958 0  0.4344454271194881 0.1708077403533671 0  0.426056905473195 0.1612765283076365 0  0.4168903003233336 0.1524910488957011 0  0.4070116572700611 0.1445146016980425 0  0.3964921521629445 0.1374046571994997 0  0.3854075782773351 0.1312124427131088 0  0.3738378002220806 0.1259825732861384 0  0.3618661785131902 0.1217527302476521 0  0.3495789689594056 0.1185533897136689 0  0.3370647011871222 0.1164076030060486 0  0.3244135407824036 0.1153308305671904 0  0.3117166396458661 0.1153308305671904 0  0.2990654792411474 0.1164076030060486 0  0.2865512114688643 0.1185533897136688 0  0.2742640019150795 0.1217527302476522 0  0.2622923802061891 0.1259825732861385 0  0.2507226021509346 0.1312124427131088 0  0.239638028265325 0.1374046571994998 0  0.2291185231582087 0.1445146016980425 0  0.2192398801049361 0.1524910488957011 0  0.2100732749550748 0.1612765283076366 0  0.2016847533087817 0.1708077403533671 0  0.1941347546567408 0.181016012431696 0  0.1874776769122482 0.1918277937083768 0  0.1817614844729993 0.2031651850515598 0  0.1770273626365051 0.2149465002968215 0  0.1733094208590798 0.2270868547978516 0  0.1706344469964262 0.2394987770222747 0  0.1690217142965215 0.2520928387860451 0  0.1684828425354243 0.2647782995855627 0  0.1690217142965215 0.2774637603850804 0  0.1706344469964262 0.2900578221488508 0  0.1733094208590798 0.3024697443732738 0  0.1770273626365051 0.314610098874304 0  0.1817614844729993 0.3263914141195657 0  0.1874776769122482 0.3377288054627486 0  0.1941347546567409 0.3485405867394294 0  0.2016847533087817 0.3587488588177583 0  0.2100732749550748 0.3682800708634889 0  0.2192398801049362 0.3770655502754243 0  0.2291185231582087 0.3850419974730829 0  0.2396380282653252 0.3921519419716257 0  0.2507226021509347 0.3983441564580166 0  0.2622923802061891 0.403574025884987 0  0.2742640019150795 0.4078038689234733 0  0.2865512114688642 0.4110032094574566 0  0.2990654792411475 0.4131489961650768 0  0.3117166396458662 0.414225768603935 0  0.3244135407824036 0.414225768603935 0  0.3370647011871223 0.4131489961650768 0  0.3495789689594055 0.4110032094574566 0  0.3618661785131903 0.4078038689234733 0  0.3738378002220806 0.403574025884987 0  0.3854075782773351 0.3983441564580166 0  0.3964921521629446 0.3921519419716257 0  0.4070116572700611 0.3850419974730829 0  0.4168903003233336 0.3770655502754243 0  0.426056905473195 0.3682800708634889 0  0.4344454271194881 0.3587488588177583 0  0.4419954257715288 0.3485405867394294 0  0.4486525035160215 0.3377288054627486 0  0.4543686959552705 0.3263914141195656 0  0.4591028177917647 0.314610098874304 0  0.4628207595691899 0.3024697443732738 0  0.4654957334318436 0.2900578221488508 0  0.5140839711660742 0.09602065322555491 0  0.5157273301017384 0.08353810283129914 0  0.5140839711660742 0.07105555243704334 0  0.5092658865547677 0.05942366722376625 0  0.5016014207718184 0.04943514094615347 0  0.4916128944942056 0.04177067516320415 0  0.4799810092809285 0.03695259055189771 0  0.4674984588866727 0.03530923161623341 0  0.455015908492417 0.03695259055189771 0  0.4433840232791398 0.04177067516320417 0  0.4333954970015271 0.0494351409461535 0  0.4257310312185777 0.05942366722376629 0  0.4209129466072713 0.07105555243704338 0  0.419269587671607 0.08353810283129914 0  0.4209129466072713 0.09602065322555492 0  0.4257310312185777 0.107652538438832 0  0.4333954970015271 0.1176410647164448 0  0.4433840232791399 0.1253055304993941 0  0.455015908492417 0.1301236151107006 0  0.4674984588866727 0.1317669740463649 0  0.4799810092809285 0.1301236151107006 0  0.4916128944942056 0.1253055304993941 0  0.5016014207718185 0.1176410647164448 0  0.5092658865547678 0.107652538438832 0  0.1516663073665349 0.3763367331280458 0  0.1533096663021992 0.36385418273379 0  0.1516663073665349 0.3513716323395342 0  0.1468482227552285 0.3397397471262571 0  0.1391837569722791 0.3297512208486443 0  0.1291952306946663 0.322086755065695 0  0.1175633454813892 0.3172686704543886 0  0.1050807950871335 0.3156253115187242 0  0.09259824469287771 0.3172686704543886 0  0.08096635947960058 0.322086755065695 0  0.07097783320198778 0.3297512208486443 0  0.06331336741903848 0.3397397471262572 0  0.05849528280773204 0.3513716323395342 0  0.05685192387206774 0.36385418273379 0  0.05849528280773204 0.3763367331280458 0  0.06331336741903848 0.3879686183413228 0  0.07097783320198781 0.3979571446189357 0  0.08096635947960061 0.405621610401885 0  0.09259824469287771 0.4104396950131914 0  0.1050807950871335 0.4120830539488557 0  0.1175633454813892 0.4104396950131914 0  0.1291952306946663 0.405621610401885 0  0.1391837569722791 0.3979571446189357 0  0.1468482227552285 0.3879686183413228 0  0.3222076865573406 0.7953189074138386 0  0.3232306862384335 0.7826467825225927 0  0.3222076865573406 0.7699746576313468 0  0.319165182668445 0.7576307341184233 0  0.3141819738243155 0.7459347131188423 0  0.3073871225164558 0.7351895154328559 0  0.2989566118245685 0.7256734360363385 0  0.2891087875472298 0.7176329363870935 0  0.2780987031603989 0.7112762612025562 0  0.2662115140663635 0.7067680450309983 0  0.253755092218606 0.7042250483032062 0  0.2410520523999263 0.703713133298655 0  0.2284313966690281 0.7052455583470661 0  0.2162199933800165 0.7087826344446313 0  0.2047341114637221 0.7142327531783644 0  0.1942712292285205 0.7214547593358772 0  0.1851023298284044 0.7302616067512355 0  0.1774648829416358 0.7404252027024054 0  0.1715566944308156 0.7516823153929431 0  0.1675307832749456 0.7637413915172524 0  0.1654914184582488 0.7762901073380554 0  0.1654914184582488 0.78900345770713 0  0.1675307832749456 0.8015521735279328 0  0.1715566944308156 0.8136112496522424 0  0.1774648829416358 0.8248683623427799 0  0.1851023298284045 0.8350319582939499 0  0.1942712292285205 0.8438388057093081 0  0.204734111463722 0.8510608118668209 0  0.2162199933800166 0.8565109306005541 0  0.2284313966690281 0.8600480066981193 0  0.2410520523999263 0.8615804317465303 0  0.2537550922186061 0.8610685167419792 0  0.2662115140663635 0.858525520014187 0  0.2780987031603989 0.8540173038426292 0  0.2891087875472298 0.8476606286580919 0  0.2989566118245685 0.8396201290088469 0  0.3073871225164558 0.8301040496123294 0  0.3141819738243155 0.8193588519263431 0  0.319165182668445 0.8076628309267621 0  0.3502904823604249 0.4840937341119224 0  0.3536219862727894 0.4716603922453636 0  0.3502904823604249 0.4592270503788048 0  0.3411886444062306 0.4501252124246106 0  0.3287553025396718 0.446793708512246 0  0.316321960673113 0.4501252124246106 0  0.3072201227189187 0.4592270503788048 0  0.3038886188065543 0.4716603922453636 0  0.3072201227189188 0.4840937341119224 0  0.3163219606731131 0.4931955720661166 0  0.3287553025396718 0.4965270759784812 0  0.3411886444062306 0.4931955720661166 0  0.8587716763886428 0.6531886281651049 0  0.8590930857779883 0.6405051771475729 0  0.8587716763886428 0.6278217261300409 0  0.8578082732738992 0.6151708333493637 0  0.8562053494757358 0.6025849734658686 0  
[...]
<PointData  Scalars="f_sigma_Mis"> 
<DataArray  type="Float64"  Name="f_sigma_Mis"  format="ascii">5.6968048918054792e-02  6.4338352938188223e-02  6.9052626772994855e-02  7.5093402082192659e-02  6.8435499601349564e-02  7.2008549124006088e-02  7.4654991736102086e-02  7.8093153113683506e-02  8.4845768607893876e-02  1.0113860100285940e-01  1.3193603573338208e-01  1.6836937339290664e-01  1.7411747454853777e-01  1.6255877688206755e-01  1.1249087744756206e-01  6.3102323342939401e-02  1.4272354033273467e-02  3.3263718140143207e-02  7.9593127436351802e-02  1.0061514829418892e-01  1.3159569619027525e-01  1.4387784317965063e-01  1.4800087023980299e-01  9.5955649732728396e-02  3.0865744208537535e-02  6.8619277245269977e-03  1.7492742380321055e-02  1.6725921053839778e-02  1.4837616429891879e-02  2.8072045163869502e-02  4.7988169008695500e-02  8.6402533769685361e-02  1.1829966781658592e-01  1.5367538767573158e-01  1.8402771731801112e-01  1.9923203730287128e-01  1.9201619709707049e-01  1.7906825722285621e-01  1.5358601863567448e-01  1.1479410049218144e-01  7.8294451422643782e-02  4.6209612316261341e-02  2.1205460760122176e-02  3.0761927421601907e-03  1.3711849316650725e-02  2.4710344173069037e-02  3.8930333896637255e-02  5.2192592884804150e-02  5.5781172237600193e-02  5.6310328110333027e-02  5.8829894468286445e-02  5.5243039488696813e-02  3.2866976938326214e-02  7.4906974191642200e-03  4.8011756269737298e-02  7.6702902542469781e-02  7.6043579318083129e-02  5.3578839463506493e-02  3.8432074175465951e-02  2.9457861405939777e-02  2.8674241473704936e-02  3.6599653698921673e-02  4.7845972234314332e-02  5.8365792348517874e-02  1.0670180413640450e-01  1.0349686235600082e-01  1.0005486186217619e-01  7.6136604969171726e-02  6.1499455327443900e-02  2.8165355150172829e-02  1.4763422730226208e-02  9.3088153002389030e-03  1.2968092465629874e-02  1.8473247203046599e-02  1.4456182453331187e-02  2.5451044100600461e-03  9.6785074320116047e-03  1.8106672251395776e-02  1.4208700995793855e-02  1.0728679339025960e-02  7.4811895985139876e-03  5.9331532646988271e-03  6.1824018604838479e-03  8.5320783426149141e-03  1.0278624530143450e-02  1.3510556943105646e-02  1.5197807453492748e-02  1.7529651551665127e-02  1.9927854731287331e-02  2.1283191975954262e-02  2.2676149099249168e-02  2.1407677057930008e-02  2.0414429640953177e-02  1.4892644118339616e-02  1.0854374236471219e-02  3.4998931568724682e-03  1.1671877454882220e-03  1.0193156381556694e-02  1.9940893265449733e-02  2.4530748594174891e-02  3.6687895606407825e-02  4.1927886922508380e-02  5.7726898121168407e-02  6.9449936090861239e-02  8.0350252121490384e-02  9.4234977884233059e-02  1.0408431229269856e-01  1.0767098855063954e-01  1.0843581844736178e-01  1.1100020587478200e-01  1.0566961329148586e-01  1.0988488261636244e-01  1.1028387700880656e-01  1.0159141856664235e-01  7.5603873387362033e-02  2.1029968547508306e-02  4.0614264777094504e-02  6.3093431710850065e-02  9.0912763527249238e-02  1.0519009304704564e-01  1.0796735705623656e-01  9.5687037154685198e-02  8.3718713410625020e-02  6.7777209432681368e-02  5.6305075239410189e-02  4.6648629356621001e-02  3.2430366104961625e-02  8.3401612548062339e-03  8.7264250656368756e-03  3.2924018055677406e-02  5.8155422270604495e-02  7.8621778623822192e-02  8.3108887871144663e-02  8.7827800623801841e-02  9.9175757498872336e-02  9.7886229601397964e-02  1.0721921429733940e-01  1.0396275253528735e-01  9.0385377793269855e-02  8.6565663209235602e-02  6.8598585938812157e-02  2.7392067337942146e-02  6.7329609421607640e-03  2.2878306700773968e-02  3.0846441083543577e-02  3.5199329962716665e-02  3.0975174745168293e-02  2.5333142619527044e-02  1.4092753946244136e-02  2.9128358135427756e-03  1.6190164725526722e-02  3.0765387993583485e-02  4.1228167461084694e-02  4.7346158968401886e-02  5.0339653849743496e-02  3.2039463159667492e-02  5.3712060659770735e-03  2.3413875167730223e-02  3.7628392029603275e-02  1.6024386672448494e-02  2.0379892297067530e-02  6.3969362655225195e-02  4.4151832982815900e-02  2.8328879359538785e-02  4.0403084153666523e-02  4.9639008795898741e-02  4.2594214615893293e-02  1.9823746631248449e-02  9.2757154966662137e-03  1.4867152382007931e-03  1.0098311553541408e-02  3.5725945073040846e-02  7.5925811256338752e-02  1.1662864102455153e-01  1.4584854487240356e-01  1.3636290532635248e-01  8.4319932966672798e-02  1.1135651285877934e-02  3.2989028047168960e-02  8.8379355333810916e-02  7.9941504412786843e-02  5.3414055869355805e-02  1.9983826638865040e-02  6.9700959618215153e-02  9.7454142030583085e-02  7.5531097943388595e-02  1.1162120639850168e-01  1.1188373050485023e-01  9.5027292934802096e-02  6.7444770375542265e-02  3.2847267316837750e-02  8.1520860185873689e-03  3.7137668539679286e-02  5.8352124208711408e-02  6.9033460871637753e-02  6.3233843624835820e-02  5.3069208892060481e-02  3.6091953399922987e-02  2.0336156812353599e-02  4.9506892023824543e-02  9.5864094636495145e-02  9.8832233834919084e-02  8.7041751311039750e-02  6.3659207290506503e-02  5.1427515393799375e-02  3.8196316491442076e-02  2.4291426525149786e-02  1.6210833514459465e-02  5.7152298641043806e-03  2.1420349202863967e-03  7.5796140225093695e-03  1.8558886872140613e-02  2.4087396581282377e-02  2.8753036377566772e-02  3.0104512234031291e-02  2.6969642584042108e-02  2.1328297435214080e-02  1.3494671130764828e-02  2.6091788162255275e-03  9.7428651537079455e-03  2.3298138629696114e-02  4.7059306684907765e-02  5.9924791158276550e-02  8.0940061204633609e-02  9.4791894933175552e-02  5.4418081594353775e-02  1.2938377907409860e-02  1.1824654335884824e-02  6.0372897189610499e-03  2.4002598944637098e-02  2.6178787458911380e-02  6.2149392079950032e-03  9.1635497063778954e-03  7.3373236023103167e-02  7.5005977446372732e-02  4.5031717260444380e-02  5.6494686543574424e-02  1.0847993423855780e-01  1.0850645476678246e-01  1.1290007073498523e-01  1.1256677292445932e-01  1.0920488902793402e-01  9.8126251299891151e-02  9.5097763350925096e-02  8.6822069715894984e-02  7.8869227147701143e-02  7.5046980831614540e-02  7.0990630144351405e-02  6.7772337490639795e-02  6.9791231825279326e-02  7.3819788718703178e-02  8.1005284070472403e-02  8.5463780444082607e-02  8.8755373387586517e-02  8.4718887140191212e-02  6.5162511325909570e-02  4.9023403473577920e-02  1.2649564000393942e-02  3.7365277989016986e-03  2.8917422605029820e-02  3.8079652701251160e-02  4.0403444691744887e-02  3.8680203480594720e-02  3.2637050276747785e-02  3.1021732055626625e-02  3.1217080613459763e-02  2.9461525348177454e-02  3.2663573659354676e-02  3.2791956001501303e-02  3.1089108706688674e-02  2.9037949318574143e-02  2.4455816049523092e-02  2.4213266186610634e-02  2.7072258045522265e-02  3.1864693952662039e-02  3.4588119598756906e-02  3.0592050820641155e-02  3.0083743594951164e-02  2.3500391637191850e-02  1.4129545518723285e-02  2.3040075806682291e-03  2.0395796697624698e-02  4.4106671967664934e-02  5.7830881078448478e-02  7.7414183930154382e-02  8.6638609480748335e-02  8.8623811402458924e-02  9.1062178937985128e-02  8.4930639225587412e-02  7.2750934259760355e-02  6.2072587498217785e-02  5.0547857019382615e-02  4.5152832034396351e-02  4.6041983883938667e-02  5.0248011146330762e-02  5.9713380127505128e-02  6.7213397763417296e-02  7.4555720211916157e-02  8.2900101039016502e-02  8.6335256202213412e-02  9.3278143357612767e-02  9.9403607319324086e-02  1.1348187151825967e-01  1.1273443593433691e-01  1.1179999457374389e-01  1.0594165683533656e-01  8.7785317766153947e-02  6.2569570698166960e-02  4.3543126529284687e-02  1.6033988470007605e-02  5.7363195963433230e-03  8.6151246440624560e-04  2.9711895961808694e-03  4.9986993944461508e-03  4.8433866666862590e-03  2.1296623471268126e-03  6.4873231102832935e-04  1.1065953440512475e-03  1.5914877227409517e-03  2.9480822359830914e-03  3.1621344616127077e-03  3.7587900332633028e-03  4.4115080414367965e-03  4.6939604366127196e-03  4.9539237782831461e-03  4.9551147920595959e-03  4.7710432752559422e-03  4.6359359987320024e-03  4.3478135717506423e-03  4.2517212409536624e-03  4.2465696466884011e-03  4.5062771215096335e-03  4.9844866116240585e-03  5.8220673188064112e-03  6.8209962489341859e-03  8.1983341431753343e-03  1.0506400970359524e-02  1.2988629019115997e-02  1.4579799200748759e-02  1.5634104241941001e-02  1.6969606285364196e-02  1.7941514867632097e-02  1.8572894036139459e-02  1.8244257733066739e-02  1.6824474950680023e-02  1.3751877416990669e-02  9.9220818232844607e-03  5.5099906933145449e-03  1.0671215915388145e-03  6.0534755241901331e-03  1.4985210360899396e-02  2.2650526699231930e-02  3.1655603428995739e-02  4.3135142179703531e-02  4.9786955119311249e-02  6.3126442357850684e-02  7.0725886766537530e-02  8.1605290616511922e-02  9.0767043855673371e-02  1.0072693489286073e-01  1.0440636142300420e-01  1.7835048918576288e-01  1.8426311928090019e-01  1.7949890976290792e-01  1.4801430331697812e-01  1.1578466682154148e-01  7.2895892110960953e-02  2.5975909865896086e-02  6.3058484986353710e-03  2.8045156891829695e-02  4.1078438609518216e-02  4.5473410500787570e-02  5.0847884393098723e-02  5.0318693830152410e-02  4.7874732876164179e-02  4.5715286265881207e-02  1.8973408237918842e-02  1.0094733119130370e-02  6.8600990917346755e-02  1.1304897848274466e-01  1.2336686234918590e-01  1.2823780647945188e-01  1.0927577287749778e-01  1.0859294623590637e-01  9.6650833972883723e-02  8.9229839821151180e-02  6.1238326077319695e-02  3.3282777875854909e-02  8.9627481366734828e-03  4.0895489672650824e-02  7.1807492906146159e-02  9.0046581626948841e-02  8.6491370775297782e-02  7.0583814503832359e-02  4.7842604916584895e-02  8.0441855898046501e-03  2.5928994067127106e-02  5.7908049878779559e-02  1.1453306966986733e-01  1.5323406133159764e-01  1.0573371990321432e-02  2.1201364986048528e-02  1.0956434795809421e-02  4.8262393116360290e-02  4.3295857324674260e-02  1.9393053067401349e-02  4.9017599686680069e-02  5.2983955527796431e-02  2.0459521921239045e-02  1.8364263533542220e-02  4.1491448229404281e-02  3.8063939575712552e-02  9.1529950997520176e-02  6.8154755561906269e-02  4.9872864574129455e-02  3.2169828496856734e-02  1.9605248104064797e-02  9.1174594554091423e-03  1.6741359967927982e-03  6.3801892951514238e-03  1.0953594446382301e-02  1.4976522309690285e-02  1.4289110349827577e-02  1.3763178117057450e-02  1.1839614530288161e-02  1.0325702070705441e-02  9.4732464760355819e-03  9.5799967233350519e-03  8.1739134320256580e-03  6.5932678573431148e-03  3.1078566703058087e-03  2.7649189470109914e-04  3.5912106714524579e-03  5.2084535524340742e-03  7.0384398693200470e-03  1.4589341868011599e-02  2.6987489213330617e-02  5.5538313678145122e-02  9.6970317285453481e-02  1.1635918383274971e-01  1.0998985494326177e-01  9.7987557071585601e-02  7.7620178224354450e-02  6.2539345980640385e-02  4.6466996464676558e-02  1.9863810731317971e-02  3.2754545852896584e-03  1.9190629034126935e-02  3.3330294393808246e-02  3.6039376424614827e-02  3.2485905110313754e-02  8.8812711046683951e-03  1.5413320572969012e-02  3.0373296083608611e-02  3.6020377333671166e-02  4.4948715763862952e-02  5.0856755154521108e-02  5.0539470339946102e-02  5.0141094475092560e-02  4.2706706969861168e-02  3.3861409840885162e-02  2.2771788834841513e-02  3.0393648077126413e-03  1.2684403158397448e-02  2.6766869253311381e-02  3.3783901388188729e-02  2.9831546360819885e-02  6.0273747091594441e-03  4.9018847539205580e-02  9.1755798510512770e-02  1.0354576473322433e-01  1.1432040017160243e-01  2.5652258743202754e-03  6.5180304837009068e-02  5.8099543522552387e-02  1.8070137036113456e-02  4.7519788629049398e-03  8.0837089211440623e-03  6.6204041901017488e-02  5.3715441462132862e-02  6.9212906765914212e-02  5.5438756491205173e-02  6.5672260125654450e-03  1.1957815760449218e-03  2.4411820365407462e-03  5.8702930174855041e-02  7.0619120275403638e-02  5.6180834338467191e-02  2.4333326838136228e-03  1.1094783389984800e-02  1.6320811388419645e-02  1.5537233245231825e-02  3.5417761772659595e-02  7.6301454598263513e-02  7.4582078881259325e-02  3.6697999743056438e-02  6.2896752967024558e-02  2.6396897924027257e-02  1.4991497857891599e-02  5.9057472969299613e-02  2.2493658730582133e-02  3.4004788739783638e-02  2.8146345340630784e-02  4.3052527703857132e-02  3.2890951151738915e-02  1.6856581027687632e-02  2.9693433159596164e-02  1.9141530274013833e-02  9.6433118462092467e-03  3.9978698595419838e-02  5.4240439332906724e-02  6.9863773153074724e-02  5.1930874880607061e-02  4.8725796221565219e-02  3.5912044811616639e-02  7.4397936710753218e-02  2.0212172428156306e-02  1.0492691417673032e-02  4.0993087027620341e-02  5.5179005053197748e-02  4.1121777127554687e-02  1.4130374483552975e-02  6.8207064262930930e-03  4.5059711302383905e-02  1.7834853820637278e-02  9.4196911075190015e-03  5.7183309338804611e-02  1.7648936127456050e-02  3.9184688868994004e-02  3.3406076038901833e-02  6.0567130256063993e-02  4.8072931129249263e-02  5.9999930177580645e-02  3.0638409037544640e-03  5.4960253444255452e-02  4.6115081533984352e-02  6.3791164639561485e-02  5.7602181274816144e-02  1.6091782868882141e-03  7.5448062662531082e-02  1.0612607225444269e-03  2.3298986929175406e-03  1.9731761920743857e-02  1.6773618230413474e-02  7.6639053053547514e-03  1.3891128555392281e-03  8.7681805482010735e-03  6.8150381157342538e-02  7.8942851589587026e-02  6.0877837350379271e-02  8.1917227746258744e-02  1.0604102214700348e-02  1.7685820291972795e-02  3.2709025395903028e-02  5.8259206074610596e-02  4.4736357345304324e-02  1.1014065856311275e-01  1.9635584354790060e-03  5.8600482751675759e-02  3.0331041949725806e-03  2.9969785799194060e-02  8.2165470731248580e-03  6.6332753919922757e-02  4.1564456581276311e-02  3.6500837661978543e-02  3.4704529042427581e-03  4.8128234444046090e-02  2.2323878350301959e-02  4.0405693874057430e-02  1.9900016242550707e-03  3.9899855540713562e-02  2.4984337579403174e-02  5.9277837128966213e-02  2.3616335653719723e-02  4.8552957617603608e-02  5.4878143949438463e-02  2.4093327526490547e-02  2.1731134675188665e-03  3.3010556363700677e-02  2.6392473847391181e-02  1.7718627620549970e-02  2.0825126748271167e-02  2.4184425347175183e-02  4.3712488335771037e-02  1.3403405736171912e-02  5.9847099027051957e-03  1.7948792984256900e-02  7.0066122428381422e-02  5.1796718185428962e-02  5.1374829035937940e-03  2.0597639834627059e-02  1.0428847060656029e-02  1.4021286978517698e-02  2.1086836755273290e-02  2.8932462549909260e-02  2.8943404052584214e-02  6.0902723426164380e-02  5.9095289155700184e-02  1.5028430332899443e-02  3.0483258429567381e-02  3.0919790595583765e-02  9.4401903805671154e-03  5.0293656754203213e-02  3.7758976946787648e-02  4.8566236665682140e-02  1.0742145090626751e-02  4.8907665189527265e-02  2.2287256493670745e-02  5.0066793420238190e-02  1.1742062133692777e-02  5.0724088927852615e-02  5.9653550132608556e-02  7.8513267128223568e-02  2.2021723211344831e-02  5.4881754806748222e-02  3.1219300847659021e-02  5.0919776587016970e-02  7.6539013493778937e-02  5.5000650718662045e-02  5.3211034452202485e-03  4.5115556136146227e-02  4.1180951446815904e-02  5.7408316463259064e-02  3.8814260568078261e-02  7.5917334205583215e-03  3.8139015432904579e-03  5.9903716164170222e-02  4.9711958654023627e-02  1.0383207854168080e-02  5.8039571746884115e-02  2.5154214450477637e-03  1.5153677311756398e-02  4.8892892498449084e-03  2.6064482110565016e-03  7.2026389136255531e-02  4.8428882270562558e-02  2.2759277608662147e-03  2.7497491423880135e-02  4.9955248471267068e-02  7.6564664265978910e-02  3.3374606985980305e-02  7.0206788220282798e-02  1.0787390379157430e-03  1.0386855027257287e-02  1.0000056609836367e-02  5.6719613300680392e-02  5.4777587486633137e-03  3.6768195552558530e-03  6.6473570552976063e-02  5.8061868205126575e-03  7.0906047883217471e-02  2.1530302127321103e-02  4.6780070476002127e-02  5.6958577920790239e-02  4.8392167385611667e-02  1.0466002071013190e-01  3.1096563218434632e-02  2.8932957967336011e-03  1.4890139173830344e-02  4.7022236696028417e-02  4.1389326977458930e-02  1.3270150800918749e-02  5.0311489032315103e-02  1.3325471147105496e-02  4.8538102606600353e-02  2.4106720428128673e-02  7.9668798544851056e-03  7.1671726376453956e-02  3.7403176674059076e-02  3.3187470113447338e-02  2.0373692278069712e-02  2.1716745940331159e-02  6.5646116484113642e-03  6.0668944980985712e-02  2.2081574982460814e-02  1.8857341641663496e-02  8.1428593016090178e-02  2.4644103438957014e-02  4.3048312120199494e-02  2.5083009526826208e-02  1.1105784944263107e-02  4.1927504721281407e-03  5.3100465227217022e-02  1.5318938273811544e-02  6.8036976236707972e-02  5.3295414431800026e-02  6.5557786185541922e-02  4.3087627351556877e-02  1.2479554372421644e-02  2.5480869564706334e-02  2.9996699115383628e-02  6.9764719149003437e-02  6.7820375479493669e-02  4.6328148408768650e-02  3.5885470727555678e-02  2.0061385356694501e-02  1.7201993199773412e-03  2.1636026299114069e-02  1.8335524347379861e-03  2.5020656266886650e-02  2.4750194187044865e-02  2.3474748473200958e-02  1.1503873366259514e-03  2.4806938335461327e-03  3.2280086587051899e-03  5.7836348715136092e-02  2.3906861768900504e-02  4.0458197607980056e-02  7.7023875291905575e-02  1.1611827408129530e-02  5.2238646163979795e-03  4.8402453788958709e-02  5.1230046274444760e-02  4.2791493292977753e-02  3.0815537961859474e-03  3.6407259506553349e-03  2.6940296231989354e-02  7.2231407292485993e-03  5.1104425644317719e-02  5.5980382181482186e-02  4.8462761491396951e-02  7.4958633670072092e-02  6.5368883444827761e-02  5.3944150149982341e-03  1.8906746811081017e-03  3.5653561336042569e-02  2.7343793414184234e-02  3.3960427743306411e-02  1.9363400678601300e-02  4.8978878753369384e-02  2.0899966655743618e-02  3.4340793041592418e-02  2.3280085056582227e-02  1.9651057440582417e-02  7.6073377446320131e-02  9.3906722052679997e-03  1.2419252135172282e-02  6.1347720709831861e-02  4.0699414111346900e-02  3.2118346474592906e-02  2.2959348704357282e-03  6.2650986685515220e-02  5.2653392420759761e-02  1.7312100365550750e-02  7.8474888880710348e-03  7.2627050422340092e-03  7.8594588955665234e-02  3.1629420047355476e-03  2.9240045580710828e-03  5.2444945917020584e-02  5.7319768069973185e-03  5.4232370006528093e-02  5.4653282888649228e-02  6.4281303075776342e-02  1.3911183526178497e-02  2.6912212840561899e-02  4.3247975951724173e-02  7.3987201693904020e-02  8.7845513118708675e-03  1.9295618456659001e-03  8.0687486337891468e-03  7.6196155680540393e-03  4.9472979867618630e-02  5.1702829769023372e-02  3.9696875997006421e-02  3.4594317921615950e-02  4.1258431955254957e-02  6.6043752495871313e-02  6.1071694931646985e-02  4.6736110548310041e-02  8.9648710236920059e-03  9.0109732833951401e-04  2.9299832393166196e-03  6.8392394038765084e-02  5.8794251577468315e-02  3.2858197810750021e-02  2.0901421827390354e-03  1.6877445246023235e-03  6.6072089285140967e-02  1.2325267639404882e-02  5.7939817892546139e-02  1.4182024394081880e-02  1.0291804503334055e-02  9.6353319910446752e-02  5.9729651506294076e-03  4.8467329784909238e-02  7.8982731516059862e-02  3.8412748569346233e-02  1.1787301631307214e-03  2.7838829994779476e-03  6.9121516131199559e-02  6.0261730633318238e-02  5.8667650702518385e-02  4.7112521416292205e-03  4.3846305670293302e-02  4.7456202614770480e-02  7.2117611420110944e-02  6.2445270409943181e-02  1.2531535218479025e-02  4.8283567473829600e-02  3.4867479074537258e-02  3.5979070465242610e-02  5.5488230314851610e-02  1.0261340438185378e-02  6.8281010448001944e-02  1.4827887511781849e-02  1.5745844895426003e-02  6.1515073201222202e-02  6.2773786269058815e-02  3.5662142413549161e-02  7.2140215851496395e-02  1.6392762100882575e-02  7.5990538723783432e-02  4.5754996296510683e-02  1.8334314026341763e-02  7.4506656291563403e-02  6.5123538226533814e-02  6.3828856001914736e-02  5.2098755172568165e-02  5.2742623655184229e-03  2.3871880770990766e-02  8.4788080664645701e-02  2.6771644522793785e-02  3.7708658104458566e-02  4.5818773125294837e-02  5.9496102135707149e-02  3.2191783721986396e-02  4.3787676038667921e-02  8.8027709020197711e-03  5.912