<?xml version="1.0"?>
<VTKFile type="UnstructuredGrid"  version="0.1"  >
<UnstructuredGrid>
<Piece  NumberOfPoints="11835" NumberOfCells="22454">
<Points>
<DataArray  type="Float64"  NumberOfComponents="3"  format="ascii">0 1 0  0 0 0  1 0 0  1 1 0  0.3743586654239869 0.262646040248429 0  0.375 0.25 0  0.3743586654239869 0.237353959751571 0  0.3724412426565618 0.2248376849889173 0  0.3692674070500061 0.2125796096283302 0  0.3648697264525288 0.2007055181108351 0  0.3592933270180727 0.1893372546836148 0  0.3525954301509096 0.1785914731131509 0  0.3448447653365989 0.1685784396597222 0  0.3361208648844608 0.15940090159636 0  0.3265132478184578 0.1511530328827876 0  0.3161205012908703 0.1439194678131561 0  0.3050492689447042 0.1377744325536573 0  0.2934131566056025 0.1327809834816149 0  0.28133156653234 0.1289903601417244 0  0.2689284721880721 0.1264414594589861 0  0.2563311461048391 0.1251604366036184 0  0.2436688538951608 0.1251604366036184 0  0.2310715278119279 0.1264414594589861 0  0.2186684334676599 0.1289903601417245 0  0.2065868433943974 0.132780983481615 0  0.1949507310552957 0.1377744325536573 0  0.1838794987091297 0.1439194678131561 0  0.1734867521815422 0.1511530328827877 0  0.1638791351155391 0.15940090159636 0  0.1551552346634011 0.1685784396597222 0  0.1474045698490904 0.178591473113151 0  0.1407066729819272 0.1893372546836149 0  0.1351302735474711 0.2007055181108352 0  0.1307325929499939 0.2125796096283302 0  0.1275587573434382 0.2248376849889175 0  0.1256413345760131 0.237353959751571 0  0.125 0.25 0  0.1256413345760131 0.2626460402484291 0  0.1275587573434382 0.2751623150110825 0  0.1307325929499939 0.2874203903716698 0  0.1351302735474712 0.2992944818891649 0  0.1407066729819272 0.3106627453163852 0  0.1474045698490904 0.3214085268868491 0  0.1551552346634011 0.3314215603402778 0  0.1638791351155392 0.34059909840364 0  0.1734867521815422 0.3488469671172124 0  0.1838794987091297 0.3560805321868439 0  0.1949507310552957 0.3622255674463427 0  0.2065868433943975 0.3672190165183851 0  0.21866843346766 0.3710096398582755 0  0.2310715278119279 0.3735585405410139 0  0.2436688538951609 0.3748395633963816 0  0.2563311461048391 0.3748395633963816 0  0.2689284721880721 0.3735585405410139 0  0.28133156653234 0.3710096398582755 0  0.2934131566056025 0.3672190165183851 0  0.3050492689447043 0.3622255674463427 0  0.3161205012908703 0.3560805321868439 0  0.3265132478184579 0.3488469671172123 0  0.3361208648844608 0.34059909840364 0  0.3448447653365989 0.3314215603402778 0  0.3525954301509096 0.3214085268868491 0  0.3592933270180728 0.3106627453163852 0  0.3648697264525288 0.2992944818891648 0  0.3692674070500061 0.2874203903716697 0  0.3724412426565618 0.2751623150110825 0  0.3693201760252164 0.5127552182776839 0  0.37 0.5 0  0.3693201760252164 0.4872447817223161 0  0.3672884067781439 0.4746340851644449 0  0.3639277130162057 0.4623107945573661 0  0.3592761727425896 0.4504145377077946 0  0.3533864897672567 0.4390801039593391 0  0.3463253965517156 0.4284359169753799 0  0.3381728981035681 0.4186025796476461 0  0.3290213654878046 0.4096915076172633 0  0.3189744892257289 0.4018036668910198 0  0.308146104439918 0.3950284298561646 0  0.2966589010567984 0.3894425626555504 0  0.2846430336807546 0.3851093553965594 0  0.2722346468904537 0.3820779050488975 0  0.2595743326663699 0.38038255915631 0  0.246805537427467 0.3800425266651857 0  0.2340729367259533 0.3810616602795192 0  0.2215207960154662 0.3834284128082348 0  0.2092913360658363 0.387115967999476 0  0.1975231215449373 0.3920825443794537 0  0.1863494910256309 0.3982718686532395 0  0.175897046206457 0.4056138133036829 0  0.1662842174638018 0.4140251911642022 0  0.1576199219884112 0.4234106979626216 0  0.1500023297100982 0.4336639921566569 0  0.1435177509932114 0.4446688998260809 0  0.1382396587057194 0.4563007309696613 0  0.1342278557422581 0.4684276922926975 0  0.1315277974334387 0.4809123804777114 0  0.1301700765187886 0.4936133390189386 0  0.1301700765187886 0.5063866609810614 0  0.1315277974334387 0.5190876195222887 0  0.1342278557422581 0.5315723077073026 0  0.1382396587057194 0.5436992690303386 0  0.1435177509932114 0.5553311001739191 0  0.1500023297100982 0.5663360078433433 0  0.1576199219884113 0.5765893020373785 0  0.1662842174638018 0.5859748088357979 0  0.175897046206457 0.5943861866963172 0  0.1863494910256309 0.6017281313467605 0  0.1975231215449374 0.6079174556205463 0  0.2092913360658364 0.612884032000524 0  0.2215207960154662 0.6165715871917652 0  0.2340729367259534 0.6189383397204808 0  0.246805537427467 0.6199574733348143 0  0.25957433266637 0.61961744084369 0  0.2722346468904537 0.6179220949511025 0  0.2846430336807546 0.6148906446034407 0  0.2966589010567985 0.6105574373444496 0  0.308146104439918 0.6049715701438354 0  0.3189744892257288 0.5981963331089802 0  0.3290213654878046 0.5903084923827366 0  0.3381728981035681 0.581397420352354 0  0.3463253965517156 0.5715640830246201 0  0.3533864897672567 0.5609198960406608 0  0.3592761727425896 0.5495854622922054 0  0.3639277130162057 0.5376892054426339 0  0.367288406778144 0.5253659148355549 0  0.3643020278915642 0.7626509454143191 0  0.365 0.75 0  0.3643020278915642 0.7373490545856809 0  0.3622165840021551 0.7248516745112668 0  0.358768982795573 0.7126595610414613 0  0.3540010734802214 0.7009207099179136 0  0.3479707320164077 0.6897776148913941 0  0.3407511585805852 0.6793655380406882 0  0.3324299890143719 0.6698108678741905 0  0.3231082310441463 0.661229585144623 0  0.312899038184079 0.6537258549998092 0  0.3019263362057523 0.6473907625588847 0  0.2903233188471667 0.6423012072623386 0  0.2782308310211918 0.6385189694169769 0  0.2657956591491169 0.6360899602666871 0  0.2531687493723386 0.6350436646921306 0  0.2405033752706818 0.635392783304233 0  0.22795327732877 0.637133078275972 0  0.2156707967348051 0.6402434247838567 0  0.2038050261649085 0.6446860674346684 0  0.1924999999999999 0.6504070785647895 0  0.1818929459435272 0.6573370128489875 0  0.1721126192630398 0.6653917502725899 0  0.1632777398756569 0.6744735172345105 0  0.1554955512490968 0.6844720733863194 0  0.1488605186112538 0.6952660498007366 0  0.1434531822702978 0.706724422225999 0  0.1393391799644362 0.7187081015427865 0  0.1365684501086869 0.7310716221177157 0  0.1351746256101686 0.7436649075590754 0  0.1351746256101686 0.7563350924409246 0  0.1365684501086869 0.7689283778822844 0  0.1393391799644362 0.7812918984572135 0  0.1434531822702978 0.793275577774001 0  0.1488605186112538 0.8047339501992635 0  0.1554955512490968 0.8155279266136807 0  0.1632777398756569 0.8255264827654895 0  0.1721126192630398 0.8346082497274101 0  0.1818929459435273 0.8426629871510125 0  0.1925 0.8495929214352105 0  0.2038050261649085 0.8553139325653316 0  0.2156707967348051 0.8597565752161433 0  0.2279532773287701 0.862866921724028 0  0.2405033752706818 0.864607216695767 0  0.2531687493723386 0.8649563353078694 0  0.2657956591491169 0.8639100397333128 0  0.2782308310211919 0.8614810305830229 0  0.2903233188471668 0.8576987927376613 0  0.3019263362057523 0.8526092374411153 0  0.3128990381840791 0.8462741450001908 0  0.3231082310441463 0.838770414855377 0  0.3324299890143719 0.8301891321258095 0  0.3407511585805852 0.8206344619593118 0  0.3479707320164076 0.810222385108606 0  0.3540010734802214 0.7990792900820864 0  0.358768982795573 0.7873404389585386 0  0.3622165840021551 0.7751483254887332 0  0.5991790013823246 0.2627877161684506 0  0.6 0.25 0  0.5991790013823246 0.2372122838315493 0  0.596729486303903 0.2246345416090492 0  0.5926916757346021 0.2124732995120625 0  0.5871318704123389 0.2009282447996062 0  0.5801413621867956 0.1901889469508783 0  0.5718349350097727 0.1804317449396513 0  0.5623489801858733 0.171816851753197 0  0.5518392568310524 0.1644857236994653 0  0.5404783343122394 0.1585587376984187 0  0.5284527586631032 0.1541332146963339 0  0.5159599895033379 0.151281821658555 0  0.5032051577571655 0.1500513783799312 0  0.4903976974092318 0.1504620887050802 0  0.4777479066043686 0.1525072087818176 0  0.4654634945578693 0.1561531577950239 0  0.4537461709759165 0.1613400693627 0  0.442788333987783 0.1679827745403044 0  0.4327699109738683 0.1759722002924685 0  0.4238554041630865 0.1851771604692212 0  0.4161911895108159 0.1954465098789452 0  0.4099031132097581 0.2066116260882442 0  0.4050944252989331 0.2184891781976379 0  0.4018440843008935 0.2308841371298628 0  0.4002054607249664 0.2435929780019287 0  0.4002054607249664 0.2564070219980713 0  0.4018440843008935 0.2691158628701373 0  0.4050944252989331 0.2815108218023621 0  0.4099031132097581 0.2933883739117558 0  0.4161911895108159 0.3045534901210549 0  0.4238554041630866 0.3148228395307789 0  0.4327699109738683 0.3240277997075315 0  0.442788333987783 0.3320172254596956 0  0.4537461709759165 0.3386599306373 0  0.4654634945578692 0.3438468422049761 0  0.4777479066043686 0.3474927912181824 0  0.4903976974092318 0.3495379112949198 0  0.5032051577571656 0.3499486216200688 0  0.515959989503338 0.348718178341445 0  0.5284527586631033 0.345866785303666 0  0.5404783343122394 0.3414412623015812 0  0.5518392568310525 0.3355142763005346 0  0.5623489801858733 0.328183148246803 0  0.5718349350097728 0.3195682550603486 0  0.5801413621867957 0.3098110530491216 0  0.5871318704123389 0.2990717552003938 0  0.5926916757346021 0.2875267004879374 0  0.596729486303903 0.2753654583909507 0  0.5941523613747042 0.512662260760509 0  0.595 0.5 0  0.5941523613747041 0.487337739239491 0  0.5916245716301658 0.4749014368222278 0  0.5874617392342607 0.462913018859468 0  0.5817381500297132 0.4515864189537678 0  0.5745559416014728 0.4411237605487768 0  0.5660432806290909 0.4317117500315967 0  0.5563520757492887 0.4235183449528815 0  0.5456552667427349 0.4166897568203662 0  0.5341437384195636 0.4113478419510477 0  0.5220229142754153 0.4075879269423215 0  0.5095090907042894 0.4054771075665921 0  0.4968255771842709 0.4050530514456258 0  0.4841987113146026 0.4063233258709473 0  0.4718538198158648 0.4092652627653433 0  0.4600111975693082 0.4138263631952
[...]
<PointData  Scalars="f_sigma_Mis"> 
<DataArray  type="Float64"  Name="f_sigma_Mis"  format="ascii">6.8334075101943920e-02  7.7247864657261245e-02  7.0800137892981521e-02  6.7252246507168906e-02  1.6221867424023687e-01  1.6274853146890639e-01  1.6222843822004959e-01  1.4289799400480627e-01  1.2463086192518776e-01  1.0437895470368597e-01  8.6709622758947461e-02  7.2694829840336372e-02  5.3639128661179092e-02  3.8131913869672435e-02  2.6612591652045006e-02  1.7024813360913622e-02  7.1918142646778989e-03  1.8033622942188773e-03  6.4278861117760041e-03  1.1312778633815197e-02  1.5492977913718410e-02  1.7524651256621674e-02  1.9897231769484779e-02  2.0063652873360840e-02  1.7619163412212261e-02  1.5165721372963356e-02  5.6246312145062935e-03  6.6513348588104221e-03  1.8268165612877758e-02  3.3643309994467505e-02  5.2490676002682368e-02  7.1416401891115394e-02  9.2793004877427643e-02  1.0418610653230613e-01  1.2233890614397200e-01  1.2642274661726441e-01  1.2911130787586103e-01  1.2359183858437421e-01  1.1229376941473880e-01  9.4871314299192849e-02  8.0927649703410293e-02  5.9457350410160599e-02  3.6351464851563813e-02  1.6076728630168118e-02  2.5709789928574029e-03  6.1470262809290117e-03  9.0685313259774789e-03  9.1879704761338027e-03  8.2977948808586957e-03  1.5922832385356789e-02  2.4324081148870025e-02  3.6995286544267342e-02  4.3709718597858126e-02  3.5199730673892003e-02  2.5637392520573066e-02  1.4297117670927000e-02  1.2661075335538771e-02  9.6435088766639327e-03  9.5928018931206252e-04  1.2015563551936176e-02  3.6282102722179743e-02  6.0494965673450425e-02  8.3399688303910577e-02  1.0304573222808983e-01  1.2548117253995975e-01  1.4390669383582017e-01  1.1771673094566971e-01  1.2049917178294155e-01  1.1914884329825214e-01  1.1340114066997302e-01  9.8668380014084733e-02  8.0935286289171279e-02  6.3750111326475928e-02  4.4588512535278867e-02  2.4904838087234631e-02  5.6713547521678558e-03  7.1674479439155277e-03  7.7508212067296835e-03  7.6000617681695973e-03  1.1383838131141228e-02  1.9029983774596613e-02  3.7445463721823030e-02  4.7399713546643546e-02  4.0097852148423437e-02  2.3977696090461485e-02  1.4785872887531503e-02  1.1455548051117889e-02  1.2062369242662832e-02  5.8611807905804081e-03  1.5555010327936119e-03  1.2462062773325455e-02  3.3226488736744414e-02  5.2410401255612506e-02  7.1453029391016096e-02  8.8635905675343338e-02  1.0123406285605327e-01  1.1204527062274539e-01  1.0609725746855944e-01  1.0102355709511213e-01  9.7167449995068877e-02  7.7421374729999382e-02  6.0311655170802184e-02  4.2345443024707573e-02  2.3785484780952052e-02  8.2760081582548255e-03  2.7582410757233614e-03  6.3380746529738078e-03  3.8365390445310619e-03  1.6161496420364629e-03  2.3136074198943936e-03  7.8344337363671791e-03  1.6440681204185612e-02  2.3275204796168576e-02  2.2891723136097896e-02  2.2364260632776970e-02  1.7377277535098743e-02  1.8749597719849669e-02  9.7635366670393887e-03  3.4919160211708956e-03  2.4679563452551342e-02  5.0945013672019132e-02  6.7340527713105974e-02  8.3223483110874130e-02  1.0288162781802702e-01  1.0860759464122885e-01  9.8445333772888693e-02  1.0042382085052592e-01  9.7324899316805047e-02  9.2458543358534442e-02  8.4047139933975126e-02  6.9032617070330232e-02  5.8665656457295691e-02  3.6711235274725869e-02  1.8050822270119726e-02  4.3914066136518399e-03  6.1650540018662043e-04  2.5469929636338547e-03  1.2300353631737894e-03  -1.5128872876963878e-04  6.9167278955286002e-03  1.4322763789782096e-02  2.2978189779448252e-02  2.4198732768988582e-02  2.0311948241185374e-02  1.6062684903641832e-02  1.6844388798016644e-02  1.0300162590485908e-02  4.4826035574252951e-03  1.1646991859826041e-02  3.1604757879612658e-02  5.0250302460298955e-02  7.1159292948962075e-02  9.2010823844758477e-02  1.0758736682192302e-01  1.1810577241985702e-01  1.2760209386770852e-01  1.2571030889924106e-01  1.0719460442400117e-01  9.4894876164071579e-02  7.4899123743367796e-02  6.2429086124918133e-02  4.1302556352325250e-02  2.0288291843567861e-02  1.3473411111590790e-02  1.4188430155421270e-03  9.1639336709534152e-03  1.6023862741408372e-02  1.9928326813915306e-02  1.7800902644040523e-02  1.4964189677791732e-02  1.3014241336817920e-02  7.6977591296435678e-03  2.9462265738210966e-04  7.0765299044486252e-03  1.7408549289330010e-02  2.6870772237195667e-02  4.1737965910087806e-02  5.3104390366829395e-02  6.3633174144770932e-02  7.8319276522978973e-02  8.7690803960069050e-02  9.5764377392308100e-02  1.3204945263999365e-01  1.2752282277739049e-01  1.2765249238523763e-01  1.2108100682488591e-01  1.1300040354064494e-01  9.3579414921430834e-02  7.4703644952350864e-02  5.4759582424926685e-02  3.5563244240944376e-02  2.1846334556351404e-02  6.1472770609705884e-03  3.7174959679327772e-03  1.2979241725486460e-02  1.6524292720585611e-02  1.5753083148069336e-02  7.8973121465695240e-03  9.6906797605456974e-04  8.3176189158103934e-03  2.2139947728980734e-02  3.4138025821860138e-02  5.0937472883932917e-02  7.4760718018894404e-02  1.0279124206574791e-01  1.2923028402816547e-01  1.6953870849932365e-01  1.8564442944966222e-01  1.8666033968977402e-01  1.5850740298315943e-01  1.2412846144161030e-01  9.9688415043377748e-02  6.8816351887115601e-02  4.3453051199837410e-02  2.2497182790675179e-02  6.0115744357863449e-03  4.6206023834507457e-03  8.9231364896066069e-03  7.9084125092268205e-03  5.6165078479023254e-03  4.2370236575044540e-03  5.0964433812459766e-03  7.3751351236074503e-03  9.2042727012868197e-03  2.3873524274096603e-03  1.7682724621604362e-02  3.7005762615407306e-02  6.4180079467674928e-02  9.7311402328262117e-02  1.2161695179680809e-01  1.2583226920527790e-01  1.1935016625755596e-01  1.2069456148248167e-01  1.1680725442345337e-01  1.0663608348204262e-01  9.7222175159303634e-02  7.6294422280195326e-02  4.9358510775516354e-02  2.2087595147097239e-02  3.8597874205136429e-03  8.8984343044518632e-03  1.3122644969821504e-02  1.1548377133483398e-02  9.2514853169474980e-03  7.8774083705446807e-03  8.3602560459176429e-03  9.2023052005516647e-03  7.0265246811068950e-03  2.0226354130282614e-03  1.6259986654661045e-02  3.6627218596864637e-02  6.1595534488475982e-02  8.1874830520588804e-02  1.0799406426437845e-01  1.2505767401619022e-01  1.4264711546959752e-01  1.3760616955704102e-01  1.2460500725830001e-01  1.0305241489563079e-01  8.1282528520795982e-02  5.9167494292246069e-02  3.7646721707471041e-02  2.0332031694367252e-02  2.9997962198955183e-03  1.0141636241088863e-02  1.3895639346146316e-02  1.1726914036839505e-02  1.0320520992548685e-02  1.0479940348133994e-02  1.0390012555755635e-02  7.3562102335731445e-03  -2.9477863812744893e-04  9.6031002481771661e-03  3.3267310038809242e-02  5.5982769595447082e-02  7.9815986331557745e-02  9.6272865002637362e-02  1.0676865697068839e-01  1.0343158944841414e-01  1.0947170093440903e-01  1.0646544114624513e-01  1.0018816494728859e-01  8.1161232103451650e-02  6.1673927735219174e-02  4.0767909801042793e-02  1.5816894555625311e-02  2.7045177978225120e-04  1.0478742503978298e-02  1.0957253545524188e-02  7.4967776227838918e-03  4.7120240167555063e-03  3.8479563144907464e-03  3.2424742351934962e-03  1.4469553278656428e-03  7.6151481305466338e-03  2.3476922741384219e-02  4.4684379777793992e-02  6.9102234988501571e-02  8.7180334296571321e-02  1.0730617668483276e-01  1.1231532874148069e-01  1.1657302986513744e-01  1.0950930186251724e-01  9.6256270615064754e-02  7.9918547918420485e-02  6.6013074049878329e-02  4.5088326463073432e-02  3.1560126344630082e-02  1.5881737143784019e-02  4.3680523315007252e-03  3.6224021113800196e-03  1.0705906474294745e-02  1.2006821501229038e-02  9.4978842844850361e-03  6.1661365943037807e-03  6.2875918922486512e-03  2.3037973649879501e-02  3.7945400915315695e-02  5.6271963213695465e-02  7.9998546550488658e-02  9.6984981177508492e-02  9.8943872005145872e-02  1.3771274985203216e-01  1.4749099122811049e-01  1.4331965496756330e-01  1.3239897099928941e-01  9.8497333088016586e-02  6.5263942742412484e-02  3.5307209840128348e-02  4.4336657963878747e-03  1.4521942297224123e-02  3.1206197818041199e-02  4.0780992979293225e-02  2.5125369291452624e-02  1.0722821897107181e-02  1.5592212167816723e-02  4.0386156419731915e-02  6.4759847957825120e-02  9.7484613554207608e-02  1.1346311865689387e-01  1.3684657938139888e-01  1.4027486154234031e-01  1.4286735072880286e-01  1.3347193540539781e-01  1.1176013424363136e-01  8.7455907951238296e-02  5.0156840923100209e-02  2.2732448728310178e-02  2.8417713189829250e-03  1.4293847614230621e-02  2.0210506271243222e-02  2.1465977026190807e-02  2.0115029419682032e-02  1.5751688605478233e-02  5.3308516107848708e-03  2.3049581158561018e-02  5.1858602101861738e-02  8.2131495329308649e-02  1.1830043581839010e-01  1.3270427984255018e-01  1.3500874678261965e-01  1.2436463537413882e-01  1.0410713261904739e-01  7.4917600151915203e-02  4.9264488001011880e-02  1.9249311363794215e-02  4.0514941393612024e-03  1.4280104972582244e-02  1.8807876396848083e-02  1.9501085462761518e-02  1.5421377367108927e-02  3.7478666713735413e-03  1.1830448917024979e-02  3.9242602161702111e-02  7.5352501776681000e-02  9.7680557880482480e-02  1.2839876660896837e-01  1.2986660467211406e-01  1.3111419236031957e-01  1.2356700552499325e-01  1.0159685553636952e-01  7.5695935590762042e-02  4.6098418317932717e-02  1.7127514948814770e-02  3.6448395648494732e-03  1.7973705752343239e-02  2.1909558095936074e-02  2.0201081083583726e-02  1.1714255928322133e-02  4.1597355190382476e-03  2.1963685216300613e-02  4.4871987896980318e-02  7.8115096115159932e-02  1.2036195737619049e-01  1.2261522959165840e-01  1.4048427527480528e-01  1.2095865905346119e-01  9.8693749040434556e-02  6.9343788081507943e-02  3.0567330215191989e-02  4.4493884299991069e-03  9.2745951655375733e-03  2.0384485262018956e-02  2.1342891710355149e-02  1.5405448395537903e-02  5.3307089139947262e-03  1.6310705462014581e-02  4.2540188668024545e-02  8.0389333167279531e-02  1.0495166962625864e-01  1.1876553453233318e-01  1.2438897977646286e-01  1.1406584359138738e-01  9.9938743886539685e-02  8.2208200016565883e-02  5.4401199404449110e-02  2.7622278221211227e-02  5.7386107320396814e-03  1.5344551903192017e-02  2.7520197946991631e-02  2.5564911659710053e-02  1.6746247527778726e-02  9.1931926722274432e-03  4.2503829057291456e-02  7.6491280367387005e-02  1.0180393078278431e-01  4.6653073990399911e-02  4.1067958128355439e-02  5.5868196595208225e-02  1.8809946262519719e-02  1.9726985347283021e-02  5.7586254654300541e-02  4.5463630584941336e-02  4.6476020966658531e-02  3.2856581953963029e-02  9.0482924441637573e-03  1.1964060151524798e-02  3.4505964639743252e-02  5.4931345722284766e-02  5.1400286418437767e-02  5.0412998523696920e-02  6.3234484580829753e-02  6.4238717790749342e-02  5.0929387349906839e-02  6.5161124959043873e-02  6.4047495185572678e-02  3.3070350685464642e-02  3.4447688463900922e-02  6.9043418202595477e-02  6.8515046988945380e-02  7.0286293025583133e-02  6.1834382849752789e-02  1.9946871958159512e-02  3.5933576896001213e-02  3.7083098143119886e-02  1.9560852060814385e-02  6.3035299132408226e-02  5.8049434873220472e-02  3.9566601582883977e-02  6.5307139466222838e-02  5.8880934954982096e-02  4.4080181088493937e-02  6.1791782124721355e-02  4.0492911051826647e-02  2.6891222922887939e-02  2.1296700470422918e-02  5.9792464124182036e-02  6.6071974977581174e-02  2.8509752950082724e-02  6.2404461708123034e-02  3.3858480861648665e-02  2.7430130419739226e-02  6.4497334226834221e-02  6.3252537008487653e-02  4.9744752583625026e-02  5.9246616477594695e-02  5.1878146230802155e-02  5.0354652239737958e-02  5.9142675717724871e-02  6.0196556013323646e-02  2.1205310674279297e-02  6.0484007059654600e-02  2.2069608570428435e-02  6.9292503602801814e-02  6.4984569585662913e-02  6.2777701716821871e-02  5.3880033052024670e-02  6.2916586473680966e-02  1.2254001480581648e-02  1.6112797559864465e-02  5.8442400934865635e-02  1.3718228806348855e-02  6.2212105193080937e-02  3.1251485919975217e-02  6.0040340044915569e-02  4.6889296827116574e-02  6.3552190637505154e-02  6.2851493733640601e-02  2.7214809182604358e-02  6.0996794421304540e-02  6.3928749503740237e-02  5.3150333400917273e-02  6.6289110556631101e-02  5.7339816561033805e-02  5.1569611121543915e-02  6.4717440767188508e-02  3.4891725193083201e-02  1.9075196485785356e-02  1.9019083194670199e-02  9.1296847682506583e-03  6.3925742109548087e-02  3.4089697225707177e-02  3.4024331895170151e-02  5.0009577790998377e-02  6.7457424860666165e-02  4.3716627706634578e-02  1.9536900854415638e-02  5.6845761263562923e-02  7.4921369737138144e-02  6.0810634831308538e-02  6.2641113979368182e-02  1.3580479110378105e-02  3.7222869648253644e-02  1.2750939262728658e-02  6.5864256480231698e-02  2.6121548615528789e-02  6.1931153149025484e-03  1.9873159659454898e-02  5.8045463878506565e-02  6.1090875752933094e-02  1.9633049344857271e-02  4.1084288462072266e-02  2.5948640188367404e-02  2.6522991013017791e-02  3.9816903924680416e-02  5.5934938502699198e-02  6.6147521371889340e-02  5.8786139908777145e-02  6.1735120431308028e-02  5.1517798822687158e-02  4.7496128277754145e-02  6.2410486649021962e-02  6.3242896590401859e-02  6.0052414446466355e-02  6.2121827085639993e-02  6.5840228259586103e-02  5.1710999263491243e-02  5.9841581407086647e-02  6.3551675606856262e-02  4.4511006268419570e-02  6.5778546654484807e-02  5.0662345293347046e-02  6.2587782311956941e-02  2.2489316152785044e-02  6.3580620121672121e-02  6.4774104252642795e-02  2.8850799261760460e-02  6.4693261660054416e-02  3.2122044332159205e-02  3.9295348313105737e-02  4.6846750447437684e-02  3.5544469333657874e-02  6.7928852198667353e-03  6.7529465965083163e-02  5.4563568839186657e-02  6.3266130105348956e-02  6.4680129656796453e-02  3.7954157276508381e-02  4.1890641374416317e-02  4.1715245744368079e-02  6.5263378653286602e-02  4.6818865659431545e-02  3.6852900301539565e-02  6.9670871284429822e-02  8.6410687782782544e-03  6.5692428943804768e-02  3.3858623949204664e-02  5.4992907326157588e-02  5.7935447163786846e-02  6.9943043520009393e-02  3.3139867127819779e-02  6.0281984015786910e-02  5.8751929202901981e-02  7.3134095002208091e-02  5.8931510449195264e-02  6.5410885483446327e-02  4.7010080199281885e-02  3.5723172600158018e-02  3.4430313022637653e-02  1.7975841145903389e-02  6.2710091658405478e-02  5.7349827229429481e-02  5.8533145461956371e-02  5.9198903491007038e-02  6.3619107168545061e-02  3.7706552988344098e-02  3.5672715169527948e-02  7.0975147849768161e-02  5.6448392395962381e-02  2.1507864258006892e-02  1.9211302169524731e-02  3.4077673363727884e-02  2.0125734064214879e-02  2.3422044827551988e-02  2.0909051300896642e-02  3.1831961385013284e-02  6.4239401472304850e-02  6.7367440185795727e-02  6.0931443853460866e-02  1.7021286363948999e-02  6.6209250448858795e-02  3.7183831441488298e-02  3.8998806506884864e-02  1.2546280621506175e-02  7.0072905576715021e-03  1.9801751887286390e-02  2.0314427476545206e-02  5.0257724500478211e-02  5.2510052495888845e-02  6.0853688976535182e-02  4.2785133983327353e-02  2.9828941568957636e-02  3.0559656190599572e-02  6.0175556773850551e-02  5.2664587972118031e-02  3.1987984702454057e-02  4.9088338293115902e-02  2.2079838445158383e-02  6.1019504316684396e-02  6.1355764771318301e-02  6.3007241953792481e-02  5.6501847055228926e-02  5.9345383549025771e-02  5.7232322230267002e-02  3.9615219596787640e-02  7.8386965729542735e-02  7.8330266837808110e-02  9.2635747148063202e-03  1.0790713343133510e-02  5.6811717487334316e-02  5.5211268975178703e-02  6.2639791740568398e-02  6.4384794468210438e-02  6.4412064938565647e-02  6.2160255202792711e-02  5.4752064896962709e-02  4.5804943835000209e-02  1.7760270051907626e-02  2.9064475755620583e-02  1.5584568754318880e-02  2.6297166451673546e-02  2.8665304336794001e-02  1.3160603927687441e-02  5.3727206845979904e-02  8.2449936574954405e-02  7.1585311093978019e-02  5.5973558620508769e-02  6.9117250358830429e-02  4.4842713059321422e-02  5.8850563526003506e-02  6.6203121624066344e-02  2.7346179165030980e-02  2.0328415032282499e-02  2.4931254331723756e-02  6.6850997551038280e-02  1.1051022608111834e-02  4.3452461681974287e-02  8.9348094915453799e-02  6.0488629010750250e-02  6.9813307294744567e-02  6.2747979227911407e-02  6.3467720043989512e-02  2.0540852058471448e-02  5.3133893093714503e-02  3.2575093377425160e-02  3.6163701188592620e-02  6.1962984763114917e-02  5.6723609022327350e-02  5.1148092193603549e-02  6.0863066758961006e-02  5.6127927448383186e-02  6.3947133843047052e-02  3.3705377641809649e-02  1.8221677976604712e-02  1.7317324910239979e-02  4.9237646699683717e-02  6.2274322347095519e-02  4.6635317149215968e-02  4.1655691385079447e-03  7.1502509916660378e-02  1.6562585005267926e-02  6.0567085142674601e-02  6.4306393914800239e-02  6.1838757300009803e-02  6.9473398037934411e-02  2.3134971007304307e-02  3.3286950182234459e-02  1.5575773675020917e-02  7.9339366529494661e-03  9.7433873406875052e-03  4.8057229247328283e-02  4.8021249659424732e-02  5.8244452055742080e-02  6.6430396852996079e-02  2.8985273655952701e-02  6.1079764767669492e-02  5.8200670217043476e-02  6.1802291465178801e-02  5.8724867326939628e-02  5.6492477234517571e-02  3.1267758163882324e-02  6.2273661060081566e-02  4.7682954039753797e-02  5.4315080715678997e-02  4.5418457657225159e-02  6.5612073857579625e-02  6.3465801964120966e-02  6.0953865036604847e-02  3.5990218651242453e-02  4.6710907912374582e-02  1.8417785443879352e-02  7.6910639750336962e-02  6.8749971486491673e-02  5.7421084381137050e-02  6.2346917643728600e-02  1.6155622652108674e-02  5.9307979318574539e-02  2.4797784907870723e-02  6.4679535165478974e-02  2.8615694135574899e-02  6.4990187711485570e-02  3.7430142397929855e-02  1.9703657085562463e-02  6.2052421477988610e-02  6.2873999723466245e-02  2.0034020565416037e-02  5.6762881477676351e-02  7.0897855467094165e-02  6.1524793952458606e-02  5.7485455266574059e-02  3.4117593587157054e-02  1.6591596931208118e-02  6.1994442796291446e-02  2.1627692196878809e-02  6.2853507411723603e-02  6.0637150024512032e-02  5.8479573839192105e-02  6.3316943694559757e-02  6.2821278751003157e-02  6.2739024800654505e-02  8.5730936700834266e-03  6.5856067233361515e-02  2.0894891965778234e-02  7.6302827532683290e-02  6.0147339489166306e-02  4.6207852359699778e-02  6.1518002144431420e-02  9.4408274554727167e-02  3.4277730907751137e-02  6.4300592681146268e-02  6.8376614270521358e-02  2.1392787021493657e-02  1.1006486961034546e-02  4.4967077207407093e-03  3.4785186050922977e-02  7.5534987846508578e-03  5.7976982868462701e-02  4.6357714352690531e-02  5.6227775522772451e-02  6.4431722538184313e-02  5.7552122028934768e-02  3.3665923600181454e-02  6.0764121536154861e-02  1.1036125562243281e-02  6.5238849814594810e-02  2.9733830167531707e-02  2.9517072652483569e-02  2.7746576520856391e-02  5.8457794085362502e-02  5.5816014688914164e-03  7.6062897715661283e-03  2.6057743008220998e-02  6.3562777329623829e-02  1.9469178193867421e-03  6.1209779882203864e-02  3.0753514041857822e-02  2.5469626380062754e-02  6.0321304393399396e-02  7.3083329388411458e-02  6.0937924614979856e-02  3.0754218832039705e-03  1.9641354329809155e-02  1.6779957914140720e-02  5.9062064889121600e-02  3.6425841635522267e-02  3.3217050990990760e-02  2.2682749848957861e-02  5.4571258186751473e-02  6.0186864062985047e-02  3.3238467408517013e-02  5.1787779280911307e-02  4.9913478049652536e-02  7.1312836903989360e-02  4.5935688084775071e-02  5.5360984043476225e-02  3.9244988885017242e-02  6.3651201131582735e-02  6.0835816311550689e-02  5.6989855722001874e-02  6.2988194566210812e-02  2.7578075307915437e-02  4.7924316016911925e-02  6.2237771061850876e-02  1.1476343732600321e-02  1.0875230545023335e-02  6.2741518546916272e-02  6.2186315566680778e-02  6.2395509160850168e-02  1.7918211908036160e-02  5.5319979722749067e-02  4.2915100064571124e-02  3.5852477548579453e-02  7.4726016993762370e-02  6.4893618873771283e-03  6.0567558813338862e-02  6.4560828989705582e-02  5.8474687750590920e-02  3.5394872646606922e-02  3.1572294082594467e-02  6.2