<?xml version="1.0"?>
<VTKFile type="UnstructuredGrid"  version="0.1"  >
<UnstructuredGrid>
<Piece  NumberOfPoints="704" NumberOfCells="1057">
<Points>
<DataArray  type="Float64"  NumberOfComponents="3"  format="ascii">0.8498873289428469 0.9047904758509139 0  0.9246359763451796 0.8889711543153088 0  0.8933143384691524 0.8116699126398919 0  0.8128140703517588 0.7971366550630915 0  0.7823900832858603 0.7726130653266332 0  0.7800982691816073 0.7349246231155779 0  0.8066536172161495 0.6620603015075377 0  0.7531388565576708 0.597352023209433 0  0.7008840712260616 0.6620603015075377 0  0.7274394192606037 0.7349246231155779 0  0.7251476051563507 0.7726130653266332 0  0.6947236180904522 0.7971366550630915 0  0.6142233499730587 0.8116699126398919 0  0.5828759905624511 0.889480913193046 0  0.667125185108225 0.9043183529715726 0  0.7198492462311558 0.8421232780479888 0  0.7374371859296482 0.8307027357523994 0  0.7625628140703518 0.8294290389757718 0  0.7892315709016462 0.8433702916661083 0  0.834124543956432 0.8996404702344393 0  0.02879260768600312 0.3372965951642535 0  0.02670420310754942 0.2977386934673367 0  0.05402010050251256 0.3600344525660521 0  0.05315525599769703 0.2248743718592965 0  0.1407261894079381 0.3768785275607799 0  0 0.159758654741893 0  0.1709074156728507 0.4529867312859177 0  0 0 0  0.08489467910837914 0.4683029806237011 0  1 0 0  0.03102180919110857 0.4046562781545469 0  1 0.1639958044781672 0  0 0.3926260268699817 0  0.9514731872578167 0.2273869346733668 0  0 0.4507231415430188 0  0.9783209225205914 0.2977386934673367 0  0.05276005584438868 0.5163316582914573 0  0.9762325179421376 0.3372965951642535 0  0.0266990474363475 0.5891959798994975 0  0.9510050251256281 0.3600344525660521 0  0.02929830688550029 0.6284859224994637 0  0.8642989362202026 0.3768785275607799 0  0.05653266331658292 0.6514854853587833 0  0.83411770995529 0.4529867312859177 0  0.1408772241103806 0.6677477480155644 0  0.9201304465197615 0.4683029806237011 0  0.1708685103981626 0.7438915930139204 0  0.9702344722159266 0.4080825950951822 0  0.08518273345742164 0.7590991953382424 0  1 0.3926940791295654 0  0.03545873729191691 0.6976553851841202 0  1 0.4546308831099392 0  0 0.6836624059252244 0  0.952265069783752 0.5163316582914573 0  0 1 0  0.9783260781917932 0.5891959798994975 0  1 1 0  0.9757268187426404 0.6284859224994637 0  1 0.6837694034127229 0  0.9484924623115578 0.6514854853587833 0  0.9695663883362239 0.6976553851841202 0  0.8641479015177601 0.6677477480155644 0  0.9198423921707191 0.7590991953382424 0  0.8341566152299781 0.7438915930139204 0  0.3348887466343834 0.3219943012423371 0  0.3578060670363975 0.3220107666422619 0  0.2820163711027849 0.2595040316620366 0  0.4034159489903464 0.3166406594302107 0  0.2550251256281407 0.2471202490268395 0  0.4221716747681056 0.3054357797450777 0  0.221922546596812 0.2582477502550014 0  0.3916664838119591 0.2318519636972408 0  0.164572864321608 0.3235082666862593 0  0.3153266331658292 0.2186962970674252 0  0.09909661382372398 0.3166406594302107 0  0.2912448647503856 0.2066316041980529 0  0.08034088804596466 0.3075731551415126 0  0.2799456560629723 0.1916232227749923 0  0.1108460790021113 0.2318519636972408 0  0.2780461629493044 0.1520100502512563 0  0.1871859296482412 0.2186962970674252 0  0.3048418942176417 0.08165829145728644 0  0.2112676980636848 0.2066316041980529 0  0.2510837786309571 0.01505826856762556 0  0.222566906751098 0.1916232227749923 0  0.1976706685964286 0.08165829145728644 0  0.2244663998647659 0.1520100502512563 0  0.8374013094484538 0.3219943012423371 0  0.8603186298504678 0.3220107666422619 0  0.7845289339168553 0.2595040316620366 0  0.9059285118044168 0.3166406594302107 0  0.757537688442211 0.2471202490268395 0  0.924684237582176 0.3054357797450777 0  0.7244351094108824 0.2582477502550014 0  0.8941790466260294 0.2318519636972408 0  0.6670854271356784 0.3235082666862593 0  0.8178391959798995 0.2186962970674252 0  0.6016091766377943 0.3166406594302107 0  0.7937574275644559 0.2066316041980529 0  0.582853450860035 0.3075731551415126 0  0.7824582188770428 0.1916232227749923 0  0.6133586418161816 0.2318519636972408 0  0.7805587257633748 0.1520100502512563 0  0.6896984924623115 0.2186962970674252 0  0.807354457031712 0.08165829145728644 0  0.7137802608777551 0.2066316041980529 0  0.7535963414450275 0.01505826856762556 0  0.7250794695651683 0.1916232227749923 0  0.700183231410499 0.08165829145728644 0  0.7269789626788362 0.1520100502512563 0  0.5863423287824239 0.4676587824859573 0  0.6081488973035268 0.4673988225131558 0  0.5373032162262845 0.4080825950951822 0  0.6687905978597671 0.4577449728692563 0  0.5087939698492462 0.392792496026011 0  0.673419978486921 0.4509043665080485 0  0.4714907536229617 0.4046562781545469 0  0.6432387522220084 0.3768785275607799 0  0.4176178837056913 0.4683029806237011 0  0.5565326633165829 0.3600344525660521 0  0.3316051471412197 0.4529867312859177 0  0.5313051705000734 0.3372965951642535 0  0.3617863734061323 0.3768785275607799 0  0.5292167659216197 0.2977386934673367 0  0.4484924623115578 0.3600344525660521 0  0.5556678188117674 0.2248743718592965 0  0.4737199551280672 0.3372965951642535 0  0.5020165224130223 0.1607553879489881 0  0.475808359706521 0.2977386934673367 0  0.4493573068163733 0.2248743718592965 0  0.335356792849435 0.6133148708029735 0  0.3525955136614332 0.6133982986597526 0  0.2876120725697918 0.5543696237638949 0  0.4221320680928043 0.5973745059425857 0  0.257537688442211 0.5382411074833506 0  0.3920670614067759 0.5223357505614841 0  0.2374371859296482 0.5392414126786217 0  0.3077889447236181 0.5064001222020004 0  0.2162403918908948 0.5531133423568596 0  0.2825419539612979 0.4866265328655228 0  0.1662713538073073 0.6138139591425888 0  0.2779388779275401 0.4434673366834171 0  0.08038049472126599 0.5983181708464058 0  0.3042461106979664 0.3706030150753769 0  0.1104455014072945 0.5223357505614841 0  0.2504529400968309 0.3064513631123374 0  0.1947236180904523 0.5064001222020004 0  0.198266452116104 0.3706030150753769 0  0.2199706088527724 0.4866265328655228 0  0.2245736848865303 0.4434673366834171 0  0.3316119811423617 0.8996404702344393 0  0.3473747661287765 0.9047904758509139 0  0.2867190080875758 0.8433702916661083 0  0.4221234135311093 0.8889711543153088 0  0.2600502512562814 0.8294290389757718 0  0.390801775655082 0.8116699126398919 0  0.2349246231155779 0.8307027357523994 0  0.3103015075376884 0.7971366550630915 0  0.2173366834170854 0.8421232780479888 0  0.27987752047179 0.7726130653266332 0  0.1646126222941546 0.9043183529715726 0  0.277585706367537 0.7349246231155779 0  0.08036342774838076 0.889480913193046 0  0.3041410544020789 0.6620603015075377 0  0.1117107871589884 0.8116699126398919 0  0.2506262937436003 0.597352023209433 0  0.1922110552763819 0.7971366550630915 0  0.1983715084119913 0.6620603015075377 0  0.2226350423422803 0.7726130653266332 0  0.2249268564465333 0.7349246231155779 0  0.5825307885768802 0.7549846639808243 0  0.5990337454652083 0.7592201918734681 0  0.5379713001059873 0.6976553851841202 0  0.673381073212233 0.7432924681408357 0  0.5087939698492462 0.6838507564483277 0  0.643389786924451 0.6677477480155644 0  0.4861809045226131 0.6855301699746469 0  0.5590452261306532 0.6514854853587833 0  0.4670538255221535 0.6976553851841202 0  0.5318108696995707 0.6284859224994637 0  0.4173298293566488 0.7590991953382424 0  0.529211610250418 0.5891959798994975 0  0.3316440524159078 0.7438915930139204 0  0.555272618658459 0.5163316582914573 0  0.3616353387036897 0.6677477480155644 0  0.5020131501330801 0.4517841395827091 0  0.4459798994974875 0.6514854853587833 0  0.4497525069696817 0.5163316582914573 0  0.47321425592857 0.6284859224994637 0  0.4758135153777228 0.5891959798994975 0  0.8378693556635053 0.6133148708029735 0  0.8551080764755036 0.6133982986597526 0  0.7901246353838622 0.5543696237638949 0  0.9246446309068748 0.5973745059425857 0  0.7600502512562815 0.5382411074833506 0  0.8945796242208461 0.5223357505614841 0  0.7399497487437185 0.5392414126786217 0  0.8103015075376885 0.5064001222020004 0  0.7187529547049651 0.5531133423568596 0  0.7850545167753682 0.4866265328655228 0  0.6687839166213776 0.6138139591425888 0  0.7804514407416105 0.4434673366834171 0  0.5828930575353364 0.5983181708464058 0  0.8067586735120368 0.3706030150753769 0  0.6129580642213648 0.5223357505614841 0  0.7529655029109014 0.3064513631123374 0  0.6972361809045227 0.5064001222020004 0  0.7007790149301742 0.3706030150753769 0  0.7224831716668428 0.4866265328655228 0  0.7270862477006005 0.4434673366834171 0  0.8872616526440132 0.8968808150831113 0  0.9089751574071661 0.8503205334776004 0  0.8530642044104556 0.8044032838514917 0  0.7933759431988784 0.6984924623115578 0  0.7798962368869101 0.6297061623584853 0  0.7270114638918662 0.6297061623584853 0  0.7141617452433326 0.6984924623115578 0  0.6544734840317555 0.8044032838514916 0  0.598549670267755 0.8505754129164689 0  0.6250005878353381 0.8968996330823094 0  0.6934872156696904 0.8732208155097807 0  0.8116780574290391 0.8715053809502739 0  0.03992972955262323 0.2613065326633165 0  0.09737314495522537 0.368456490063416 0  0.02657762799884852 0.1923165133005948 0  0.1558168025403944 0.4149326294233489 0  0 0.1065057698279287 0  0 0.0532528849139644 0  0.1279010473906149 0.4606448559548094 0  0.06666666666666661 0 0  0.1333333333333332 0 0  0.1999999999999998 0 0  0.2666666666666664 0 0  0.3333333333333328 0 0  0.3999999999999992 0 0  0.4666666666666656 0 0  0.5333333333333319 0 0  0.5999999999999986 0 0  0.6666666666666655 0 0  0.7333333333333324 0 0  0.7999999999999993 0 0  0.8666666666666661 0 0  0.9333333333333331 0 0  0.0579582441497439 0.436479629389124 0  1 0.05466526815938907 0  1 0.1093305363187781 0  0.9757365936289083 0.195691369575767 0  0.9648970548892041 0.2625628140703517 0  0.0263800279221943 0.483527399917238 0  0.03972955164036806 0.5527638190954774 0  0.9076519806729154 0.368456490063416 0  0.8492083230877463 0.4149326294233487 0  0.09870494371348186 0.6596166166871739 0
[...]
<PointData  Tensors="$\sigma$"> 
<DataArray  type="Float64"  Name="$\sigma$"  NumberOfComponents="9" format="ascii">-2.2199009938246431e+05 3.4734351886543930e+06 0.0000000000000000e+00 3.4734351886543930e+06 5.5578097072865823e+06 0.0000000000000000e+00 0.0000000000000000e+00 0.0000000000000000e+00 0.0000000000000000e+00  4.0891579448762625e+07 -6.2755330310811102e+06 0.0000000000000000e+00 -6.2755330310811084e+06 1.0615846518382834e+08 0.0000000000000000e+00 0.0000000000000000e+00 0.0000000000000000e+00 0.0000000000000000e+00  3.4842858508269303e+07 3.1708945592594419e+07 0.0000000000000000e+00 3.1708945592594411e+07 4.7008251088275582e+07 0.0000000000000000e+00 0.0000000000000000e+00 0.0000000000000000e+00 0.0000000000000000e+00  -6.0906037905307814e+07 -3.4620793826353349e+07 0.0000000000000000e+00 -3.4620793826353349e+07 8.9387674163989220e+06 0.0000000000000000e+00 0.0000000000000000e+00 0.0000000000000000e+00 0.0000000000000000e+00  -2.3936651486768126e+06 -3.1974152345077436e+07 0.0000000000000000e+00 -3.1974152345077436e+07 -3.7874391325107165e+07 0.0000000000000000e+00 0.0000000000000000e+00 0.0000000000000000e+00 0.0000000000000000e+00  2.6499283882249482e+07 8.1209534093493335e+06 0.0000000000000000e+00 8.1209534093493335e+06 -1.0620200229494685e+08 0.0000000000000000e+00 0.0000000000000000e+00 0.0000000000000000e+00 0.0000000000000000e+00  -6.2647798728851520e+05 3.5633238105926201e+07 0.0000000000000000e+00 3.5633238105926201e+07 -3.1307626132360928e+07 0.0000000000000000e+00 0.0000000000000000e+00 0.0000000000000000e+00 0.0000000000000000e+00  5.6297862499017254e+07 -1.2315654600452365e+07 0.0000000000000000e+00 -1.2315654600452365e+07 4.8478436507610455e+07 0.0000000000000000e+00 0.0000000000000000e+00 0.0000000000000000e+00 0.0000000000000000e+00  3.0470546716138978e+07 -5.3812169467030339e+07 0.0000000000000000e+00 -5.3812169467030339e+07 -3.5229113073513419e+06 0.0000000000000000e+00 0.0000000000000000e+00 0.0000000000000000e+00 0.0000000000000000e+00  2.7384180152173966e+07 -1.1169054687473876e+07 0.0000000000000000e+00 -1.1169054687473876e+07 -1.0607698610207629e+08 0.0000000000000000e+00 0.0000000000000000e+00 0.0000000000000000e+00 0.0000000000000000e+00  -3.3969866968314024e+06 3.5343283411517046e+07 0.0000000000000000e+00 3.5343283411517046e+07 -3.5477857326639131e+07 0.0000000000000000e+00 0.0000000000000000e+00 0.0000000000000000e+00 0.0000000000000000e+00  -6.0070145600989550e+07 2.7532054107061811e+07 0.0000000000000000e+00 2.7532054107061811e+07 1.9888668735941485e+07 0.0000000000000000e+00 0.0000000000000000e+00 0.0000000000000000e+00 0.0000000000000000e+00  9.1592905422785297e+07 -6.5879250191315331e+07 0.0000000000000000e+00 -6.5879250191315331e+07 6.0585259464460231e+07 0.0000000000000000e+00 0.0000000000000000e+00 0.0000000000000000e+00 0.0000000000000000e+00  7.5597422217631880e+06 -3.0837645671719522e+06 0.0000000000000000e+00 -3.0837645671719522e+06 3.7783259902530909e+07 0.0000000000000000e+00 0.0000000000000000e+00 0.0000000000000000e+00 0.0000000000000000e+00  -3.8651724419016847e+06 -3.9582842572192330e+05 0.0000000000000000e+00 -3.9582842572192330e+05 -1.3082362604195748e+06 0.0000000000000000e+00 0.0000000000000000e+00 0.0000000000000000e+00 0.0000000000000000e+00  -3.8058802995770838e+05 -1.9086559007574499e+04 0.0000000000000000e+00 -1.9086559007574499e+04 -2.2445922436097212e+05 0.0000000000000000e+00 0.0000000000000000e+00 0.0000000000000000e+00 0.0000000000000000e+00  -6.1136319343089453e+04 6.4350608616793848e+04 0.0000000000000000e+00 6.4350608616793848e+04 4.3582723876824275e+04 0.0000000000000000e+00 0.0000000000000000e+00 0.0000000000000000e+00 0.0000000000000000e+00  -2.7747963736772066e+05 -4.5116857500195110e+04 0.0000000000000000e+00 -4.5116857500195110e+04 8.6529377285235096e+04 0.0000000000000000e+00 0.0000000000000000e+00 0.0000000000000000e+00 0.0000000000000000e+00  -3.6249301742481272e+05 -1.7509389389927621e+05 0.0000000000000000e+00 -1.7509389389927621e+05 -2.0367358487246092e+05 0.0000000000000000e+00 0.0000000000000000e+00 0.0000000000000000e+00 0.0000000000000000e+00  -1.9544659220210882e+06 -2.4795436029820377e+06 0.0000000000000000e+00 -2.4795436029820377e+06 -2.5631793782120757e+06 0.0000000000000000e+00 0.0000000000000000e+00 0.0000000000000000e+00 0.0000000000000000e+00  1.8834703605013457e+06 -2.2607976885347024e+07 0.0000000000000000e+00 -2.2607976885347024e+07 -3.6187271924235031e+07 0.0000000000000000e+00 0.0000000000000000e+00 0.0000000000000000e+00 0.0000000000000000e+00  1.6643626659255704e+07 1.2715576392517539e+07 0.0000000000000000e+00 1.2715576392517539e+07 -6.5951048005895995e+07 0.0000000000000000e+00 0.0000000000000000e+00 0.0000000000000000e+00 0.0000000000000000e+00  -4.9071212626438484e+07 -2.5545503034264643e+07 0.0000000000000000e+00 -2.5545503034264643e+07 1.1955053973915029e+07 0.0000000000000000e+00 0.0000000000000000e+00 0.0000000000000000e+00 0.0000000000000000e+00  -3.3051177064680639e+06 1.5109046025078731e+07 0.0000000000000000e+00 1.5109046025078731e+07 3.9550077582489140e+06 0.0000000000000000e+00 0.0000000000000000e+00 0.0000000000000000e+00 0.0000000000000000e+00  4.6410288084180921e+07 2.6872522986581475e+07 0.0000000000000000e+00 2.6872522986581475e+07 6.1780188289858960e+07 0.0000000000000000e+00 0.0000000000000000e+00 0.0000000000000000e+00 0.0000000000000000e+00  -3.2429144825142605e+04 2.3002921244403897e+06 0.0000000000000000e+00 2.3002921244403897e+06 5.9696391417524135e+06 0.0000000000000000e+00 0.0000000000000000e+00 0.0000000000000000e+00 0.0000000000000000e+00  8.3566480419571459e+07 -1.6965642656916909e+07 0.0000000000000000e+00 -1.6965642656916916e+07 1.5679396392279035e+08 0.0000000000000000e+00 0.0000000000000000e+00 0.0000000000000000e+00 0.0000000000000000e+00  -1.4878071234929611e+05 3.2481029470557283e+05 0.0000000000000000e+00 3.2481029470557283e+05 1.3387727443269912e+07 0.0000000000000000e+00 0.0000000000000000e+00 0.0000000000000000e+00 0.0000000000000000e+00  -3.3926286616543435e+07 1.7753478682613462e+07 0.0000000000000000e+00 1.7753478682613462e+07 1.1232271770779623e+07 0.0000000000000000e+00 0.0000000000000000e+00 0.0000000000000000e+00 0.0000000000000000e+00  -8.9410207443931350e+05 -4.7948098041284899e+05 0.0000000000000000e+00 -4.7948098041284899e+05 1.4498479604754660e+07 0.0000000000000000e+00 0.0000000000000000e+00 0.0000000000000000e+00 0.0000000000000000e+00  2.5294515954903950e+05 -5.7796386375199782e+05 0.0000000000000000e+00 -5.7796386375199805e+05 -5.2426198954192782e+05 0.0000000000000000e+00 0.0000000000000000e+00 0.0000000000000000e+00 0.0000000000000000e+00  1.9517934434194508e+05 -2.4631976300817928e+06 0.0000000000000000e+00 -2.4631976300817928e+06 6.0385667886057384e+06 0.0000000000000000e+00 0.0000000000000000e+00 0.0000000000000000e+00 0.0000000000000000e+00  -4.7673378376273357e+05 -8.5236712677516136e+05 0.0000000000000000e+00 -8.5236712677516101e+05 -1.7433016484792482e+06 0.0000000000000000e+00 0.0000000000000000e+00 0.0000000000000000e+00 0.0000000000000000e+00  -5.8289441594328256e+06 -1.5514831071950844e+07 0.0000000000000000e+00 -1.5514831071950844e+07 1.7175280401518219e+06 0.0000000000000000e+00 0.0000000000000000e+00 0.0000000000000000e+00 0.0000000000000000e+00  -5.6059971911059914e+05 1.2251268102375458e+06 0.0000000000000000e+00 1.2251268102375458e+06 8.4928573376172397e+05 0.0000000000000000e+00 0.0000000000000000e+00 0.0000000000000000e+00 0.0000000000000000e+00  1.7145244702777598e+07 -1.3940645402874863e+07 0.0000000000000000e+00 -1.3940645402874863e+07 -7.8067947047826290e+07 0.0000000000000000e+00 0.0000000000000000e+00 0.0000000000000000e+00 0.0000000000000000e+00  -1.7748310805380307e+07 2.6241784580107074e+07 0.0000000000000000e+00 2.6241784580107074e+07 -4.8441487186495997e+07 0.0000000000000000e+00 0.0000000000000000e+00 0.0000000000000000e+00 0.0000000000000000e+00  8.7567008378642052e+06 2.7170424272285994e+07 0.0000000000000000e+00 2.7170424272285994e+07 -2.9738713388139330e+07 0.0000000000000000e+00 0.0000000000000000e+00 0.0000000000000000e+00 0.0000000000000000e+00  2.4239976766974092e+07 9.2219864249251485e+06 0.0000000000000000e+00 9.2219864249251485e+06 -1.1249524038704908e+08 0.0000000000000000e+00 0.0000000000000000e+00 0.0000000000000000e+00 0.0000000000000000e+00  -3.8174496573972210e+07 1.6898328420659430e+07 0.0000000000000000e+00 1.6898328420659430e+07 -1.1939385561181512e+07 0.0000000000000000e+00 0.0000000000000000e+00 0.0000000000000000e+00 0.0000000000000000e+00  4.2443521287591998e+06 -3.6420122960414581e+07 0.0000000000000000e+00 -3.6420122960414581e+07 -5.1165624860255599e+07 0.0000000000000000e+00 0.0000000000000000e+00 0.0000000000000000e+00 0.0000000000000000e+00  4.3227547714113303e+07 -2.7941404798472103e+07 0.0000000000000000e+00 -2.7941404798472103e+07 5.4557516652109973e+07 0.0000000000000000e+00 0.0000000000000000e+00 0.0000000000000000e+00 0.0000000000000000e+00  -7.6591825391619429e+07 -4.3364850379123747e+07 0.0000000000000000e+00 -4.3364850379123747e+07 1.6504566720606091e+07 0.0000000000000000e+00 0.0000000000000000e+00 0.0000000000000000e+00 0.0000000000000000e+00  8.2027212389778584e+07 1.7145875799824830e+07 0.0000000000000000e+00 1.7145875799824830e+07 1.5266870067241970e+08 0.0000000000000000e+00 0.0000000000000000e+00 0.0000000000000000e+00 0.0000000000000000e+00  4.0643360665839717e+07 3.3483473567465726e+07 0.0000000000000000e+00 3.3483473567465726e+07 6.2100080818239078e+07 0.0000000000000000e+00 0.0000000000000000e+00 0.0000000000000000e+00 0.0000000000000000e+00  -3.5200585282246597e+07 -1.4503440880078122e+07 0.0000000000000000e+00 -1.4503440880078122e+07 1.0529811698771179e+07 0.0000000000000000e+00 0.0000000000000000e+00 0.0000000000000000e+00 0.0000000000000000e+00  6.3344130389425911e+07 -7.5112924979409175e+06 0.0000000000000000e+00 -7.5112924979409175e+06 1.3266905587255506e+08 0.0000000000000000e+00 0.0000000000000000e+00 0.0000000000000000e+00 0.0000000000000000e+00  1.7598455145320138e+06 -1.6230367597988015e+06 0.0000000000000000e+00 -1.6230367597988015e+06 -1.8718992978225008e+05 0.0000000000000000e+00 0.0000000000000000e+00 0.0000000000000000e+00 0.0000000000000000e+00  -4.2890984203703910e+07 4.9930835783475451e+06 0.0000000000000000e+00 4.9930835783475451e+06 1.0221093523344563e+07 0.0000000000000000e+00 0.0000000000000000e+00 0.0000000000000000e+00 0.0000000000000000e+00  -6.5613025575041736e+05 9.8993474646844971e+05 0.0000000000000000e+00 9.8993474646844971e+05 -2.8904450340396981e+06 0.0000000000000000e+00 0.0000000000000000e+00 0.0000000000000000e+00 0.0000000000000000e+00  -1.4860361617387850e+06 3.4288406302519562e+06 0.0000000000000000e+00 3.4288406302519562e+06 -2.4672755627639829e+06 0.0000000000000000e+00 0.0000000000000000e+00 0.0000000000000000e+00 0.0000000000000000e+00  3.7197436238390347e+05 -3.2864379409277989e+06 0.0000000000000000e+00 -3.2864379409277989e+06 1.1267002428364847e+06 0.0000000000000000e+00 0.0000000000000000e+00 0.0000000000000000e+00 0.0000000000000000e+00  -9.6480644549811701e+05 -5.2164674635197507e+05 0.0000000000000000e+00 -5.2164674635197507e+05 7.5097249803118396e+05 0.0000000000000000e+00 0.0000000000000000e+00 0.0000000000000000e+00 0.0000000000000000e+00  -1.2714850582527976e+07 -2.5279726772206776e+07 0.0000000000000000e+00 -2.5279726772206776e+07 -4.8211768369577922e+07 0.0000000000000000e+00 0.0000000000000000e+00 0.0000000000000000e+00 0.0000000000000000e+00  -1.4656969927306445e+06 -1.5032524958692461e+06 0.0000000000000000e+00 -1.5032524958692461e+06 -2.3237828540600389e+07 0.0000000000000000e+00 0.0000000000000000e+00 0.0000000000000000e+00 0.0000000000000000e+00  2.0942603477978323e+07 -4.8991725370566333e+06 0.0000000000000000e+00 -4.8991725370566333e+06 -1.0739911425662249e+08 0.0000000000000000e+00 0.0000000000000000e+00 0.0000000000000000e+00 0.0000000000000000e+00  -4.6340593437634008e+06 4.0990244453079794e+06 0.0000000000000000e+00 4.0990244453079794e+06 -1.6263957816732813e+07 0.0000000000000000e+00 0.0000000000000000e+00 0.0000000000000000e+00 0.0000000000000000e+00  9.1588259912901267e+05 3.6686542406210430e+07 0.0000000000000000e+00 3.6686542406210430e+07 -5.2672847340042800e+07 0.0000000000000000e+00 0.0000000000000000e+00 0.0000000000000000e+00 0.0000000000000000e+00  -1.5409722395365790e+06 2.4462818420722755e+05 0.0000000000000000e+00 2.4462818420722752e+05 1.3564656898898855e+06 0.0000000000000000e+00 0.0000000000000000e+00 0.0000000000000000e+00 0.0000000000000000e+00  -7.0506027057650700e+07 4.2222342944986023e+07 0.0000000000000000e+00 4.2222342944986023e+07 1.4160869494287595e+07 0.0000000000000000e+00 0.0000000000000000e+00 0.0000000000000000e+00 0.0000000000000000e+00  -9.7132004384262580e+05 -2.8652514292388936e+06 0.0000000000000000e+00 -2.8652514292388936e+06 -1.9943313579742042e+06 0.0000000000000000e+00 0.0000000000000000e+00 0.0000000000000000e+00 0.0000000000000000e+00  3.5333949702179074e+07 -3.1612807831665706e+07 0.0000000000000000e+00 -3.1612807831665706e+07 5.6310113368722603e+07 0.0000000000000000e+00 0.0000000000000000e+00 0.0000000000000000e+00 0.0000000000000000e+00  -3.6451342723443039e+07 -5.1753025640669400e+06 0.0000000000000000e+00 -5.1753025640669428e+06 1.1315610696486875e+07 0.0000000000000000e+00 0.0000000000000000e+00 0.0000000000000000e+00 0.0000000000000000e+00  6.4750570447478183e+07 8.1483475753918039e+06 0.0000000000000000e+00 8.1483475753918011e+06 1.3157163800830944e+08 0.0000000000000000e+00 0.0000000000000000e+00 0.0000000000000000e+00 0.0000000000000000e+00  -4.7804766980211459e+07 -5.0206345417280160e+06 0.0000000000000000e+00 -5.0206345417280160e+06 -3.3913616452436492e+07 0.0000000000000000e+00 0.0000000000000000e+00 0.0000000000000000e+00 0.0000000000000000e+00  -5.8348778581698239e+07 -1.2382575821112681e+06 0.0000000000000000e+00 -1.2382575821112681e+06 1.6380657684998374e+07 0.0000000000000000e+00 0.0000000000000000e+00 0.0000000000000000e+00 0.0000000000000000e+00  -3.6915034809587575e+07 -3.6374574877379522e+07 0.0000000000000000e+00 -3.6374574877379522e+07 -1.3854157047619291e+07 0.0000000000000000e+00 0.0000000000000000e+00 0.0000000000000000e+00 0.0000000000000000e+00  5.5800885036983714e+07 -6.3480413446931608e+07 0.0000000000000000e+00 -6.3480413446931608e+07 2.6945160958277863e+07 0.0000000000000000e+00 0.0000000000000000e+00 0.0000000000000000e+00 0.0000000000000000e+00  -3.9313185097753681e+07 -3.5401365877988171e+06 0.0000000000000000e+00 -3.5401365877988171e+06 2.0714739707733419e+07 0.0000000000000000e+00 0.0000000000000000e+00 0.0000000000000000e+00 0.0000000000000000e+00  8.0820201630186111e+07 -2.5264957610145934e+07 0.0000000000000000e+00 -2.5264957610145934e+07 1.8886004120311284e+08 0.0000000000000000e+00 0.0000000000000000e+00 0.0000000000000000e+00 0.0000000000000000e+00  -4.0582116062081553e+07 4.5918769536163419e+07 0.0000000000000000e+00 4.5918769536163419e+07 -1.8426135477100436e+07 0.0000000000000000e+00 0.0000000000000000e+00 0.0000000000000000e+00 0.0000000000000000e+00  -4.9642350684214057e+06 -5.6004957642954318e+06 0.0000000000000000e+00 -5.6004957642954318e+06 6.1317231360658687e+06 0.0000000000000000e+00 0.0000000000000000e+00 0.0000000000000000e+00 0.0000000000000000e+00  -5.1175602434035271e+07 1.1125643886444034e+07 0.0000000000000000e+00 1.1125643886444034e+07 -1.4428536447635440e+07 0.0000000000000000e+00 0.0000000000000000e+00 0.0000000000000000e+00 0.0000000000000000e+00  -3.5305084877607482e+06 -2.4979481426883414e+06 0.0000000000000000e+00 -2.4979481426883414e+06 -7.9611263832756400e+05 0.0000000000000000e+00 0.0000000000000000e+00 0.0000000000000000e+00 0.0000000000000000e+00  1.2696776169703314e+06 3.5190728962076589e+07 0.0000000000000000e+00 3.5190728962076589e+07 4.5774194600649081e+07 0.0000000000000000e+00 0.0000000000000000e+00 0.0000000000000000e+00 0.0000000000000000e+00  -2.2335742934997409e+05 -3.8093697656671191e+05 0.0000000000000000e+00 -3.8093697656671226e+05 -7.6035222488891380e+05 0.0000000000000000e+00 0.0000000000000000e+00 0.0000000000000000e+00 0.0000000000000000e+00  6.1211964311910242e+07 1.1605895084460242e+07 0.0000000000000000e+00 1.1605895084460242e+07 1.3730690732401389e+08 0.0000000000000000e+00 0.0000000000000000e+00 0.0000000000000000e+00 0.0000000000000000e+00  -1.9065263836148588e+05 -8.2494026098365569e+05 0.0000000000000000e+00 -8.2494026098365581e+05 -1.7105861125854284e+06 0.0000000000000000e+00 0.0000000000000000e+00 0.0000000000000000e+00 0.0000000000000000e+00  8.3517080985964350e+06 -8.8545100870754123e+06 0.0000000000000000e+00 -8.8545100870754123e+06 3.2500400185737878e+07 0.0000000000000000e+00 0.0000000000000000e+00 0.0000000000000000e+00 0.0000000000000000e+00  6.1204839032389988e+04 3.2247115580031550e+04 0.0000000000000000e+00 3.2247115580031608e+04 -2.9348803267078595e+06 0.0000000000000000e+00 0.0000000000000000e+00 0.0000000000000000e+00 0.0000000000000000e+00  -2.2591442630636687e+06 2.0450140570389829e+06 0.0000000000000000e+00 2.0450140570389829e+06 1.4505181197513794e+06 0.0000000000000000e+00 0.0000000000000000e+00 0.0000000000000000e+00 0.0000000000000000e+00  -1.7593757564852186e+06 -3.5609720675272134e+05 0.0000000000000000e+00 -3.5609720675272116e+05 -6.8404368358071558e+06 0.0000000000000000e+00 0.0000000000000000e+00 0.0000000000000000e+00 0.0000000000000000e+00  -5.7414894512325944e+05 1.5087231529270561e+05 0.0000000000000000e+00 1.5087231529270561e+05 -1.0251731426229902e+06 0.0000000000000000e+00 0.0000000000000000e+00 0.0000000000000000e+00 0.0000000000000000e+00  -7.4543057341346182e+06 9.2847000832147826e+05 0.0000000000000000e+00 9.2847000832147826e+05 -3.6399480828150529e+06 0.0000000000000000e+00 0.0000000000000000e+00 0.0000000000000000e+00 0.0000000000000000e+00  -2.3909059097744111e+05 1.6306256265998541e+05 0.0000000000000000e+00 1.6306256265998541e+05 -1.2760018570102132e+06 0.0000000000000000e+00 0.0000000000000000e+00 0.0000000000000000e+00 0.0000000000000000e+00  -6.8144873011836410e+05 4.2703807653686736e+05 0.0000000000000000e+00 4.2703807653686713e+05 7.0136267517537554e+05 0.0000000000000000e+00 0.0000000000000000e+00 0.0000000000000000e+00 0.0000000000000000e+00  -1.3570780767062175e+05 -5.2585396268403507e+04 0.0000000000000000e+00 -5.2585396268403521e+04 -5.1537445571885380e+05 0.0000000000000000e+00 0.0000000000000000e+00 0.0000000000000000e+00 0.0000000000000000e+00  -5.8276610478257120e+07 -1.6598276091066679e+07 0.0000000000000000e+00 -1.6598276091066679e+07 -4.0018364424851477e+07 0.0000000000000000e+00 0.0000000000000000e+00 0.0000000000000000e+00 0.0000000000000000e+00  -6.6610378106877737e+07 -1.5546801708599848e+06 0.0000000000000000e+00 -1.5546801708599848e+06 1.3364225639405049e+07 0.0000000000000000e+00 0.0000000000000000e+00 0.0000000000000000e+00 0.0000000000000000e+00  -4.1032469562158734e+07 -3.7384008108745947e+07 0.0000000000000000e+00 -3.7384008108745947e+07 -1.3147211851859424e+07 0.0000000000000000e+00 0.0000000000000000e+00 0.0000000000000000e+00 0.0000000000000000e+00  2.2210245722946834e+07 -4.1739076386601098e+07 0.0000000000000000e+00 -4.1739076386601098e+07 1.5308099620147131e+07 0.0000000000000000e+00 0.0000000000000000e+00 0.0000000000000000e+00 0.0000000000000000e+00  -4.0253875768354759e+07 -2.0993486016679662e+06 0.0000000000000000e+00 -2.0993486016679662e+06 2.0099009451238263e+07 0.0000000000000000e+00 0.0000000000000000e+00 0.0000000000000000e+00 0.0000000000000000e+00  5.6067184373014703e+07 -1.1443362045036303e+07 0.0000000000000000e+00 -1.1443362045036303e+07 1.5407738694619498e+08 0.0000000000000000e+00 0.0000000000000000e+00 0.0000000000000000e+00 0.0000000000000000e+00  -3.7214980235718966e+07 4.5196483105135709e+07 0.0000000000000000e+00 4.5196483105135709e+07 -1.6823839120634761e+07 0.0000000000000000e+00 0.0000000000000000e+00 0.0000000000000000e+00 0.0000000000000000e+00  7.8764323468523500e+06 1.4416728133506715e+07 0.0000000000000000e+00 1.4416728133506715e+07 3.2683467245736301e+07 0.00