<?xml version="1.0"?>
<VTKFile type="UnstructuredGrid"  version="0.1"  >
<UnstructuredGrid>
<Piece  NumberOfPoints="5219" NumberOfCells="9516">
<Points>
<DataArray  type="Float64"  NumberOfComponents="3"  format="ascii">0.960947579149098 0.6914213645615341 0  0.9619489233974352 0.6923976669666885 0  0.9619238815542518 0.6924142169837035 0  0.9852116395368016 0.75 0  0.9619238815542528 0.8075857830162958 0  0.9619489233974378 0.807602333033312 0  0.9609475791470494 0.8085786354405142 0  -3.789463794286622e-16 0.09714045207910317 0  0.05522847498307933 0.1523689270621825 0  0.03905242085294913 0.1914213645594871 0  0.03805107660256479 0.1923976669666885 0  0.03807611844574817 0.1924142169837036 0  0.03807611844574724 0.3075857830162957 0  0.0380510766025622 0.307602333033312 0  0.0390524208483502 0.308578635435914 0  0.05522847498307936 0.3476310729378175 0  -2.130682649218605e-16 0.4028595479208968 0  1.057246935377175e-15 0.4852116395368016 0  0.05758578301629642 0.4619238815542518 0  0.05760233303331311 0.461948923397436 0  0.05857863542237449 0.4609475791651894 0  0.1528595479208968 0.5 0  0.05857863544051271 0.539052420852949 0  0.05760233303331311 0.5380510766025639 0  0.05758578301629576 0.5380761184457472 0  -1.034727422466894e-15 0.5147883604631984 0  -2.563145303463639e-16 0.5971404520791032 0  0.05522847498307933 0.6523689270621825 0  0.03905242084222543 0.6914213645702108 0  0.0380510766025648 0.6923976669666885 0  0.03807611844574815 0.6924142169837035 0  0.0380761184457472 0.8075857830162957 0  0.03805107660256218 0.807602333033312 0  0.03905242084447256 0.8085786354320363 0  0.05522847498307936 0.8476310729378175 0  -5.503058498981808e-16 0.9028595479208968 0  0 1 0  1 1 0  0.9999999999999998 0.9028595479208968 0  0.9999999999999998 0.5971404520791032 0  0.9999999999999989 0.5147883604631984 0  0.9424142169837043 0.5380761184457472 0  0.9423976669666879 0.5380510766025632 0  0.9414213645627296 0.5390524208497067 0  0.9414213645594869 0.4609475791470506 0  0.9423976669666878 0.4619489233974367 0  0.9424142169837042 0.4619238815542528 0  1.000000000000001 0.4852116395368015 0  0.9999999999999998 0.4028595479208968 0  0.960947579147051 0.3085786354405128 0  0.9619489233974378 0.307602333033312 0  0.9619238815542528 0.3075857830162957 0  0.9852116395368016 0.25 0  0.9619238815542519 0.1924142169837035 0  0.9619489233974352 0.1923976669666885 0  0.9609475791470501 0.1914213645594864 0  0.9999999999999998 0.09714045207910318 0  1 0 0  0 0 0  0.1924142169837043 0.2880761184457472 0  0.1923976669666879 0.2880510766025632 0  0.3075857830162957 0.2880761184457473 0  0.1914213645623889 0.2890524208500473 0  0.3076023330333131 0.288051076602564 0  0.1914213645594862 0.2109475791470499 0  0.3085786354405143 0.2890524208529506 0  0.1923976669666879 0.2119489233974368 0  0.4028595479208968 0.25 0  0.1924142169837043 0.2119238815542528 0  0.3085786354405126 0.2109475791470512 0  0.3075857830162964 0.2119238815542518 0  0.3076023330333131 0.211948923397436 0  0.460947579147047 0.1914213645594832 0  0.5552284749830794 0.1523689270621825 0  0.4619489233974352 0.1923976669666885 0  0.5390524208281815 0.1914213645842547 0  0.4619238815542518 0.1924142169837036 0  0.5380510766025648 0.1923976669666885 0  0.4852116395368015 0.25 0  0.5380761184457481 0.1924142169837036 0  0.4619238815542528 0.3075857830162957 0  0.5380761184457472 0.3075857830162957 0  0.4619489233974379 0.307602333033312 0  0.5380510766025622 0.307602333033312 0  0.4609475791470537 0.3085786354405101 0  0.5390524208529504 0.3085786354405141 0  0.5552284749830794 0.3476310729378175 0  0.6924142169837043 0.2880761184457472 0  0.6923976669666879 0.2880510766025632 0  0.8075857830162958 0.2880761184457473 0  0.6914213645648473 0.2890524208475889 0  0.8076023330333131 0.288051076602564 0  0.6914213645594869 0.2109475791470508 0  0.8085786354405178 0.2890524208529541 0  0.6923976669666878 0.2119489233974367 0  0.9028595479208968 0.25 0  0.6924142169837043 0.2119238815542528 0  0.8085786354306392 0.2109475791569245 0  0.8075857830162965 0.2119238815542518 0  0.8076023330333131 0.211948923397436 0  0.2109475791556162 0.4414213645680524 0  0.3052284749830794 0.4023689270621825 0  0.2119489233974352 0.4423976669666885 0  0.2890524208529519 0.4414213645594844 0  0.2119238815542518 0.4424142169837035 0  0.2880510766025649 0.4423976669666885 0  0.2352116395368015 0.5 0  0.2880761184457482 0.4424142169837035 0  0.2119238815542528 0.5575857830162958 0  0.2880761184457472 0.5575857830162957 0  0.2119489233974378 0.557602333033312 0  0.2880510766025622 0.557602333033312 0  0.2109475791470511 0.5585786354405127 0  0.289052420852949 0.5585786354405129 0  0.3052284749830794 0.5976310729378175 0  0.1924142169837043 0.7880761184457472 0  0.1923976669666879 0.7880510766025632 0  0.3075857830162958 0.7880761184457472 0  0.1914213645594873 0.7890524208529488 0  0.3076023330333131 0.788051076602564 0  0.1914213645594871 0.710947579147051 0  0.3085786354405157 0.7890524208529519 0  0.1923976669666879 0.7119489233974368 0  0.4028595479208968 0.75 0  0.1924142169837043 0.7119238815542528 0  0.3085786354405128 0.710947579147051 0  0.3075857830162964 0.7119238815542519 0  0.3076023330333131 0.7119489233974359 0  0.4424142169837043 0.5380761184457472 0  0.4423976669666879 0.5380510766025632 0  0.5575857830162958 0.5380761184457473 0  0.4414213645594842 0.5390524208529521 0  0.5576023330333131 0.5380510766025641 0  0.4414213645594895 0.4609475791470533 0  0.5585786354405149 0.5390524208529512 0  0.4423976669666879 0.4619489233974368 0  0.6528595479208968 0.5 0  0.4424142169837042 0.4619238815542528 0  0.5585786354297861 0.4609475791577776 0  0.5575857830162965 0.4619238815542518 0  0.5576023330333131 0.461948923397436 0  0.7109475791524118 0.441421364564848 0  0.8052284749830794 0.4023689270621825 0  0.7119489233974352 0.4423976669666885 0  0.7890524208529517 0.4414213645594846 0  0.7119238815542518 0.4424142169837036 0  0.7880510766025648 0.4423976669666885 0  0.7352116395368016 0.5 0  0.7880761184457481 0.4424142169837035 0  0.7119238815542528 0.5575857830162958 0  0.7880761184457472 0.5575857830162957 0  0.7119489233974378 0.557602333033312 0  0.7880510766025622 0.557602333033312 0  0.7109475791470496 0.558578635440514 0  0.7890524208529492 0.5585786354405129 0  0.8052284749830794 0.5976310729378175 0  0.4609475791470466 0.6914213645594829 0  0.5552284749830794 0.6523689270621825 0  0.4619489233974352 0.6923976669666885 0  0.5390524208529492 0.6914213645594871 0  0.4619238815542517 0.6924142169837035 0  0.5380510766025648 0.6923976669666885 0  0.4852116395368015 0.75 0  0.5380761184457481 0.6924142169837035 0  0.4619238815542528 0.8075857830162957 0  0.5380761184457472 0.8075857830162957 0  0.4619489233974378 0.807602333033312 0  0.5380510766025622 0.807602333033312 0  0.460947579147051 0.8085786354405128 0  0.5390524208529492 0.8085786354405129 0  0.5552284749830794 0.8476310729378175 0  0.6924142169837042 0.7880761184457472 0  0.6923976669666879 0.7880510766025632 0  0.8075857830162958 0.7880761184457473 0  0.6914213645627296 0.7890524208497067 0  0.8076023330333131 0.7880510766025641 0  0.6914213645594869 0.7109475791470508 0  0.8085786354405149 0.7890524208529512 0  0.6923976669666878 0.7119489233974368 0  0.9028595479208968 0.75 0  0.6924142169837042 0.7119238815542528 0  0.8085786354392468 0.7109475791483169 0  0.8075857830162965 0.7119238815542519 0  0.8076023330333131 0.7119489233974359 0  0.9700387936502695 0.7022118825846537 0  0.9765578677437858 0.7131365209089818 0  0.9813273664816173 0.7249304995143532 0  0.9842348122171762 0.7373156845694468 0  0.9842348122171763 0.7626843154305529 0  0.9813273664816174 0.7750695004856463 0  0.9765578677437862 0.7868634790910176 0  0.9700387936502699 0.7977881174153455 0  0.01429418115758901 0.09902231672946646 0  0.02761423749153967 0.1045396647145625 0  0.03905242917512698 0.1133164978870555 0  0.04782926234762003 0.1247546895706428 0  0.05334661033271604 0.1380747459045935 0  0.05334660931733975 0.1666631120092069 0  0.04782925842450733 0.1799831713487516 0  0.02915490623191302 0.2966254179972424 0  0.02222641833679384 0.2843082071034427 0  0.01749228062504768 0.2709925933796457 0  0.01509026119614865 0.2570660743824827 0  0.01509026119614876 0.242933925617516 0  0.017492280625048 0.2290074066203531 0  0.02222641833679435 0.2156917928965562 0  0.02915490623191369 0.2033745820027566 0  0.04782925842233944 0.3200168286474934 0  0.05334660931677867 0.333336887988699 0  0.05334661033271607 0.3619252540954065 0  0.04782926234762011 0.3752453104293571 0  0.03905242917512711 0.3866835021129444 0  0.02761423749153983 0.3954603352854374 0  0.01429418115758916 0.4009776832705335 0  0 0.4714862909341508 0  0 0.4577609423315 0  0 0.4440355937288493 0  0 0.4303102451261985 0  0 0.4165848965235477 0  0.04778811741534623 0.4700387936502694 0  0.03686347909101818 0.4765578677437859 0  0.02506950048564674 0.4813273664816173 0  0.01268431543055313 0.4842348122171763 0  0.07001682636649213 0.4521707428945978 0  0.08333688291894124 0.4466533920416595 0  0.09763106507449193 0.4447715250169212 0  0.1119252477659154 0.4466533879713023 0  0.1252453058894639 0.4521707350312716 0  0.1366834993328389 0.4609475680447677 0  0.1454603339748832 0.4723857602385138 0  0.1509776829313371 0.4857058175765127 0  0.1509776829320748 0.5142941824207342 0  0.1454603339777334 0.5276142397565495 0  0.1366834993388852 0.5390524319491862 0  0.1252453058993373 0.547829264963028 0  0.1119252477796807 0.5533466120250092 0  0.09763106509159299 0.5552284749830788 0  0.08333688293821258 0.5533466079635042 0  0.0700168263862386 0.5478292571168029 0  0.0126843154305529 0.5157651877828237 0  0.02506950048564633 0.5186726335183826 0  0.03686347909101758 0.5234421322562138 0  0.0477881174153455 0.5299612063497301 0  0 0.5834151034764523 0  0 0.5696897548738016 0  0 0.5559644062711508 0  0 0.5422390576685001 0  0 0.5285137090658494 0  0.01429418115758901 0.5990223167294665 0  0.02761423
[...]
<PointData  Tensors="$\sigma$"> 
<DataArray  type="Float64"  Name="$\sigma$"  NumberOfComponents="9" format="ascii">-4.8214436982514344e+07 -5.5383515031118728e+07 0.0000000000000000e+00 -5.5383515031118728e+07 -4.9485664944647126e+07 0.0000000000000000e+00 0.0000000000000000e+00 0.0000000000000000e+00 0.0000000000000000e+00  -9.1273438593087435e+07 -7.3186911288039744e+07 0.0000000000000000e+00 -7.3186911288039744e+07 -6.0719129394641243e+07 0.0000000000000000e+00 0.0000000000000000e+00 0.0000000000000000e+00 0.0000000000000000e+00  -3.6020333043395035e+07 -5.4865212434126057e+07 0.0000000000000000e+00 -5.4865212434126057e+07 -8.0991192362087920e+07 0.0000000000000000e+00 0.0000000000000000e+00 0.0000000000000000e+00 0.0000000000000000e+00  3.8918089524724847e+06 -1.4933887945890636e+05 0.0000000000000000e+00 -1.4933887945890636e+05 -8.1176302302877873e+07 0.0000000000000000e+00 0.0000000000000000e+00 0.0000000000000000e+00 0.0000000000000000e+00  -2.9273589662702508e+07 4.0070520474077873e+07 0.0000000000000000e+00 4.0070520474077873e+07 -4.7086019785350896e+07 0.0000000000000000e+00 0.0000000000000000e+00 0.0000000000000000e+00 0.0000000000000000e+00  -6.6241298628706850e+07 5.6709181790907562e+07 0.0000000000000000e+00 5.6709181790907562e+07 -6.2252829836583123e+07 0.0000000000000000e+00 0.0000000000000000e+00 0.0000000000000000e+00 0.0000000000000000e+00  -3.3371145401589286e+07 3.7827316482084364e+07 0.0000000000000000e+00 3.7827316482084364e+07 -2.8517632561618827e+07 0.0000000000000000e+00 0.0000000000000000e+00 0.0000000000000000e+00 0.0000000000000000e+00  3.7599914248824870e+05 2.3594553299355911e+05 0.0000000000000000e+00 2.3594553299355911e+05 -7.2027020553420717e+05 0.0000000000000000e+00 0.0000000000000000e+00 0.0000000000000000e+00 0.0000000000000000e+00  3.7118364944899175e+06 4.0488873726242371e+06 0.0000000000000000e+00 4.0488873726242371e+06 1.4731714919909155e+08 0.0000000000000000e+00 0.0000000000000000e+00 0.0000000000000000e+00 0.0000000000000000e+00  -3.1219890758975446e+07 3.9868114575198978e+07 0.0000000000000000e+00 3.9868114575198978e+07 -4.0770579284367993e+07 0.0000000000000000e+00 0.0000000000000000e+00 0.0000000000000000e+00 0.0000000000000000e+00  -6.6777612731571123e+07 5.4085471636688486e+07 0.0000000000000000e+00 5.4085471636688486e+07 -4.9497509291812107e+07 0.0000000000000000e+00 0.0000000000000000e+00 0.0000000000000000e+00 0.0000000000000000e+00  -2.9235110265362401e+07 3.9851285940153360e+07 0.0000000000000000e+00 3.9851285940153360e+07 -5.0043368852157697e+07 0.0000000000000000e+00 0.0000000000000000e+00 0.0000000000000000e+00 0.0000000000000000e+00  -3.6948964913364902e+07 -5.2542159031539336e+07 0.0000000000000000e+00 -5.2542159031539336e+07 -6.1332420909669437e+07 0.0000000000000000e+00 0.0000000000000000e+00 0.0000000000000000e+00 0.0000000000000000e+00  -8.4098393782966048e+07 -6.9603053547450781e+07 0.0000000000000000e+00 -6.9603053547450781e+07 -6.8255434030744329e+07 0.0000000000000000e+00 0.0000000000000000e+00 0.0000000000000000e+00 0.0000000000000000e+00  -4.9286455956922360e+07 -5.6245270881997593e+07 0.0000000000000000e+00 -5.6245270881997593e+07 -5.4091794384639315e+07 0.0000000000000000e+00 0.0000000000000000e+00 0.0000000000000000e+00 0.0000000000000000e+00  1.2037407270193575e+06 -1.6599904333697807e+06 0.0000000000000000e+00 -1.6599904333697807e+06 4.5061870641153596e+07 0.0000000000000000e+00 0.0000000000000000e+00 0.0000000000000000e+00 0.0000000000000000e+00  -1.2410205549209969e+05 8.7261987671040872e+04 0.0000000000000000e+00 8.7261987671040872e+04 -1.1223211175979768e+05 0.0000000000000000e+00 0.0000000000000000e+00 0.0000000000000000e+00 0.0000000000000000e+00  1.7500268534885501e+04 4.6904110039930247e+03 0.0000000000000000e+00 4.6904110039930247e+03 9.3353192893348914e+03 0.0000000000000000e+00 0.0000000000000000e+00 0.0000000000000000e+00 0.0000000000000000e+00  -1.6814302991039804e+06 1.1147947348258123e+06 0.0000000000000000e+00 1.1147947348258123e+06 -5.7799344044514350e+05 0.0000000000000000e+00 0.0000000000000000e+00 0.0000000000000000e+00 0.0000000000000000e+00  -4.4753985776317670e+04 5.6402141369965696e+05 0.0000000000000000e+00 5.6402141369965696e+05 -1.5818427271546896e+06 0.0000000000000000e+00 0.0000000000000000e+00 0.0000000000000000e+00 0.0000000000000000e+00  -2.6175605062322258e+06 2.6327159954747511e+06 0.0000000000000000e+00 2.6327159954747511e+06 -1.8135175843015695e+06 0.0000000000000000e+00 0.0000000000000000e+00 0.0000000000000000e+00 0.0000000000000000e+00  7.2726877097782090e+07 -7.5235120471228454e+06 0.0000000000000000e+00 -7.5235120471228454e+06 5.1020656169571358e+08 0.0000000000000000e+00 0.0000000000000000e+00 0.0000000000000000e+00 0.0000000000000000e+00  -2.5283099601340820e+06 -2.5077632423104080e+06 0.0000000000000000e+00 -2.5077632423104080e+06 -1.8012698020463237e+06 0.0000000000000000e+00 0.0000000000000000e+00 0.0000000000000000e+00 0.0000000000000000e+00  -3.3580547140993318e+05 -6.9729393510979845e+05 0.0000000000000000e+00 -6.9729393510979845e+05 -1.6282741109248763e+06 0.0000000000000000e+00 0.0000000000000000e+00 0.0000000000000000e+00 0.0000000000000000e+00  -1.1886933065245000e+06 -9.0674253325785790e+05 0.0000000000000000e+00 -9.0674253325785790e+05 -4.4106064058665617e+05 0.0000000000000000e+00 0.0000000000000000e+00 0.0000000000000000e+00 0.0000000000000000e+00  2.0398699921474432e+04 -1.9718395137372017e+03 0.0000000000000000e+00 -1.9718395137372017e+03 1.3340147143901473e+04 0.0000000000000000e+00 0.0000000000000000e+00 0.0000000000000000e+00 0.0000000000000000e+00  -7.5683072467998019e+04 -5.8495074265629606e+04 0.0000000000000000e+00 -5.8495074265629606e+04 -8.1718221793151970e+04 0.0000000000000000e+00 0.0000000000000000e+00 0.0000000000000000e+00 0.0000000000000000e+00  9.2583372201591800e+05 1.1463004510449064e+06 0.0000000000000000e+00 1.1463004510449064e+06 4.5707048886905193e+07 0.0000000000000000e+00 0.0000000000000000e+00 0.0000000000000000e+00 0.0000000000000000e+00  -4.6651475830851734e+07 5.6537114160336800e+07 0.0000000000000000e+00 5.6537114160336800e+07 -5.0517638842132688e+07 0.0000000000000000e+00 0.0000000000000000e+00 0.0000000000000000e+00 0.0000000000000000e+00  -8.8686202371925309e+07 6.4385303109042704e+07 0.0000000000000000e+00 6.4385303109042704e+07 -6.1961170814711891e+07 0.0000000000000000e+00 0.0000000000000000e+00 0.0000000000000000e+00 0.0000000000000000e+00  -2.8499679597501028e+07 5.3815635763253063e+07 0.0000000000000000e+00 5.3815635763253063e+07 -6.6937005965430558e+07 0.0000000000000000e+00 0.0000000000000000e+00 0.0000000000000000e+00 0.0000000000000000e+00  -2.3404458532078698e+07 -4.2621286807368487e+07 0.0000000000000000e+00 -4.2621286807368487e+07 -7.7016727004294500e+07 0.0000000000000000e+00 0.0000000000000000e+00 0.0000000000000000e+00 0.0000000000000000e+00  -7.6823741671250269e+07 -6.2088651827898532e+07 0.0000000000000000e+00 -6.2088651827898532e+07 -5.3217504268428117e+07 0.0000000000000000e+00 0.0000000000000000e+00 0.0000000000000000e+00 0.0000000000000000e+00  -3.5525359532447644e+07 -3.7941985875923119e+07 0.0000000000000000e+00 -3.7941985875923119e+07 -1.9037203494743638e+07 0.0000000000000000e+00 0.0000000000000000e+00 0.0000000000000000e+00 0.0000000000000000e+00  1.2336444711014062e+07 -7.7513660484863957e+06 0.0000000000000000e+00 -7.7513660484863957e+06 1.4063317413607058e+08 0.0000000000000000e+00 0.0000000000000000e+00 0.0000000000000000e+00 0.0000000000000000e+00  -4.1606083068065964e+04 -1.6473084835668986e+04 0.0000000000000000e+00 -1.6473084835668986e+04 6.8841066156435743e+04 0.0000000000000000e+00 0.0000000000000000e+00 0.0000000000000000e+00 0.0000000000000000e+00  -1.4806899279176502e+05 -6.6153140451165309e+04 0.0000000000000000e+00 -6.6153140451165309e+04 2.2998419990928851e+07 0.0000000000000000e+00 0.0000000000000000e+00 0.0000000000000000e+00 0.0000000000000000e+00  -5.7409289937509973e+04 -7.4998548551941174e+04 0.0000000000000000e+00 -7.4998548551941174e+04 2.2795162399894752e+07 0.0000000000000000e+00 0.0000000000000000e+00 0.0000000000000000e+00 0.0000000000000000e+00  -1.0573535263596703e+06 -1.8061135882439120e+06 0.0000000000000000e+00 -1.8061135882439120e+06 -1.5899597724164766e+06 0.0000000000000000e+00 0.0000000000000000e+00 0.0000000000000000e+00 0.0000000000000000e+00  -1.2171811867218204e+05 9.4176061894201222e+04 0.0000000000000000e+00 9.4176061894201222e+04 -1.0987766268165094e+05 0.0000000000000000e+00 0.0000000000000000e+00 0.0000000000000000e+00 0.0000000000000000e+00  2.0340811661580748e+04 2.9857518954405259e+03 0.0000000000000000e+00 2.9857518954405259e+03 1.1880691311418481e+04 0.0000000000000000e+00 0.0000000000000000e+00 0.0000000000000000e+00 0.0000000000000000e+00  -1.2488913455022578e+06 9.0430195971351140e+05 0.0000000000000000e+00 9.0430195971351140e+05 -4.2609449530519248e+05 0.0000000000000000e+00 0.0000000000000000e+00 0.0000000000000000e+00 0.0000000000000000e+00  -2.7098884580365848e+05 7.0634980217489600e+05 0.0000000000000000e+00 7.0634980217489600e+05 -1.6723028234401576e+06 0.0000000000000000e+00 0.0000000000000000e+00 0.0000000000000000e+00 0.0000000000000000e+00  -2.6378506213052524e+06 2.5749761715003462e+06 0.0000000000000000e+00 2.5749761715003462e+06 -1.8151071735975926e+06 0.0000000000000000e+00 0.0000000000000000e+00 0.0000000000000000e+00 0.0000000000000000e+00  -2.5518796708900570e+06 -2.8112462374879038e+06 0.0000000000000000e+00 -2.8112462374879038e+06 -1.4956421651315021e+06 0.0000000000000000e+00 0.0000000000000000e+00 0.0000000000000000e+00 0.0000000000000000e+00  -2.8790541878063930e+05 -4.4822308551985153e+05 0.0000000000000000e+00 -4.4822308551985153e+05 -1.7595715453906015e+06 0.0000000000000000e+00 0.0000000000000000e+00 0.0000000000000000e+00 0.0000000000000000e+00  -1.1312255673245899e+06 -8.7536110816592269e+05 0.0000000000000000e+00 -8.7536110816592269e+05 -4.6895871434919530e+05 0.0000000000000000e+00 0.0000000000000000e+00 0.0000000000000000e+00 0.0000000000000000e+00  1.9658153521029159e+04 -1.9445873277664030e+03 0.0000000000000000e+00 -1.9445873277664030e+03 1.2007514119426725e+04 0.0000000000000000e+00 0.0000000000000000e+00 0.0000000000000000e+00 0.0000000000000000e+00  -1.1998778926529223e+05 -7.5569316262970184e+04 0.0000000000000000e+00 -7.5569316262970184e+04 -7.4129087579269530e+04 0.0000000000000000e+00 0.0000000000000000e+00 0.0000000000000000e+00 0.0000000000000000e+00  -4.8187442456642017e+07 5.6203441773672543e+07 0.0000000000000000e+00 5.6203441773672543e+07 -4.9702642106862456e+07 0.0000000000000000e+00 0.0000000000000000e+00 0.0000000000000000e+00 0.0000000000000000e+00  -8.5270816212491184e+07 6.5569258882596634e+07 0.0000000000000000e+00 6.5569258882596634e+07 -6.3344959741963200e+07 0.0000000000000000e+00 0.0000000000000000e+00 0.0000000000000000e+00 0.0000000000000000e+00  -3.2136243287003532e+07 5.3182692022036485e+07 0.0000000000000000e+00 5.3182692022036485e+07 -6.6842752291196793e+07 0.0000000000000000e+00 0.0000000000000000e+00 0.0000000000000000e+00 0.0000000000000000e+00  3.8687213839708515e+06 1.0992345194220832e+06 0.0000000000000000e+00 1.0992345194220832e+06 -8.1195204961826622e+07 0.0000000000000000e+00 0.0000000000000000e+00 0.0000000000000000e+00 0.0000000000000000e+00  -2.6865170487075079e+07 -4.1533588244473323e+07 0.0000000000000000e+00 -4.1533588244473323e+07 -5.5479325108867861e+07 0.0000000000000000e+00 0.0000000000000000e+00 0.0000000000000000e+00 0.0000000000000000e+00  -6.2549773234024793e+07 -5.0034344098177202e+07 0.0000000000000000e+00 -5.0034344098177202e+07 -4.9976779079926863e+07 0.0000000000000000e+00 0.0000000000000000e+00 0.0000000000000000e+00 0.0000000000000000e+00  -3.3680444706854962e+07 -3.7768447059424788e+07 0.0000000000000000e+00 -3.7768447059424788e+07 -2.7818769328854837e+07 0.0000000000000000e+00 0.0000000000000000e+00 0.0000000000000000e+00 0.0000000000000000e+00  -6.4101456116649199e+04 -1.4434357678209647e+05 0.0000000000000000e+00 -1.4434357678209647e+05 6.5839994707485498e+05 0.0000000000000000e+00 0.0000000000000000e+00 0.0000000000000000e+00 0.0000000000000000e+00  -5.9926116816844085e+04 -2.0178434135214291e+04 0.0000000000000000e+00 -2.0178434135214291e+04 2.2899881703294341e+07 0.0000000000000000e+00 0.0000000000000000e+00 0.0000000000000000e+00 0.0000000000000000e+00  6.3087761711969273e+06 8.1833841192566347e+05 0.0000000000000000e+00 8.1833841192566347e+05 2.4411018200506262e+07 0.0000000000000000e+00 0.0000000000000000e+00 0.0000000000000000e+00 0.0000000000000000e+00  -1.1913871648534283e+08 9.3505552910687596e+07 0.0000000000000000e+00 9.3505552910687596e+07 -6.2054488931678891e+07 0.0000000000000000e+00 0.0000000000000000e+00 0.0000000000000000e+00 0.0000000000000000e+00  -6.5331778662329629e+07 9.5074887839045122e+07 0.0000000000000000e+00 9.5074887839045122e+07 -1.4097602420850575e+08 0.0000000000000000e+00 0.0000000000000000e+00 0.0000000000000000e+00 0.0000000000000000e+00  -9.1602756533543646e+07 -7.3820667291779965e+07 0.0000000000000000e+00 -7.3820667291779965e+07 -5.3358953067608863e+07 0.0000000000000000e+00 0.0000000000000000e+00 0.0000000000000000e+00 0.0000000000000000e+00  -1.4500811104532701e+08 1.2820028821929799e+08 0.0000000000000000e+00 1.2820028821929799e+08 -9.4728809119706675e+07 0.0000000000000000e+00 0.0000000000000000e+00 0.0000000000000000e+00 0.0000000000000000e+00  -6.4451908980690107e+07 -8.2795488529296815e+07 0.0000000000000000e+00 -8.2795488529296815e+07 -1.1275954388034624e+08 0.0000000000000000e+00 0.0000000000000000e+00 0.0000000000000000e+00 0.0000000000000000e+00  -2.4917639176964503e+07 -2.5134600377071925e+07 0.0000000000000000e+00 -2.5134600377071925e+07 -2.2267378570701253e+07 0.0000000000000000e+00 0.0000000000000000e+00 0.0000000000000000e+00 0.0000000000000000e+00  -1.0651207361248977e+08 -9.6776912315000430e+07 0.0000000000000000e+00 -9.6776912315000430e+07 -7.3945604717271522e+07 0.0000000000000000e+00 0.0000000000000000e+00 0.0000000000000000e+00 0.0000000000000000e+00  -1.4570379729753824e+07 -1.3858433394281778e+07 0.0000000000000000e+00 -1.3858433394281778e+07 -2.0337286007167187e+07 0.0000000000000000e+00 0.0000000000000000e+00 0.0000000000000000e+00 0.0000000000000000e+00  4.6349050196694538e+07 -2.3988237634202722e+07 0.0000000000000000e+00 -2.3988237634202722e+07 4.2875556737420166e+08 0.0000000000000000e+00 0.0000000000000000e+00 0.0000000000000000e+00 0.0000000000000000e+00  -1.2347562700168373e+07 -1.2622183977395410e+07 0.0000000000000000e+00 -1.2622183977395410e+07 -6.4520217758809747e+06 0.0000000000000000e+00 0.0000000000000000e+00 0.0000000000000000e+00 0.0000000000000000e+00  -3.3760159062288783e+07 2.6380790519090258e+07 0.0000000000000000e+00 2.6380790519090258e+07 -1.5867710851454075e+07 0.0000000000000000e+00 0.0000000000000000e+00 0.0000000000000000e+00 0.0000000000000000e+00  -1.7420485447013028e+07 1.3850121794397928e+07 0.0000000000000000e+00 1.3850121794397928e+07 -9.6539545433079787e+06 0.0000000000000000e+00 0.0000000000000000e+00 0.0000000000000000e+00 0.0000000000000000e+00  -1.4470923751192919e+06 1.0188761342986684e+07 0.0000000000000000e+00 1.0188761342986684e+07 -2.1200686084480621e+07 0.0000000000000000e+00 0.0000000000000000e+00 0.0000000000000000e+00 0.0000000000000000e+00  3.0955896857058452e+06 2.2154493723774832e+07 0.0000000000000000e+00 2.2154493723774832e+07 5.5909318281870462e+07 0.0000000000000000e+00 0.0000000000000000e+00 0.0000000000000000e+00 0.0000000000000000e+00  2.0704944951656803e+07 -5.3457338112434903e+06 0.0000000000000000e+00 -5.3457338112434903e+06 3.6591650098887140e+08 0.0000000000000000e+00 0.0000000000000000e+00 0.0000000000000000e+00 0.0000000000000000e+00  -1.9969678447765835e+07 -2.6416490243641391e+07 0.0000000000000000e+00 -2.6416490243641391e+07 -3.9512736350875147e+07 0.0000000000000000e+00 0.0000000000000000e+00 0.0000000000000000e+00 0.0000000000000000e+00  6.1064429741152534e+06 -3.2011702467112143e+07 0.0000000000000000e+00 -3.2011702467112143e+07 5.8979064533577994e+07 0.0000000000000000e+00 0.0000000000000000e+00 0.0000000000000000e+00 0.0000000000000000e+00  -6.5920811445880635e+06 -1.8527102913638052e+07 0.0000000000000000e+00 -1.8527102913638052e+07 -3.9848193724674307e+07 0.0000000000000000e+00 0.0000000000000000e+00 0.0000000000000000e+00 0.0000000000000000e+00  -2.0427078519197367e+07 3.4561501225670911e+07 0.0000000000000000e+00 3.4561501225670911e+07 -5.8271135790969096e+07 0.0000000000000000e+00 0.0000000000000000e+00 0.0000000000000000e+00 0.0000000000000000e+00  3.8972419722039890e+06 -1.5367242342000552e+06 0.0000000000000000e+00 -1.5367242342000552e+06 -7.7983752767115012e+07 0.0000000000000000e+00 0.0000000000000000e+00 0.0000000000000000e+00 0.0000000000000000e+00  -6.5515412734831506e+06 1.5573320395063283e+07 0.0000000000000000e+00 1.5573320395063283e+07 -1.5822261604694648e+07 0.0000000000000000e+00 0.0000000000000000e+00 0.0000000000000000e+00 0.0000000000000000e+00  -4.5350520888347976e+07 6.5361361934560373e+07 0.0000000000000000e+00 6.5361361934560373e+07 -7.7181089621806696e+07 0.0000000000000000e+00 0.0000000000000000e+00 0.0000000000000000e+00 0.0000000000000000e+00  -3.3734645325081281e+07 -6.5040047610262841e+07 0.0000000000000000e+00 -6.5040047610262841e+07 -1.0391801573737052e+08 0.0000000000000000e+00 0.0000000000000000e+00 0.0000000000000000e+00 0.0000000000000000e+00  -1.0384105142629626e+08 8.4493786524506658e+07 0.0000000000000000e+00 8.4493786524506658e+07 -7.8962557119989768e+07 0.0000000000000000e+00 0.0000000000000000e+00 0.0000000000000000e+00 0.0000000000000000e+00  -1.2296306896834847e+08 -8.9937430621090248e+07 0.0000000000000000e+00 -8.9937430621090248e+07 -6.5959775680413052e+07 0.0000000000000000e+00 0.0000000000000000e+00 0.0000000000000000e+00 0.0000000000000000e+00  -6.0831267751425207e+07 7.0322611790215969e+07 0.0000000000000000e+00 7.0322611790215969e+07 -7.0706436678426251e+07 0.0000000000000000e+00 0.0000000000000000e+00 0.0000000000000000e+00 0.0000000000000000e+00  -6.0428566382163025e+07 -7.5053534101691425e+07 0.0000000000000000e+00 -7.5053534101691425e+07 -7.2098618899389833e+07 0.0000000000000000e+00 0.0000000000000000e+00 0.0000000000000000e+00 0.0000000000000000e+00  3.7793456612333343e+06 -1.3211097717351681e+07 0.0000000000000000e+00 -1.3211097717351681e+07 6.7347940664793357e+07 0.0000000000000000e+00 0.0000000000000000e+00 0.0000000000000000e+00 0.0000000000000000e+00  -9.2830181558558926e+07 7.4060575677781701e+07 0.0000000000000000e+00 7.4060575677781701e+07 -5.0456688551152095e+07 0.0000000000000000e+00 0.0000000000000000e+00 0.0000000000000000e+00 0.0000000000000000e+00  -6.1253435983169079e+07 7.9993758458892852e+07 0.0000000000000000e+00 7.9993758458892852e+07 -1.1286158217144021e+08 0.0000000000000000e+00 0.0000000000000000e+00 0.0000000000000000e+00 0.0000000000000000e+00  -1.1840851504922697e+08 -9.2237957655706897e+07 0.0000000000000000e+00 -9.2237957655706897e+07 -6.0060973764850698e+07 0.0000000000000000e+00 0.0000000000000000e+00 0.0000000000000000e+00 0.0000000000000000e+00  -1.0707480207288644e+08 9.7773205383670092e+07 0.0000000000000000e+00 9.7773205383670092e+07 -7.4234795992636055e+07 0.0000000000000000e+00 0.0000000000000000e+00 0.0000000000000000e+00 0.0000000000000000e+00  -6.5865742093201347e+07 -9.3820103166450813e+07 0.0000000000000000e+00 -9.3820103166450813e+07 -1.4016754552292386e+08 0.0000000000000000e+00 0.0000000000000000e+00 0.0000000000000000e+00 0.0000000000000000e+00  -3.5704030172066793e+07 -2.5457655813462429e+07 0.0000000000000000e+00 -2.5457655813462429e+07 -1.6849255821326599e+07 0.0000000000000000e+00 0.0000000000000000e+00 0.0000000000000000e+00 0.0000000000000000e+00  -1.4305567672746834e+08 -1.2882295016974805e+08 0.0000000000000000e+00 -1.2882295016974805e+08 -9.5435388847569928e+07 0.0000000000000000e+00 0.0000000000000000e+00 0.0000000000000000e+00 0.0000000000000000e+00  -1.7386113949363516e+06 -1.2381388560685989e+07 0.0000000000000000e+00 -1.23813