<?xml version="1.0"?>
<VTKFile type="UnstructuredGrid"  version="0.1"  >
<UnstructuredGrid>
<Piece  NumberOfPoints="2165" NumberOfCells="4161">
<Points>
<DataArray  type="Float64"  NumberOfComponents="3"  format="ascii">-3.598637933768527e-16 0.3500000000000001 0  0.05 0.4 0  -3.537405593811159e-16 0.45 0  0 1 0  1 1 0  0.9999999999999997 0.65 0  0.9999999999999997 0.5499999999999999 0  1 0 0  0 0 0  0.0191341716182545 0.3538060233744357 0  0.03535533905932737 0.3646446609406727 0  0.04619397662556433 0.3808658283817455 0  0.04619397662556434 0.4191341716182545 0  0.03535533905932738 0.4353553390593274 0  0.01913417161825449 0.4461939766255644 0  0 0.975 0  0 0.95 0  0 0.9249999999999999 0  0 0.8999999999999998 0  0 0.8749999999999998 0  0 0.8499999999999998 0  0 0.8249999999999997 0  0 0.7999999999999996 0  0 0.7749999999999996 0  0 0.7499999999999996 0  0 0.7249999999999996 0  0 0.6999999999999997 0  0 0.6749999999999998 0  0 0.6499999999999999 0  0 0.6249999999999999 0  0 0.6 0  0 0.575 0  0 0.5499999999999998 0  0 0.5249999999999999 0  0 0.4999999999999998 0  0 0.4749999999999999 0  0.975 1 0  0.95 1 0  0.925 1 0  0.9 1 0  0.875 1 0  0.85 1 0  0.825 1 0  0.8 1 0  0.775 1 0  0.75 1 0  0.725 1 0  0.7 1 0  0.675 1 0  0.65 1 0  0.625 1 0  0.6 1 0  0.575 1 0  0.55 1 0  0.525 1 0  0.5 1 0  0.475 1 0  0.45 1 0  0.425 1 0  0.4 1 0  0.375 1 0  0.35 1 0  0.325 1 0  0.3 1 0  0.275 1 0  0.25 1 0  0.225 1 0  0.2 1 0  0.175 1 0  0.15 1 0  0.125 1 0  0.09999999999999998 1 0  0.07499999999999996 1 0  0.05000000000000004 1 0  0.02500000000000002 1 0  1 0.675 0  1 0.7000000000000001 0  1 0.7250000000000001 0  1 0.7500000000000001 0  1 0.7750000000000001 0  1 0.8000000000000002 0  1 0.8250000000000002 0  1 0.8500000000000002 0  1 0.8750000000000003 0  1 0.9000000000000001 0  1 0.9250000000000002 0  1 0.9500000000000001 0  1 0.9750000000000001 0  0.9783058130441221 0.6450484433951209 0  0.9609084258765985 0.6311744900929367 0  0.9512536043909088 0.6111260466978157 0  0.9512536043909088 0.5888739533021843 0  0.9609084258765985 0.5688255099070633 0  0.9783058130441221 0.554951556604879 0  1 0.02500000000000002 0  1 0.05000000000000004 0  1 0.07500000000000008 0  1 0.1000000000000001 0  1 0.1250000000000001 0  1 0.1500000000000002 0  1 0.1750000000000002 0  1 0.2000000000000003 0  1 0.2250000000000003 0  1 0.2500000000000004 0  1 0.2750000000000004 0  1 0.3000000000000003 0  1 0.3250000000000002 0  1 0.3500000000000001 0  1 0.3750000000000001 0  1 0.3999999999999999 0  1 0.425 0  1 0.45 0  1 0.475 0  1 0.5000000000000001 0  1 0.5249999999999999 0  0.025 0 0  0.05 0 0  0.075 0 0  0.1 0 0  0.125 0 0  0.15 0 0  0.175 0 0  0.2 0 0  0.225 0 0  0.25 0 0  0.275 0 0  0.3 0 0  0.325 0 0  0.35 0 0  0.375 0 0  0.4 0 0  0.425 0 0  0.45 0 0  0.475 0 0  0.5 0 0  0.525 0 0  0.55 0 0  0.575 0 0  0.6 0 0  0.625 0 0  0.65 0 0  0.675 0 0  0.7 0 0  0.725 0 0  0.75 0 0  0.775 0 0  0.8 0 0  0.825 0 0  0.85 0 0  0.875 0 0  0.9 0 0  0.925 0 0  0.95 0 0  0.975 0 0  0 0.3250000000000001 0  0 0.3 0  0 0.275 0  0 0.2499999999999999 0  0 0.2249999999999999 0  0 0.1999999999999998 0  0 0.1749999999999998 0  0 0.1499999999999998 0  0 0.1249999999999998 0  0 0.09999999999999987 0  0 0.07499999999999984 0  0 0.04999999999999993 0  0 0.02500000000000002 0  0.06453325334544308 0.4134708543086404 0  0.5146839915088474 0.02134387884913819 0  0.4875871001393628 0.9784117024331356 0  0.9386300160094723 0.5701776715936071 0  0.0216506350946109 0.6124999999999999 0  0.9764205887290853 0.3596067946540696 0  0.3876261045932067 0.02156097490657183 0  0.6125 0.978349364905389 0  0.3612127461797463 0.9792371404802113 0  0.6374786650398092 0.02079982608537345 0  0.9387185538472446 0.6295115890709873 0  0.05482260092545593 0.3633687091864355 0  0.02445354803948679 0.7343198207875321 0  0.2624888813627476 0.02091671348578122 0  0.7375212991274043 0.9794996488945376 0  0.9793010831723812 0.2648509348664836 0  0.2625026480689301 0.9795699185263282 0  0.7362840788105066 0.02225211062275217 0  0.02159327910297104 0.2128861809896528 0  0.9786837570973538 0.7867241244631172 0  0.02419728000065929 0.8365600234152764 0  0.980043283615984 0.1624097203408714 0  0.1645857434226354 0.0205513501962844 0  0.8339481359352011 0.9784483546369231 0  0.1637584777222821 0.9774556328160621 0  0.8374916614314967 0.02165097219510076 0  0.02171915379676059 0.5370700005916152 0  0.9795335762511281 0.4365726939225819 0  0.02319480745007968 0.1370197632171214 0  0.9774462976085161 0.8592616917551974 0  0.9786941241076723 0.7122511101067891 0  0.9797883857882621 0.08781864217752949 0  0.01966314788989931 0.9125801876811624 0  0.02051815350151098 0.2882126194470174 0  0.09063226699593246 0.0214884092697174 0  0.9124408843562394 0.9818463395009377 0  0.03872465516591678 0.452731089005145 0  0.08969424365256845 0.978412979507602 0  0.9124999999999999 0.02165063509461096 0  0.02158104789437187 0.6619299176372371 0  0.9796602354625652 0.4859004208706154 0  0.3127517983598529 0.02417963694738812 0  0.4375629605000894 0.02158039900821679 0  0.5643674594196073 0.01968996000301126 0  0.5368361594956101 0.9790428840407062 0  0.4376176251051295 0.9783667484208922 0  0.6874072695660477 0.978435143102373 0  0.310604317388614 0.979558305560928 0  0.2125577044121564 0.02066685543111635 0  0.6875 0.0216506350946109 0  0.02224009810917643 0.08811420611559456 0  0.790876428529276 0.978633065284896 0  0.2125 0.978349364905389 0  0.9788033534786624 0.2116925349935155 0  0.9769441169344462 0.3150381335760689 0  0.9804648376981185 0.9123186437266726 0  0.7874999988222203 0.02127957051165741 0  0.02109233852270731 0.786866823287435 0  0.9483709287873718 0.5504073206521916 0  0.9259842326464427 0.5519702047534598 0  0.9163209045278007 0.5719292915927929 0  0.9035374059862284 0.5537291796040291 0  0.8938951918780048 0.5738949757882954 0  0.8807940177559743 0.5546750869516996 0  0.8712661812741653 0.5757142549099102 0  0.8580668865514332 0.5563902430113601 0  0.848508161986991 0.5779004013072002 0  0.8354274200119249 0.5591176379057713 0  0.8256349826905482 0.5800610629400762 0  0.8124123591208572 0.5604454546391737 0  0.802603410938817 0.5819653950592523 0  0.7892876429890218 0.562234610648543 0  0.7794355871850538 0.583896242519796 0  0.7661469824381839 0.5648243426306435 0  0.7562387679604726 0.5860005456930413 0  0.7429651600512166 0.5669367633461588 0  0.7330846968880171 0.5879590907760761 0  0.7198577999459205 0.5688986880627463 0  0.7297050500533544 0.5479561801187277 0  0.7066243396993471 0.5499068108517552 0  0.6968285086900206 0.5707989520567972 0  0.6836266810714333 0.5519088927359967 0  0.6738604685766018 0.5727655091567184 0  0.6607284761452521 0.5538781923028128 0  0.6697149783704412 0.5321140554135094 0  0.6473436039782401 0.5350050604671006 0  0.6378867365666199 0.5557804038095817 0  0.6246915360243652 0.5362124690568238 0  0.6151175309583405 0.5575933164645619 0  0.6019784180102355 0.5380659376543677 0  0.5924099113505394 0.5593739656462906 0  0.5794110962027638 0.541110021814312 0  0.5697985396917309 0.5614600003719357 0  0.5568468707330213 0.5433212932327446 0  0.5472634011377896 0.5635652141280936 0  0.5343236363495072 0.5451361960661517 0  0.5247877773262166 0.565493591892781 0  0.5118927934227436 0.5470665328397559 0  0.5023398230005425 0.5674381114577953 0  0.5213991904098014 0.5267047787870831 0  0.4990390504096661 0.528649139287786 0  0.6328887517229864 0.5131744321062524 0  0.5085133205790763 0.5083322037773296 0  0.4861972978925295 0.5102540920324363 0  0.4956914791804768 0.4899605513008993 0  0.4734139980312694 0.4918582759645476 0  0.4826986629698439 0.4717164019717278 0  0.460570567761715 0.473509155475794 0  0.4699344541058981 0.4533140529328089 0  0.4477087341565655 0.4550973130597117 0  0.4381733274019614 0.4752901381741884 0  0.4570222843287571 0.4349938694701042 0  0.4348599018247688 0.436728068420533 0  0.5604623134382263 0.581815997002507 0  0.4443612964408632 0.416499823314016 0  0.422056299386984 0.4183730429856528 0  0.4688721528228815 0.4135009841763965 0  0.4315584877924544 0.398120546824229 0  0.4092288692044618 0.3999974286008185 0  0.7463210599443056 0.6070829843371945 0  0.4187270626688335 0.3797365044773463 0  0.3964262302393312 0.3817184136470017 0  0.3869780036193907 0.4018498778543814 0  0.3742423843122406 0.3837055716372927 0  0.3648701490102072 0.4037049758807119 0  0.3518115403926748 0.3858985036587403 0  0.3426146276710081 0.4056777495658291 0  0.3614541441355358 0.3656396497906528 0  0.339026673715919 0.3678724679736439 0  0.3485566370135618 0.3476560889674916 0  0.3264681821394378 0.3496422822523857 0  0.8219942777991693 0.5379143061758643 0  0.3358297439968608 0.3295117748868035 0  0.3137050884585635 0.3314921667582986 0  0.3229980644152205 0.3113561769498422 0  0.3007986024336577 0.3133063832007756 0  0.3441851868720173 0.3085211458266175 0  0.3101966551534752 0.2930273704914169 0  0.287793053707373 0.2950088132226583 0  0.2914417217227097 0.3337427541189321 0  0.2975120686695638 0.2743682539701985 0  0.274864585256681 0.2764253296978281 0  0.816026571618698 0.6006851919544112 0  0.2844672854128698 0.2557011565880619 0  0.2617267434509338 0.2577713002235077 0  0.3072711221189672 0.2536790056475094 0  0.2521588568690318 0.2785072139143895 0  0.2389277409161178 0.2598761196336353 0  0.248448076747058 0.2389478879785275 0  0.5053822153261678 0.4716915524631118 0  0.229548765875869 0.2806542761043101 0  0.2254561407802683 0.2411354049374563 0  0.2350621310805047 0.2199181955146378 0  0.2117782450160163 0.222165061041625 0  0.2214249125635323 0.2008136877065064 0  0.2448758256083499 0.1985732693215908 0  0.197966291680556 0.2031211006951591 0  0.1883147493074436 0.2245564097761413 0  0.8910637266939049 0.5322898364209732 0  0.1748136087708587 0.2051141748992724 0  0.1842088801696792 0.1837087814679069 0  0.1656574100807746 0.2269812054689968 0  0.3554582346764377 0.4236292557112198 0  0.3328979939923831 0.425459320867588 0  0.3460368767112177 0.4435398346083328 0  0.3238464003
[...]
<PointData  Vectors="$u$"> 
<DataArray  type="Float64"  Name="$u$"  NumberOfComponents="3" format="ascii">-1.5391668529255088e-04 1.2899954816370058e-03 0.0000000000000000e+00  -2.8094955940727165e-04 2.1337925051510814e-03 0.0000000000000000e+00  -1.4252785015118720e-04 2.9858289308956781e-03 0.0000000000000000e+00  1.0453207797124019e-04 5.2500000000000003e-03 0.0000000000000000e+00  -1.5313825491197228e-03 5.2500000000000003e-03 0.0000000000000000e+00  -1.3331163653403982e-03 3.9566559802577230e-03 0.0000000000000000e+00  -1.3436640754364117e-03 2.2679885977157739e-03 0.0000000000000000e+00  -1.5883678862856577e-03 0.0000000000000000e+00 0.0000000000000000e+00  0.0000000000000000e+00 0.0000000000000000e+00 0.0000000000000000e+00  -1.8022558167195811e-04 1.3946063497660517e-03 0.0000000000000000e+00  -2.3510742727029794e-04 1.5753808297434553e-03 0.0000000000000000e+00  -2.6848816486288864e-04 1.8346871255577554e-03 0.0000000000000000e+00  -2.6507929872242070e-04 2.4377442361389625e-03 0.0000000000000000e+00  -2.2578970624844184e-04 2.6943953720412164e-03 0.0000000000000000e+00  -1.7117557117774787e-04 2.8782709618878784e-03 0.0000000000000000e+00  1.0448981952659472e-04 5.1269939658576584e-03 0.0000000000000000e+00  1.0434639981659457e-04 5.0040894826432021e-03 0.0000000000000000e+00  1.0407223541822761e-04 4.8812853250461514e-03 0.0000000000000000e+00  1.0371401426022288e-04 4.7586916355040736e-03 0.0000000000000000e+00  1.0320375474092763e-04 4.6363619320972183e-03 0.0000000000000000e+00  1.0257460513100948e-04 4.5144449020979045e-03 0.0000000000000000e+00  1.0171424236583599e-04 4.3929279511611859e-03 0.0000000000000000e+00  1.0073607858452480e-04 4.2719879794257520e-03 0.0000000000000000e+00  9.9451750983056713e-05 4.1517386536429318e-03 0.0000000000000000e+00  9.8023171996180366e-05 4.0324261424072106e-03 0.0000000000000000e+00  9.5993606589683675e-05 3.9141087791461637e-03 0.0000000000000000e+00  9.3937726879677764e-05 3.7970821784888073e-03 0.0000000000000000e+00  9.1003393658394466e-05 3.6819559628181323e-03 0.0000000000000000e+00  8.7610168270577752e-05 3.5688199295575932e-03 0.0000000000000000e+00  8.3220951624415207e-05 3.4585517461088360e-03 0.0000000000000000e+00  7.7762630411160332e-05 3.3524703589951025e-03 0.0000000000000000e+00  6.9921621306721007e-05 3.2517409534250003e-03 0.0000000000000000e+00  5.9340360742008765e-05 3.1591975424428470e-03 0.0000000000000000e+00  4.2606924941416215e-05 3.0779788724375010e-03 0.0000000000000000e+00  1.5216984863674198e-05 3.0166398010384953e-03 0.0000000000000000e+00  -3.5378997924336270e-05 2.9823172347633055e-03 0.0000000000000000e+00  -1.4955859629420273e-03 5.2500000000000003e-03 0.0000000000000000e+00  -1.4592895672107605e-03 5.2500000000000003e-03 0.0000000000000000e+00  -1.4222202210086624e-03 5.2500000000000003e-03 0.0000000000000000e+00  -1.3840868979342039e-03 5.2500000000000003e-03 0.0000000000000000e+00  -1.3447852735598126e-03 5.2500000000000003e-03 0.0000000000000000e+00  -1.3043383522463111e-03 5.2500000000000003e-03 0.0000000000000000e+00  -1.2628158994651348e-03 5.2500000000000003e-03 0.0000000000000000e+00  -1.2203238169122986e-03 5.2500000000000003e-03 0.0000000000000000e+00  -1.1772322808792882e-03 5.2500000000000003e-03 0.0000000000000000e+00  -1.1335398906433627e-03 5.2500000000000003e-03 0.0000000000000000e+00  -1.0895386531733057e-03 5.2500000000000003e-03 0.0000000000000000e+00  -1.0453488400586017e-03 5.2500000000000003e-03 0.0000000000000000e+00  -1.0011320453720363e-03 5.2500000000000003e-03 0.0000000000000000e+00  -9.5693709951163400e-04 5.2500000000000003e-03 0.0000000000000000e+00  -9.1288551048373287e-04 5.2500000000000003e-03 0.0000000000000000e+00  -8.6899020002450297e-04 5.2500000000000003e-03 0.0000000000000000e+00  -8.2529140109993194e-04 5.2500000000000003e-03 0.0000000000000000e+00  -7.8180717166611582e-04 5.2500000000000003e-03 0.0000000000000000e+00  -7.3853490514104285e-04 5.2500000000000003e-03 0.0000000000000000e+00  -6.9548104774622707e-04 5.2500000000000003e-03 0.0000000000000000e+00  -6.5264636762546100e-04 5.2500000000000003e-03 0.0000000000000000e+00  -6.1002163162890118e-04 5.2500000000000003e-03 0.0000000000000000e+00  -5.6762189687005601e-04 5.2500000000000003e-03 0.0000000000000000e+00  -5.2543927969747682e-04 5.2500000000000003e-03 0.0000000000000000e+00  -4.8350512100075679e-04 5.2500000000000003e-03 0.0000000000000000e+00  -4.4181352134553932e-04 5.2500000000000003e-03 0.0000000000000000e+00  -4.0040545709227695e-04 5.2500000000000003e-03 0.0000000000000000e+00  -3.5930239907234801e-04 5.2500000000000003e-03 0.0000000000000000e+00  -3.1851874301578529e-04 5.2500000000000003e-03 0.0000000000000000e+00  -2.7811370770641086e-04 5.2500000000000003e-03 0.0000000000000000e+00  -2.3808468026563436e-04 5.2500000000000003e-03 0.0000000000000000e+00  -1.9847047181245877e-04 5.2500000000000003e-03 0.0000000000000000e+00  -1.5929270873818929e-04 5.2500000000000003e-03 0.0000000000000000e+00  -1.2053926463397221e-04 5.2500000000000003e-03 0.0000000000000000e+00  -8.2214113270204139e-05 5.2500000000000003e-03 0.0000000000000000e+00  -4.4285934997002884e-05 5.2500000000000003e-03 0.0000000000000000e+00  -6.7187398533344706e-06 5.2500000000000003e-03 0.0000000000000000e+00  3.0557552257628312e-05 5.2500000000000003e-03 0.0000000000000000e+00  6.7607292557068420e-05 5.2500000000000003e-03 0.0000000000000000e+00  -1.4363184801679809e-03 3.9525201264102817e-03 0.0000000000000000e+00  -1.4806745541761357e-03 3.9859211669157702e-03 0.0000000000000000e+00  -1.5044395790462068e-03 4.0498627263781204e-03 0.0000000000000000e+00  -1.5161492429619612e-03 4.1318721746487503e-03 0.0000000000000000e+00  -1.5231232216056936e-03 4.2252246157317075e-03 0.0000000000000000e+00  -1.5265933694293252e-03 4.3280594811338797e-03 0.0000000000000000e+00  -1.5293603119144379e-03 4.4347156397370304e-03 0.0000000000000000e+00  -1.5300764246046689e-03 4.5461911839927063e-03 0.0000000000000000e+00  -1.5311119847617150e-03 4.6601823107873842e-03 0.0000000000000000e+00  -1.5312503439917800e-03 4.7759509720899634e-03 0.0000000000000000e+00  -1.5314271264960234e-03 4.8933694582962723e-03 0.0000000000000000e+00  -1.5313794752848551e-03 5.0117576277961288e-03 0.0000000000000000e+00  -1.5314395309015969e-03 5.1307093127286327e-03 0.0000000000000000e+00  -1.2980413577499215e-03 3.8307795533412616e-03 0.0000000000000000e+00  -1.2359587842279464e-03 3.6099307264733701e-03 0.0000000000000000e+00  -1.2100682901965421e-03 3.2822709668029852e-03 0.0000000000000000e+00  -1.2126518585566680e-03 2.9526478613623786e-03 0.0000000000000000e+00  -1.2382761155260405e-03 2.6087650504249831e-03 0.0000000000000000e+00  -1.3106900418996140e-03 2.4002775406202674e-03 0.0000000000000000e+00  -1.5883275098386291e-03 1.2306564905481532e-04 0.0000000000000000e+00  -1.5881739228372075e-03 2.4606334195760956e-04 0.0000000000000000e+00  -1.5879227464150087e-03 3.6892635669625630e-04 0.0000000000000000e+00  -1.5875587825511699e-03 4.9160810974595325e-04 0.0000000000000000e+00  -1.5870647650162578e-03 6.1398168211073507e-04 0.0000000000000000e+00  -1.5864260219567757e-03 7.3604101360565523e-04 0.0000000000000000e+00  -1.5856349175194654e-03 8.5759321286373567e-04 0.0000000000000000e+00  -1.5846224264248344e-03 9.7865286177144131e-04 0.0000000000000000e+00  -1.5834356827295040e-03 1.0989134008474732e-03 0.0000000000000000e+00  -1.5818737027473485e-03 1.2183853914653846e-03 0.0000000000000000e+00  -1.5800603554759769e-03 1.3369053638961730e-03 0.0000000000000000e+00  -1.5779143129945241e-03 1.4537986499424044e-03 0.0000000000000000e+00  -1.5749740984657527e-03 1.5693359703433691e-03 0.0000000000000000e+00  -1.5718049988614753e-03 1.6824787973468394e-03 0.0000000000000000e+00  -1.5672859717909505e-03 1.7929063965873818e-03 0.0000000000000000e+00  -1.5619698539250501e-03 1.8991664889413083e-03 0.0000000000000000e+00  -1.5537751575051344e-03 2.0002629065587322e-03 0.0000000000000000e+00  -1.5445163668375659e-03 2.0942855706971744e-03 0.0000000000000000e+00  -1.5261650124445327e-03 2.1731597447077586e-03 0.0000000000000000e+00  -1.5026551137284892e-03 2.2404120499890400e-03 0.0000000000000000e+00  -1.4482831870793540e-03 2.2684003764169478e-03 0.0000000000000000e+00  0.0000000000000000e+00 0.0000000000000000e+00 0.0000000000000000e+00  0.0000000000000000e+00 0.0000000000000000e+00 0.0000000000000000e+00  -6.2982228550147830e-05 0.0000000000000000e+00 0.0000000000000000e+00  -9.4672273568532618e-05 0.0000000000000000e+00 0.0000000000000000e+00  -1.3729865283664504e-04 0.0000000000000000e+00 0.0000000000000000e+00  -1.7796199579622074e-04 0.0000000000000000e+00 0.0000000000000000e+00  -2.1952998121726989e-04 0.0000000000000000e+00 0.0000000000000000e+00  -2.6229922282984135e-04 0.0000000000000000e+00 0.0000000000000000e+00  -3.0559402845515210e-04 0.0000000000000000e+00 0.0000000000000000e+00  -3.4938801478038011e-04 0.0000000000000000e+00 0.0000000000000000e+00  -3.9352637793003980e-04 0.0000000000000000e+00 0.0000000000000000e+00  -4.3779909153491084e-04 0.0000000000000000e+00 0.0000000000000000e+00  -4.8212352245211509e-04 0.0000000000000000e+00 0.0000000000000000e+00  -5.2638526286505631e-04 0.0000000000000000e+00 0.0000000000000000e+00  -5.7051789962194648e-04 0.0000000000000000e+00 0.0000000000000000e+00  -6.1446433306846528e-04 0.0000000000000000e+00 0.0000000000000000e+00  -6.5821871498280453e-04 0.0000000000000000e+00 0.0000000000000000e+00  -7.0174419861959042e-04 0.0000000000000000e+00 0.0000000000000000e+00  -7.4505066027456303e-04 0.0000000000000000e+00 0.0000000000000000e+00  -7.8813992927683862e-04 0.0000000000000000e+00 0.0000000000000000e+00  -8.3099983650150664e-04 0.0000000000000000e+00 0.0000000000000000e+00  -8.7363792767883395e-04 0.0000000000000000e+00 0.0000000000000000e+00  -9.1605771690724956e-04 0.0000000000000000e+00 0.0000000000000000e+00  -9.5824146259534417e-04 0.0000000000000000e+00 0.0000000000000000e+00  -1.0001947008571731e-03 0.0000000000000000e+00 0.0000000000000000e+00  -1.0418806524893943e-03 0.0000000000000000e+00 0.0000000000000000e+00  -1.0832976419209127e-03 0.0000000000000000e+00 0.0000000000000000e+00  -1.1244037232565631e-03 0.0000000000000000e+00 0.0000000000000000e+00  -1.1651899623714818e-03 0.0000000000000000e+00 0.0000000000000000e+00  -1.2055899036643269e-03 0.0000000000000000e+00 0.0000000000000000e+00  -1.2456378701632741e-03 0.0000000000000000e+00 0.0000000000000000e+00  -1.2852340121992070e-03 0.0000000000000000e+00 0.0000000000000000e+00  -1.3244384961548586e-03 0.0000000000000000e+00 0.0000000000000000e+00  -1.3631943304552156e-03 0.0000000000000000e+00 0.0000000000000000e+00  -1.4015218054748064e-03 0.0000000000000000e+00 0.0000000000000000e+00  -1.4394734955773347e-03 0.0000000000000000e+00 0.0000000000000000e+00  -1.4770530849954793e-03 0.0000000000000000e+00 0.0000000000000000e+00  -1.5143485380376589e-03 0.0000000000000000e+00 0.0000000000000000e+00  -1.5514191075695839e-03 0.0000000000000000e+00 0.0000000000000000e+00  -4.8854403887779934e-05 1.2922707318475976e-03 0.0000000000000000e+00  -4.3791375021130332e-06 1.2610732230324228e-03 0.0000000000000000e+00  1.9342118341857688e-05 1.1954698838095568e-03 0.0000000000000000e+00  3.2383777981247165e-05 1.1151440699187307e-03 0.0000000000000000e+00  3.8697845085300613e-05 1.0215962364030098e-03 0.0000000000000000e+00  4.2974546977988279e-05 9.1954361219674262e-04 0.0000000000000000e+00  4.5148436613540754e-05 8.1259704866078924e-04 0.0000000000000000e+00  4.6398212542531066e-05 7.0129829847227537e-04 0.0000000000000000e+00  4.7353364985145106e-05 5.8757650749752255e-04 0.0000000000000000e+00  4.7553938594672020e-05 4.7094813751013132e-04 0.0000000000000000e+00  4.8182966130008718e-05 3.5590109747393614e-04 0.0000000000000000e+00  4.6932217526384835e-05 2.3348586233447099e-04 0.0000000000000000e+00  4.7735971366811229e-05 1.2748385653989306e-04 0.0000000000000000e+00  -3.1530667089150409e-04 2.2468648611741636e-03 0.0000000000000000e+00  -8.1334654005858461e-04 1.1361966529870432e-04 0.0000000000000000e+00  -6.7417819320854107e-04 5.1350804967462615e-03 0.0000000000000000e+00  -1.2120221370570264e-03 2.8820568141799457e-03 0.0000000000000000e+00  5.2727434439784404e-05 3.3976430408036470e-03 0.0000000000000000e+00  -1.5385827033724110e-03 1.7315478294857487e-03 0.0000000000000000e+00  -5.9285310071126480e-04 1.1564681515926895e-04 0.0000000000000000e+00  -8.9080132707018949e-04 5.1338908462597484e-03 0.0000000000000000e+00  -4.6052088461891546e-04 5.1410935744432241e-03 0.0000000000000000e+00  -1.0209902986432725e-03 1.0912818217754954e-04 0.0000000000000000e+00  -1.2210662716527830e-03 3.3518156430585142e-03 0.0000000000000000e+00  -2.2427654306690268e-04 1.7940454698112203e-03 0.0000000000000000e+00  6.2084126833922241e-05 3.9552429169151006e-03 0.0000000000000000e+00  -3.7158199692647443e-04 1.1109865968367994e-04 0.0000000000000000e+00  -1.1114552936021811e-03 5.1411284750617625e-03 0.0000000000000000e+00  -1.5513759803067505e-03 1.2910675749487645e-03 0.0000000000000000e+00  -2.9832422283863804e-04 5.1446929419656012e-03 0.0000000000000000e+00  -1.1834208549931376e-03 1.1473555806384132e-04 0.0000000000000000e+00  1.4054111221185088e-05 9.8023930630593194e-04 0.0000000000000000e+00  -1.4985547730673218e-03 4.2658040035715517e-03 0.0000000000000000e+00  6.6822432322085877e-05 4.4478388960089753e-03 0.0000000000000000e+00  -1.5569073136395227e-03 7.9731992121850133e-04 0.0000000000000000e+00  -2.0230642014784869e-04 1.0530372655278059e-04 0.0000000000000000e+00  -1.2776799277095865e-03 5.1395378744859607e-03 0.0000000000000000e+00  -1.4184632246181029e-04 5.1362863471508917e-03 0.0000000000000000e+00  -1.3438192282274005e-03 1.0921735045535051e-04 0.0000000000000000e+00  2.8262860580769303e-05 3.0927870976063037e-03 0.0000000000000000e+00  -1.5258363880429303e-03 2.0570509446814619e-03 0.0000000000000000e+00  1.5138646177768707e-05 6.4450744390071534e-04 0.0000000000000000e+00  -1.4996763877989908e-03 4.5857995938953146e-03 0.0000000000000000e+00  -1.4746414559344545e-03 3.9844187547671585e-03 0.0000000000000000e+00  -1.5579775101022871e-03 4.3227987241690796e-04 0.0000000000000000e+00  7.4966621190082012e-05 4.8199381118155657e-03 0.0000000000000000e+00  -9.0145280784907161e-06 1.2629896435757547e-03 0.0000000000000000e+00  -8.0558436512456427e-05 1.0445266285032698e-04 0.0000000000000000e+00  -1.4031798177272861e-03 5.1608827098037127e-03 0.0000000000000000e+00  -1.2429111707264604e-04 2.7039407161206343e-03 0.0000000000000000e+00  -2.8785506487044958e-05 5.1427613178506556e-03 0.0000000000000000e+00  -1.4582723194747377e-03 1.0756501001453180e-04 0.0000000000000000e+00  5.9882057709729235e-05 3.6179848134251275e-03 0.0000000000000000e+00  -1.4990568317600906e-03 2.2367788763765569e-03 0.0000000000000000e+00  -4.6063277962930544e-04 1.2939660044870800e-04 0.0000000000000000e+00  -6.8019347230151869e-04 1.1553874176974360e-04 0.0000000000000000e+00  -8.9802462263326372e-04 1.0428730002121656e-04 0.0000000000000000e+00  -7.5895184028159052e-04 5.1379973948492957e-03 0.0000000000000000e+00  -5.8901581602331958e-04 5.1354152159311410e-03 0.0000000000000000e+00  -1.0229125246633346e-03 5.1346347394526605e-03 0.0000000000000000e+00  -3.7674441963517284e-04 5.1436532421658314e-03 0.0000000000000000e+00  -2.8408311301292001e-04 1.0819618487788696e-04 0.0000000000000000e+00  -1.1038334740937504e-03 1.1268340376429848e-04 0.0000000000000000e+00  1.6916282160982545e-05 4.1606074997456108e-04 0.0000000000000000e+00  -1.2045564310921499e-03 5.1382823182947093e-03 0.0000000000000000e+00  -2.1827622142254972e-04 5.1395809174074039e-03 0.0000000000000000e+00  -1.5534414231634509e-03 1.0364491210706624e-03 0.0000000000000000e+00  -1.5441906554000957e-03 1.5274678648166304e-03 0.0000000000000000e+00  -1.5037611534462053e-03 4.8330812005233526e-03 0.0000000000000000e+00  -1.2654470668253459e-03 1.0854084098462177e-04 0.0000000000000000e+00  6.9636120610720517e-05 4.2072639107226086e-03 0.0000000000000000e+00  -1.3472651514519905e-03 2.6769437339239544e-03 0.0000000000000000e+00  -1.2756041315086372e-03 2.7743203106842516e-03 0.0000000000000000e+00  -1.2022318097205504e-03 2.9210800638511504e-03 0.0000000000000000e+00  -1.2387954554651953e-03 2.8475637370848775e-03 0.0000000000000000e+00  -1.1779742142030650e-03 2.9777251365923638e-03 0.0000000000000000e+00  -1.2080842108566580e-03 2.8676086407473178e-03 0.0000000000000000e+00  -1.1659222728926642e-03 2.9888540906244641e-03 0.0000000000000000e+00  -1.1789806790201585e-03 2.8928865155007865e-03 0.0000000000000000e+00  -1.1479858367133809e-03 3.0095667746268847e-03 0.0000000000000000e+00  -1.1538067937624018e-03 2.9106145151149595e-03 0.0000000000000000e+00  -1.1290828149258072e-03 3.0209618113658898e-03 0.0000000000000000e+00  -1.1289007740111136e-03 2.9223445422752892e-03 0.0000000000000000e+00  -1.1073958316891825e-03 3.0343221761056894e-03 0.0000000000000000e+00  -1.1032159894606927e-03 2.9330803081483617e-03 0.0000000000000000e+00  -1.0837546536004671e-03 3.0447897514086233e-03 0.0000000000000000e+00  -1.0763696087448915e-03 2.9485698173796369e-03 0.0000000000000000e+00  -1.0581529307240021e-03 3.0574844886308837e-03 0.0000000000000000e+00  -1.0487050183287257e-03 2.9604741752375565e-03 0.0000000000000000e+00  -1.0313309567154291e-03 3.0684307497938108e-03 0.0000000000000000e+00  -1.0203919836570593e-03 2.9718889829148574e-03 0.0000000000000000e+00  -1.0400766904850186e-03 2.8639888506865390e-03 0.0000000000000000e+00  -1.0102383590297839e-03 2.8750166619458321e-03 0.0000000000000000e+00  -9.9127899667911896e-04 2.9826006356671077e-03 0.0000000000000000e+00  -9.7998549338171727e-04 2.8864190062249796e-03 0.0000000000000000e+00  -9.6153681097254197e-04 2.9937443846809377e-03 0.0000000000000000e+00  -9.4941803112510385e-04 2.8973904496154409e-03 0.0000000000000000e+00  -9.6831631622896575e-04 2.7851671724282157e-03 0.0000000000000000e+00  -9.3730041513091994e-04 2.8009360235840934e-03 0.0000000000000000e+00  -9.1849138488522570e-04 2.9080465929595891e-03 0.0000000000000000e+00  -9.0615876579287888e-04 2.8079212929984091e-03 0.0000000000000000e+00  -8.8728707657355029e-04 2.9181585672852033e-03 0.0000000000000000e+00  -8.7451076986186783e-04 2.8182025689695474e-03 0.0000000000000000e+00  -8.5579025277328444e-04 2.9281041526110318e-03 0.0000000000000000e+00  -8.4249592498343399e-04 2.8345613279846778e-03 0.0000000000000000e+00  -8.2401873762901249e-04 2.9395979056300271e-03 0.0000000000000000e+00  -8.1050278620079040e-04 2.8466293326750202e-03 0.0000000000000000e+00  -7.9202508237649150e-04 2.9511986408518407e-03 0.0000000000000000e+00  -7.7844221520566878e-04 2.8566516592774538e-03 0.0000000000000000e+00  -7.5987617787746627e-04 2.9619018172850602e-03 0.0000000000000000e+00  -7.4627783595345039e-04 2.8672814317590597e-03 0.0000000000000000e+00  -7.2748229397248784e-04 2.9727202337587462e-03 0.0000000000000000e+00  -7.6514413882214545e-04 2.7620356521708671e-03 0.0000000000000000e+00  -7.3302685712997270e-04 2.7726787741482934e-03 0.0000000000000000e+00  -9.2475116272406125e-04 2.6889743937785577e-03 0.0000000000000000e+00  -7.5203690978184543e-04 2.6676835830786423e-03 0.0000000000000000e+00  -7.1997996772062340e-04 2.6781826589073339e-03 0.0000000000000000e+00  -7.3905870919275770e-04 2.5733233594088228e-03 0.0000000000000000e+00  -7.0709853626203193e-04 2.5836933296745769e-03 0.0000000000000000e+00  -7.2574711029357614e-04 2.4796336404122130e-03 0.0000000000000000e+00  -6.9410590723700870e-04 2.4894863625196410e-03 0.0000000000000000e+00  -7.1263406109925106e-04 2.3851638031659821e-03 0.0000000000000000e+00  -6.8097745135527730e-04 2.3950162599466595e-03 0.0000000000000000e+00  -6.6222757649413968e-04 2.4992828608707317e-03 0.0000000000000000e+00  -6.9900436127653866e-04 2.2911684275835772e-03 0.0000000000000000e+00  -6.6760128044361330e-04 2.3008534116868472e-03 0.0000000000000000e+00  -8.0640051720329514e-04 3.0447544899409925e-03 0.000000000000