<?xml version="1.0"?>
<VTKFile type="UnstructuredGrid"  version="0.1"  >
<UnstructuredGrid>
<Piece  NumberOfPoints="2165" NumberOfCells="4161">
<Points>
<DataArray  type="Float64"  NumberOfComponents="3"  format="ascii">-3.598637933768527e-16 0.3500000000000001 0  0.05 0.4 0  -3.537405593811159e-16 0.45 0  0 1 0  1 1 0  0.9999999999999997 0.65 0  0.9999999999999997 0.5499999999999999 0  1 0 0  0 0 0  0.0191341716182545 0.3538060233744357 0  0.03535533905932737 0.3646446609406727 0  0.04619397662556433 0.3808658283817455 0  0.04619397662556434 0.4191341716182545 0  0.03535533905932738 0.4353553390593274 0  0.01913417161825449 0.4461939766255644 0  0 0.975 0  0 0.95 0  0 0.9249999999999999 0  0 0.8999999999999998 0  0 0.8749999999999998 0  0 0.8499999999999998 0  0 0.8249999999999997 0  0 0.7999999999999996 0  0 0.7749999999999996 0  0 0.7499999999999996 0  0 0.7249999999999996 0  0 0.6999999999999997 0  0 0.6749999999999998 0  0 0.6499999999999999 0  0 0.6249999999999999 0  0 0.6 0  0 0.575 0  0 0.5499999999999998 0  0 0.5249999999999999 0  0 0.4999999999999998 0  0 0.4749999999999999 0  0.975 1 0  0.95 1 0  0.925 1 0  0.9 1 0  0.875 1 0  0.85 1 0  0.825 1 0  0.8 1 0  0.775 1 0  0.75 1 0  0.725 1 0  0.7 1 0  0.675 1 0  0.65 1 0  0.625 1 0  0.6 1 0  0.575 1 0  0.55 1 0  0.525 1 0  0.5 1 0  0.475 1 0  0.45 1 0  0.425 1 0  0.4 1 0  0.375 1 0  0.35 1 0  0.325 1 0  0.3 1 0  0.275 1 0  0.25 1 0  0.225 1 0  0.2 1 0  0.175 1 0  0.15 1 0  0.125 1 0  0.09999999999999998 1 0  0.07499999999999996 1 0  0.05000000000000004 1 0  0.02500000000000002 1 0  1 0.675 0  1 0.7000000000000001 0  1 0.7250000000000001 0  1 0.7500000000000001 0  1 0.7750000000000001 0  1 0.8000000000000002 0  1 0.8250000000000002 0  1 0.8500000000000002 0  1 0.8750000000000003 0  1 0.9000000000000001 0  1 0.9250000000000002 0  1 0.9500000000000001 0  1 0.9750000000000001 0  0.9783058130441221 0.6450484433951209 0  0.9609084258765985 0.6311744900929367 0  0.9512536043909088 0.6111260466978157 0  0.9512536043909088 0.5888739533021843 0  0.9609084258765985 0.5688255099070633 0  0.9783058130441221 0.554951556604879 0  1 0.02500000000000002 0  1 0.05000000000000004 0  1 0.07500000000000008 0  1 0.1000000000000001 0  1 0.1250000000000001 0  1 0.1500000000000002 0  1 0.1750000000000002 0  1 0.2000000000000003 0  1 0.2250000000000003 0  1 0.2500000000000004 0  1 0.2750000000000004 0  1 0.3000000000000003 0  1 0.3250000000000002 0  1 0.3500000000000001 0  1 0.3750000000000001 0  1 0.3999999999999999 0  1 0.425 0  1 0.45 0  1 0.475 0  1 0.5000000000000001 0  1 0.5249999999999999 0  0.025 0 0  0.05 0 0  0.075 0 0  0.1 0 0  0.125 0 0  0.15 0 0  0.175 0 0  0.2 0 0  0.225 0 0  0.25 0 0  0.275 0 0  0.3 0 0  0.325 0 0  0.35 0 0  0.375 0 0  0.4 0 0  0.425 0 0  0.45 0 0  0.475 0 0  0.5 0 0  0.525 0 0  0.55 0 0  0.575 0 0  0.6 0 0  0.625 0 0  0.65 0 0  0.675 0 0  0.7 0 0  0.725 0 0  0.75 0 0  0.775 0 0  0.8 0 0  0.825 0 0  0.85 0 0  0.875 0 0  0.9 0 0  0.925 0 0  0.95 0 0  0.975 0 0  0 0.3250000000000001 0  0 0.3 0  0 0.275 0  0 0.2499999999999999 0  0 0.2249999999999999 0  0 0.1999999999999998 0  0 0.1749999999999998 0  0 0.1499999999999998 0  0 0.1249999999999998 0  0 0.09999999999999987 0  0 0.07499999999999984 0  0 0.04999999999999993 0  0 0.02500000000000002 0  0.06453325334544308 0.4134708543086404 0  0.5146839915088474 0.02134387884913819 0  0.4875871001393628 0.9784117024331356 0  0.9386300160094723 0.5701776715936071 0  0.0216506350946109 0.6124999999999999 0  0.9764205887290853 0.3596067946540696 0  0.3876261045932067 0.02156097490657183 0  0.6125 0.978349364905389 0  0.3612127461797463 0.9792371404802113 0  0.6374786650398092 0.02079982608537345 0  0.9387185538472446 0.6295115890709873 0  0.05482260092545593 0.3633687091864355 0  0.02445354803948679 0.7343198207875321 0  0.2624888813627476 0.02091671348578122 0  0.7375212991274043 0.9794996488945376 0  0.9793010831723812 0.2648509348664836 0  0.2625026480689301 0.9795699185263282 0  0.7362840788105066 0.02225211062275217 0  0.02159327910297104 0.2128861809896528 0  0.9786837570973538 0.7867241244631172 0  0.02419728000065929 0.8365600234152764 0  0.980043283615984 0.1624097203408714 0  0.1645857434226354 0.0205513501962844 0  0.8339481359352011 0.9784483546369231 0  0.1637584777222821 0.9774556328160621 0  0.8374916614314967 0.02165097219510076 0  0.02171915379676059 0.5370700005916152 0  0.9795335762511281 0.4365726939225819 0  0.02319480745007968 0.1370197632171214 0  0.9774462976085161 0.8592616917551974 0  0.9786941241076723 0.7122511101067891 0  0.9797883857882621 0.08781864217752949 0  0.01966314788989931 0.9125801876811624 0  0.02051815350151098 0.2882126194470174 0  0.09063226699593246 0.0214884092697174 0  0.9124408843562394 0.9818463395009377 0  0.03872465516591678 0.452731089005145 0  0.08969424365256845 0.978412979507602 0  0.9124999999999999 0.02165063509461096 0  0.02158104789437187 0.6619299176372371 0  0.9796602354625652 0.4859004208706154 0  0.3127517983598529 0.02417963694738812 0  0.4375629605000894 0.02158039900821679 0  0.5643674594196073 0.01968996000301126 0  0.5368361594956101 0.9790428840407062 0  0.4376176251051295 0.9783667484208922 0  0.6874072695660477 0.978435143102373 0  0.310604317388614 0.979558305560928 0  0.2125577044121564 0.02066685543111635 0  0.6875 0.0216506350946109 0  0.02224009810917643 0.08811420611559456 0  0.790876428529276 0.978633065284896 0  0.2125 0.978349364905389 0  0.9788033534786624 0.2116925349935155 0  0.9769441169344462 0.3150381335760689 0  0.9804648376981185 0.9123186437266726 0  0.7874999988222203 0.02127957051165741 0  0.02109233852270731 0.786866823287435 0  0.9483709287873718 0.5504073206521916 0  0.9259842326464427 0.5519702047534598 0  0.9163209045278007 0.5719292915927929 0  0.9035374059862284 0.5537291796040291 0  0.8938951918780048 0.5738949757882954 0  0.8807940177559743 0.5546750869516996 0  0.8712661812741653 0.5757142549099102 0  0.8580668865514332 0.5563902430113601 0  0.848508161986991 0.5779004013072002 0  0.8354274200119249 0.5591176379057713 0  0.8256349826905482 0.5800610629400762 0  0.8124123591208572 0.5604454546391737 0  0.802603410938817 0.5819653950592523 0  0.7892876429890218 0.562234610648543 0  0.7794355871850538 0.583896242519796 0  0.7661469824381839 0.5648243426306435 0  0.7562387679604726 0.5860005456930413 0  0.7429651600512166 0.5669367633461588 0  0.7330846968880171 0.5879590907760761 0  0.7198577999459205 0.5688986880627463 0  0.7297050500533544 0.5479561801187277 0  0.7066243396993471 0.5499068108517552 0  0.6968285086900206 0.5707989520567972 0  0.6836266810714333 0.5519088927359967 0  0.6738604685766018 0.5727655091567184 0  0.6607284761452521 0.5538781923028128 0  0.6697149783704412 0.5321140554135094 0  0.6473436039782401 0.5350050604671006 0  0.6378867365666199 0.5557804038095817 0  0.6246915360243652 0.5362124690568238 0  0.6151175309583405 0.5575933164645619 0  0.6019784180102355 0.5380659376543677 0  0.5924099113505394 0.5593739656462906 0  0.5794110962027638 0.541110021814312 0  0.5697985396917309 0.5614600003719357 0  0.5568468707330213 0.5433212932327446 0  0.5472634011377896 0.5635652141280936 0  0.5343236363495072 0.5451361960661517 0  0.5247877773262166 0.565493591892781 0  0.5118927934227436 0.5470665328397559 0  0.5023398230005425 0.5674381114577953 0  0.5213991904098014 0.5267047787870831 0  0.4990390504096661 0.528649139287786 0  0.6328887517229864 0.5131744321062524 0  0.5085133205790763 0.5083322037773296 0  0.4861972978925295 0.5102540920324363 0  0.4956914791804768 0.4899605513008993 0  0.4734139980312694 0.4918582759645476 0  0.4826986629698439 0.4717164019717278 0  0.460570567761715 0.473509155475794 0  0.4699344541058981 0.4533140529328089 0  0.4477087341565655 0.4550973130597117 0  0.4381733274019614 0.4752901381741884 0  0.4570222843287571 0.4349938694701042 0  0.4348599018247688 0.436728068420533 0  0.5604623134382263 0.581815997002507 0  0.4443612964408632 0.416499823314016 0  0.422056299386984 0.4183730429856528 0  0.4688721528228815 0.4135009841763965 0  0.4315584877924544 0.398120546824229 0  0.4092288692044618 0.3999974286008185 0  0.7463210599443056 0.6070829843371945 0  0.4187270626688335 0.3797365044773463 0  0.3964262302393312 0.3817184136470017 0  0.3869780036193907 0.4018498778543814 0  0.3742423843122406 0.3837055716372927 0  0.3648701490102072 0.4037049758807119 0  0.3518115403926748 0.3858985036587403 0  0.3426146276710081 0.4056777495658291 0  0.3614541441355358 0.3656396497906528 0  0.339026673715919 0.3678724679736439 0  0.3485566370135618 0.3476560889674916 0  0.3264681821394378 0.3496422822523857 0  0.8219942777991693 0.5379143061758643 0  0.3358297439968608 0.3295117748868035 0  0.3137050884585635 0.3314921667582986 0  0.3229980644152205 0.3113561769498422 0  0.3007986024336577 0.3133063832007756 0  0.3441851868720173 0.3085211458266175 0  0.3101966551534752 0.2930273704914169 0  0.287793053707373 0.2950088132226583 0  0.2914417217227097 0.3337427541189321 0  0.2975120686695638 0.2743682539701985 0  0.274864585256681 0.2764253296978281 0  0.816026571618698 0.6006851919544112 0  0.2844672854128698 0.2557011565880619 0  0.2617267434509338 0.2577713002235077 0  0.3072711221189672 0.2536790056475094 0  0.2521588568690318 0.2785072139143895 0  0.2389277409161178 0.2598761196336353 0  0.248448076747058 0.2389478879785275 0  0.5053822153261678 0.4716915524631118 0  0.229548765875869 0.2806542761043101 0  0.2254561407802683 0.2411354049374563 0  0.2350621310805047 0.2199181955146378 0  0.2117782450160163 0.222165061041625 0  0.2214249125635323 0.2008136877065064 0  0.2448758256083499 0.1985732693215908 0  0.197966291680556 0.2031211006951591 0  0.1883147493074436 0.2245564097761413 0  0.8910637266939049 0.5322898364209732 0  0.1748136087708587 0.2051141748992724 0  0.1842088801696792 0.1837087814679069 0  0.1656574100807746 0.2269812054689968 0  0.3554582346764377 0.4236292557112198 0  0.3328979939923831 0.425459320867588 0  0.3460368767112177 0.4435398346083328 0  0.3238464003
[...]
<PointData  Vectors="$u$"> 
<DataArray  type="Float64"  Name="$u$"  NumberOfComponents="3" format="ascii">-6.5530965979648475e-05 5.5449222740134262e-04 0.0000000000000000e+00  -1.2012315985603854e-04 9.1436609000133853e-04 0.0000000000000000e+00  -6.0761525340860348e-05 1.2776352163233954e-03 0.0000000000000000e+00  4.5018580019366366e-05 2.2500000000000003e-03 0.0000000000000000e+00  -6.5586185036777466e-04 2.2500000000000003e-03 0.0000000000000000e+00  -5.7093778229756428e-04 1.6941247177026089e-03 0.0000000000000000e+00  -5.7484738225758092e-04 9.7369618612755458e-04 0.0000000000000000e+00  -6.7999478039578777e-04 0.0000000000000000e+00 0.0000000000000000e+00  0.0000000000000000e+00 0.0000000000000000e+00 0.0000000000000000e+00  -7.6465210259707086e-05 5.9937250832013027e-04 0.0000000000000000e+00  -9.8589215241298134e-05 6.7817723646566039e-04 0.0000000000000000e+00  -1.1398786609939891e-04 7.8857167089819622e-04 0.0000000000000000e+00  -1.1244786385437138e-04 1.0419069188756598e-03 0.0000000000000000e+00  -9.4767058061425590e-05 1.1518489612618618e-03 0.0000000000000000e+00  -7.2475295023834613e-05 1.2312538095210911e-03 0.0000000000000000e+00  4.4999712194409730e-05 2.1972475027427804e-03 0.0000000000000000e+00  4.4938605638431965e-05 2.1445355838026377e-03 0.0000000000000000e+00  4.4823259964918422e-05 2.0918676425037966e-03 0.0000000000000000e+00  4.4673166929200278e-05 2.0392867864534540e-03 0.0000000000000000e+00  4.4458635921386140e-05 1.9868272645074481e-03 0.0000000000000000e+00  4.4189039311703429e-05 1.9345283614649979e-03 0.0000000000000000e+00  4.3831633182190166e-05 1.8824076209489381e-03 0.0000000000000000e+00  4.3412858272526045e-05 1.8305371045045332e-03 0.0000000000000000e+00  4.2873849958102280e-05 1.7789495527705127e-03 0.0000000000000000e+00  4.2267275982274774e-05 1.7277671089673656e-03 0.0000000000000000e+00  4.1413557807396388e-05 1.6769980920502254e-03 0.0000000000000000e+00  4.0543536187063372e-05 1.6268058495933508e-03 0.0000000000000000e+00  3.9304145672230350e-05 1.5773735145484266e-03 0.0000000000000000e+00  3.7876836993692062e-05 1.5288262087108150e-03 0.0000000000000000e+00  3.6022744172593571e-05 1.4815087833603309e-03 0.0000000000000000e+00  3.3709000360727627e-05 1.4359133213734717e-03 0.0000000000000000e+00  3.0416483314726272e-05 1.3927283713772349e-03 0.0000000000000000e+00  2.5890013231862571e-05 1.3528205814946810e-03 0.0000000000000000e+00  1.8802907752189457e-05 1.3181028434772586e-03 0.0000000000000000e+00  7.1186127397396347e-06 1.2914296890410297e-03 0.0000000000000000e+00  -1.4445995695670685e-05 1.2767320378777557e-03 0.0000000000000000e+00  -6.4049748796709259e-04 2.2500000000000003e-03 0.0000000000000000e+00  -6.2492968254882907e-04 2.2500000000000003e-03 0.0000000000000000e+00  -6.0902895517741910e-04 2.2500000000000003e-03 0.0000000000000000e+00  -5.9267953116072785e-04 2.2500000000000003e-03 0.0000000000000000e+00  -5.7582954970214527e-04 2.2500000000000003e-03 0.0000000000000000e+00  -5.5850170634813481e-04 2.2500000000000003e-03 0.0000000000000000e+00  -5.4070746469116041e-04 2.2500000000000003e-03 0.0000000000000000e+00  -5.2251187009867955e-04 2.2500000000000003e-03 0.0000000000000000e+00  -5.0405482487826073e-04 2.2500000000000003e-03 0.0000000000000000e+00  -4.8535385532031284e-04 2.2500000000000003e-03 0.0000000000000000e+00  -4.6651134434469677e-04 2.2500000000000003e-03 0.0000000000000000e+00  -4.4759420652369945e-04 2.2500000000000003e-03 0.0000000000000000e+00  -4.2866346397209964e-04 2.2500000000000003e-03 0.0000000000000000e+00  -4.0974532280201866e-04 2.2500000000000003e-03 0.0000000000000000e+00  -3.9088498626083345e-04 2.2500000000000003e-03 0.0000000000000000e+00  -3.7209265944638262e-04 2.2500000000000003e-03 0.0000000000000000e+00  -3.5338372480728594e-04 2.2500000000000003e-03 0.0000000000000000e+00  -3.3476523822783850e-04 2.2500000000000003e-03 0.0000000000000000e+00  -3.1623686169833455e-04 2.2500000000000003e-03 0.0000000000000000e+00  -2.9780167456709434e-04 2.2500000000000003e-03 0.0000000000000000e+00  -2.7945785559836163e-04 2.2500000000000003e-03 0.0000000000000000e+00  -2.6120474984089046e-04 2.2500000000000003e-03 0.0000000000000000e+00  -2.4304522007513493e-04 2.2500000000000003e-03 0.0000000000000000e+00  -2.2497923582057676e-04 2.2500000000000003e-03 0.0000000000000000e+00  -2.0701775549710396e-04 2.2500000000000003e-03 0.0000000000000000e+00  -1.8915885599487406e-04 2.2500000000000003e-03 0.0000000000000000e+00  -1.7142205305921272e-04 2.2500000000000003e-03 0.0000000000000000e+00  -1.5381238479982080e-04 2.2500000000000003e-03 0.0000000000000000e+00  -1.3634082201859524e-04 2.2500000000000003e-03 0.0000000000000000e+00  -1.1902704026897945e-04 2.2500000000000003e-03 0.0000000000000000e+00  -1.0187410088318339e-04 2.2500000000000003e-03 0.0000000000000000e+00  -8.4897583242810653e-05 2.2500000000000003e-03 0.0000000000000000e+00  -6.8105010675462168e-05 2.2500000000000003e-03 0.0000000000000000e+00  -5.1493799259906417e-05 2.2500000000000003e-03 0.0000000000000000e+00  -3.5062701412305994e-05 2.2500000000000003e-03 0.0000000000000000e+00  -1.8801267743466902e-05 2.2500000000000003e-03 0.0000000000000000e+00  -2.6921589817467718e-06 2.2500000000000003e-03 0.0000000000000000e+00  1.3292948044618164e-05 2.2500000000000003e-03 0.0000000000000000e+00  2.9181825182386222e-05 2.2500000000000003e-03 0.0000000000000000e+00  -6.1506985896628210e-04 1.6928700346190157e-03 0.0000000000000000e+00  -6.3449909934572930e-04 1.7072773900175535e-03 0.0000000000000000e+00  -6.4444306678184456e-04 1.7347931864304246e-03 0.0000000000000000e+00  -6.4952488280531936e-04 1.7699263485002298e-03 0.0000000000000000e+00  -6.5234887680466075e-04 1.8103004739473687e-03 0.0000000000000000e+00  -6.5390614883425037e-04 1.8542339935017744e-03 0.0000000000000000e+00  -6.5499186008141587e-04 1.9002085075267407e-03 0.0000000000000000e+00  -6.5533971880117939e-04 1.9479761820126490e-03 0.0000000000000000e+00  -6.5573680872192674e-04 1.9969136368255163e-03 0.0000000000000000e+00  -6.5581945889518366e-04 2.0466221220157704e-03 0.0000000000000000e+00  -6.5587837048739005e-04 2.0969802204725500e-03 0.0000000000000000e+00  -6.5586170800757801e-04 2.1477857645908049e-03 0.0000000000000000e+00  -6.5588052640901161e-04 2.1988207847100645e-03 0.0000000000000000e+00  -5.5559949515255203e-04 1.6402520884625225e-03 0.0000000000000000e+00  -5.3113471931688573e-04 1.5413885393835646e-03 0.0000000000000000e+00  -5.2102865561789861e-04 1.4056683378655831e-03 0.0000000000000000e+00  -5.1757610959030000e-04 1.2668013402438428e-03 0.0000000000000000e+00  -5.3446831657756881e-04 1.1233465126074735e-03 0.0000000000000000e+00  -5.6129332182391087e-04 1.0313352122611236e-03 0.0000000000000000e+00  -6.7997650044151743e-04 5.2780745612368050e-05 0.0000000000000000e+00  -6.7991221181438804e-04 1.0553404346719745e-04 0.0000000000000000e+00  -6.7980474070139410e-04 1.5823061603069191e-04 0.0000000000000000e+00  -6.7965281904910999e-04 2.1084910589821409e-04 0.0000000000000000e+00  -6.7944425105711398e-04 2.6333719619943483e-04 0.0000000000000000e+00  -6.7917487633028346e-04 3.1569020471991190e-04 0.0000000000000000e+00  -6.7884372674362615e-04 3.6783566006744900e-04 0.0000000000000000e+00  -6.7841653804812595e-04 4.1975432156389611e-04 0.0000000000000000e+00  -6.7791158864015063e-04 4.7135181682787542e-04 0.0000000000000000e+00  -6.7725485504995073e-04 5.2262107316235142e-04 0.0000000000000000e+00  -6.7649600065943145e-04 5.7343970629495701e-04 0.0000000000000000e+00  -6.7557652989276118e-04 6.2363164566355293e-04 0.0000000000000000e+00  -6.7434087098827168e-04 6.7320193964669932e-04 0.0000000000000000e+00  -6.7300380855232203e-04 7.2177164173349627e-04 0.0000000000000000e+00  -6.7112584038614160e-04 7.6916077203196772e-04 0.0000000000000000e+00  -6.6878784355253957e-04 8.1482800865045088e-04 0.0000000000000000e+00  -6.6551541669950822e-04 8.5829563394415219e-04 0.0000000000000000e+00  -6.6124193570437761e-04 8.9839144820793616e-04 0.0000000000000000e+00  -6.5389258978378766e-04 9.3300589982910499e-04 0.0000000000000000e+00  -6.4327785346485222e-04 9.6091740048403020e-04 0.0000000000000000e+00  -6.2058861583854036e-04 9.7424797664773103e-04 0.0000000000000000e+00  0.0000000000000000e+00 0.0000000000000000e+00 0.0000000000000000e+00  0.0000000000000000e+00 0.0000000000000000e+00 0.0000000000000000e+00  -2.5199733113670773e-05 0.0000000000000000e+00 0.0000000000000000e+00  -4.0555680330879930e-05 0.0000000000000000e+00 0.0000000000000000e+00  -5.8160839470761248e-05 0.0000000000000000e+00 0.0000000000000000e+00  -7.5733894233819034e-05 0.0000000000000000e+00 0.0000000000000000e+00  -9.3600864486064424e-05 0.0000000000000000e+00 0.0000000000000000e+00  -1.1189386104849613e-04 0.0000000000000000e+00 0.0000000000000000e+00  -1.3044224661791712e-04 0.0000000000000000e+00 0.0000000000000000e+00  -1.4920589792874397e-04 0.0000000000000000e+00 0.0000000000000000e+00  -1.6810260582003907e-04 0.0000000000000000e+00 0.0000000000000000e+00  -1.8706190918971085e-04 0.0000000000000000e+00 0.0000000000000000e+00  -2.0604192949059733e-04 0.0000000000000000e+00 0.0000000000000000e+00  -2.2499238885695120e-04 0.0000000000000000e+00 0.0000000000000000e+00  -2.4388869125626151e-04 0.0000000000000000e+00 0.0000000000000000e+00  -2.6270635025014326e-04 0.0000000000000000e+00 0.0000000000000000e+00  -2.8144039087754489e-04 0.0000000000000000e+00 0.0000000000000000e+00  -3.0007894132981440e-04 0.0000000000000000e+00 0.0000000000000000e+00  -3.1862266759391696e-04 0.0000000000000000e+00 0.0000000000000000e+00  -3.3707475446162624e-04 0.0000000000000000e+00 0.0000000000000000e+00  -3.5542948935227223e-04 0.0000000000000000e+00 0.0000000000000000e+00  -3.7368970317023701e-04 0.0000000000000000e+00 0.0000000000000000e+00  -3.9185678907980784e-04 0.0000000000000000e+00 0.0000000000000000e+00  -4.0992529898777248e-04 0.0000000000000000e+00 0.0000000000000000e+00  -4.2789368711271546e-04 0.0000000000000000e+00 0.0000000000000000e+00  -4.4575057609941434e-04 0.0000000000000000e+00 0.0000000000000000e+00  -4.6349190932093269e-04 0.0000000000000000e+00 0.0000000000000000e+00  -4.8110366241002828e-04 0.0000000000000000e+00 0.0000000000000000e+00  -4.9857588384546309e-04 0.0000000000000000e+00 0.0000000000000000e+00  -5.1588894516845537e-04 0.0000000000000000e+00 0.0000000000000000e+00  -5.3304871020530488e-04 0.0000000000000000e+00 0.0000000000000000e+00  -5.5001972305440433e-04 0.0000000000000000e+00 0.0000000000000000e+00  -5.6682148253150305e-04 0.0000000000000000e+00 0.0000000000000000e+00  -5.8343577754049617e-04 0.0000000000000000e+00 0.0000000000000000e+00  -5.9986755568507556e-04 0.0000000000000000e+00 0.0000000000000000e+00  -6.1613941589045817e-04 0.0000000000000000e+00 0.0000000000000000e+00  -6.3225324775170939e-04 0.0000000000000000e+00 0.0000000000000000e+00  -6.4824833966807874e-04 0.0000000000000000e+00 0.0000000000000000e+00  -6.6414593196722897e-04 0.0000000000000000e+00 0.0000000000000000e+00  -2.0313445894483114e-05 5.5487510350057034e-04 0.0000000000000000e+00  -1.0376953509134739e-06 5.4117363208715512e-04 0.0000000000000000e+00  8.9235430962984621e-06 5.1327274172964087e-04 0.0000000000000000e+00  1.4448292200279201e-05 4.7852802046113039e-04 0.0000000000000000e+00  1.7195436088260088e-05 4.3831625247563074e-04 0.0000000000000000e+00  1.8983879893911974e-05 3.9457876592673521e-04 0.0000000000000000e+00  1.9873752781440886e-05 3.4862455230767671e-04 0.0000000000000000e+00  2.0418672452632586e-05 3.0080358255698544e-04 0.0000000000000000e+00  2.0848556527722019e-05 2.5201041053553698e-04 0.0000000000000000e+00  2.0891224020567576e-05 2.0216798765425521e-04 0.0000000000000000e+00  2.1154794962243841e-05 1.5221821028373143e-04 0.0000000000000000e+00  2.0697173389721982e-05 1.0090311094068365e-04 0.0000000000000000e+00  2.0314032700977284e-05 5.4274801853909073e-05 0.0000000000000000e+00  -1.3255164574012948e-04 9.6223038129679514e-04 0.0000000000000000e+00  -3.4787020439262529e-04 4.8687618520858192e-05 0.0000000000000000e+00  -2.8867824163594400e-04 2.2007548453754672e-03 0.0000000000000000e+00  -5.2253828851504586e-04 1.2324274460408743e-03 0.0000000000000000e+00  2.2919063397912898e-05 1.4553269457691477e-03 0.0000000000000000e+00  -6.5876118500129478e-04 7.4284631961102333e-04 0.0000000000000000e+00  -2.5345427094206535e-04 4.9554206121326306e-05 0.0000000000000000e+00  -3.8142904796649761e-04 2.2002496425397745e-03 0.0000000000000000e+00  -1.9717292138775436e-04 2.2033241657743200e-03 0.0000000000000000e+00  -4.3680227295165062e-04 4.6770882621669370e-05 0.0000000000000000e+00  -5.2322671147870658e-04 1.4394781291026532e-03 0.0000000000000000e+00  -9.5636798089349453e-05 7.6852185210448298e-04 0.0000000000000000e+00  2.6852669083062388e-05 1.6946507969508354e-03 0.0000000000000000e+00  -1.5871145737758770e-04 4.7610651046836193e-05 0.0000000000000000e+00  -4.7589193246082973e-04 2.2033426563849963e-03 0.0000000000000000e+00  -6.6418872743373870e-04 5.5379468582444685e-04 0.0000000000000000e+00  -1.2768701459737715e-04 2.2048588268522972e-03 0.0000000000000000e+00  -5.0638959279311927e-04 4.9183768662997707e-05 0.0000000000000000e+00  6.6221274356520809e-06 4.2065085449465760e-04 0.0000000000000000e+00  -6.4180064525838187e-04 1.8275740049179623e-03 0.0000000000000000e+00  2.8859503611578634e-05 1.9059644043209838e-03 0.0000000000000000e+00  -6.6651649005014958e-04 3.4197600648151245e-04 0.0000000000000000e+00  -8.6173144429696057e-05 4.5147941410356035e-05 0.0000000000000000e+00  -5.4707853095507970e-04 2.2026423268192681e-03 0.0000000000000000e+00  -6.0625649458775648e-05 2.2012448458605407e-03 0.0000000000000000e+00  -5.7513088306408787e-04 4.6830171653368579e-05 0.0000000000000000e+00  1.2736526609783198e-05 1.3242617964966475e-03 0.0000000000000000e+00  -6.5343368830550442e-04 8.8287617311016086e-04 0.0000000000000000e+00  6.9821668713241049e-06 2.7657325096945362e-04 0.0000000000000000e+00  -6.4226323035346071e-04 1.9649947015396596e-03 0.0000000000000000e+00  -6.3198625916814340e-04 1.7061687677590862e-03 0.0000000000000000e+00  -6.6696253605973382e-04 1.8540207599499072e-04 0.0000000000000000e+00  3.2340394928132649e-05 2.0655581326030816e-03 0.0000000000000000e+00  -3.2027594368550737e-06 5.4237559489406001e-04 0.0000000000000000e+00  -3.4382348118087298e-05 4.5112016853862968e-05 0.0000000000000000e+00  -6.0087079615972526e-04 2.2117830651791053e-03 0.0000000000000000e+00  -5.3503710297976983e-05 1.1578897833913631e-03 0.0000000000000000e+00  -1.2154581946204773e-05 2.2040124140132299e-03 0.0000000000000000e+00  -6.2420092523259539e-04 4.6128052166914664e-05 0.0000000000000000e+00  2.5962295873465803e-05 1.5499309305262159e-03 0.0000000000000000e+00  -6.4202259701456475e-04 9.6006497032828544e-04 0.0000000000000000e+00  -1.9684092543823697e-04 5.5448942129764436e-05 0.0000000000000000e+00  -2.9085132294966306e-04 4.9508124290477644e-05 0.0000000000000000e+00  -3.8413477510610967e-04 4.4690796194536151e-05 0.0000000000000000e+00  -3.2497790546951420e-04 2.2020071042597946e-03 0.0000000000000000e+00  -2.5220797157148402e-04 2.2008960586233492e-03 0.0000000000000000e+00  -4.3798682917151001e-04 2.2005652951656469e-03 0.0000000000000000e+00  -1.6128537846713534e-04 2.2044174721108189e-03 0.0000000000000000e+00  -1.2124655605115203e-04 4.6373825414318849e-05 0.0000000000000000e+00  -4.7228886787698709e-04 4.8299756199198684e-05 0.0000000000000000e+00  7.6141107137372794e-06 1.7862591719093040e-04 0.0000000000000000e+00  -5.1576022535440320e-04 2.2021135411539163e-03 0.0000000000000000e+00  -9.3385608757188038e-05 2.2026625062880568e-03 0.0000000000000000e+00  -6.6503808227270467e-04 4.4456134714452211e-04 0.0000000000000000e+00  -6.6112670506119785e-04 6.5523714027005808e-04 0.0000000000000000e+00  -6.4401938458620600e-04 2.0711108042856829e-03 0.0000000000000000e+00  -5.4153832122383902e-04 4.6533618424399563e-05 0.0000000000000000e+00  3.0074862832772150e-05 1.8027620108833538e-03 0.0000000000000000e+00  -5.7303867535358328e-04 1.1469462802723798e-03 0.0000000000000000e+00  -5.4638867512058983e-04 1.1911518005119745e-03 0.0000000000000000e+00  -5.1560964732137390e-04 1.2548198883830873e-03 0.0000000000000000e+00  -5.3016982250235739e-04 1.2192512410710221e-03 0.0000000000000000e+00  -5.0662748062300401e-04 1.2751030685622909e-03 0.0000000000000000e+00  -5.1714312235155171e-04 1.2299603436200575e-03 0.0000000000000000e+00  -5.0010830021758189e-04 1.2817667458822118e-03 0.0000000000000000e+00  -5.0537174514417641e-04 1.2393809872043157e-03 0.0000000000000000e+00  -4.9243732402252547e-04 1.2894893640429900e-03 0.0000000000000000e+00  -4.9438162317727151e-04 1.2477817422092937e-03 0.0000000000000000e+00  -4.8407589895807024e-04 1.2951306209739680e-03 0.0000000000000000e+00  -4.8380996982042002e-04 1.2523373580245116e-03 0.0000000000000000e+00  -4.7468691287518391e-04 1.3003035953215638e-03 0.0000000000000000e+00  -4.7275580359114452e-04 1.2572333763674649e-03 0.0000000000000000e+00  -4.6446032986000350e-04 1.3051351853863734e-03 0.0000000000000000e+00  -4.6121868213263206e-04 1.2636753459078533e-03 0.0000000000000000e+00  -4.5344484489606853e-04 1.3103591866460919e-03 0.0000000000000000e+00  -4.4933210249697454e-04 1.2688927416189730e-03 0.0000000000000000e+00  -4.4188703657455271e-04 1.3151715958625021e-03 0.0000000000000000e+00  -4.3715267333007052e-04 1.2737085780996726e-03 0.0000000000000000e+00  -4.4558235270137969e-04 1.2274424367844290e-03 0.0000000000000000e+00  -4.3275386197161010e-04 1.2322299505135848e-03 0.0000000000000000e+00  -4.2465052952378950e-04 1.2783370895067981e-03 0.0000000000000000e+00  -4.1976454385079072e-04 1.2370757718550402e-03 0.0000000000000000e+00  -4.1187011737835205e-04 1.2830862557651078e-03 0.0000000000000000e+00  -4.0663580788095286e-04 1.2417938439056773e-03 0.0000000000000000e+00  -4.1471677122147631e-04 1.1936888545332871e-03 0.0000000000000000e+00  -4.0140274150453819e-04 1.2004335614962394e-03 0.0000000000000000e+00  -3.9336139078966197e-04 1.2463464688166235e-03 0.0000000000000000e+00  -3.8803798207400397e-04 1.2034297845739726e-03 0.0000000000000000e+00  -3.7996518813944653e-04 1.2506825691924518e-03 0.0000000000000000e+00  -3.7445555930729112e-04 1.2078290376156349e-03 0.0000000000000000e+00  -3.6644809038194847e-04 1.2549392108791876e-03 0.0000000000000000e+00  -3.6072006093036582e-04 1.2148392758529155e-03 0.0000000000000000e+00  -3.5281424013486752e-04 1.2598629173640097e-03 0.0000000000000000e+00  -3.4699170210183376e-04 1.2200079645277773e-03 0.0000000000000000e+00  -3.3908860689165225e-04 1.2648307362470026e-03 0.0000000000000000e+00  -3.3323714779154778e-04 1.2243006322566940e-03 0.0000000000000000e+00  -3.2529544413715405e-04 1.2694145834608280e-03 0.0000000000000000e+00  -3.1943810055964851e-04 1.2288530973814755e-03 0.0000000000000000e+00  -3.1140023600007867e-04 1.2740472426297235e-03 0.0000000000000000e+00  -3.2750675600282195e-04 1.1837414978574776e-03 0.0000000000000000e+00  -3.1372886404190491e-04 1.1882998584970667e-03 0.0000000000000000e+00  -3.9597930467829358e-04 1.1524446989531396e-03 0.0000000000000000e+00  -3.2185687150233121e-04 1.1432958720414990e-03 0.0000000000000000e+00  -3.0810548980436388e-04 1.1477921341069989e-03 0.0000000000000000e+00  -3.1626298210856330e-04 1.1028462811334984e-03 0.0000000000000000e+00  -3.0255323129468507e-04 1.1072875515378314e-03 0.0000000000000000e+00  -3.1052609427032932e-04 1.0626845473823568e-03 0.0000000000000000e+00  -2.9695293583466200e-04 1.0669035256039021e-03 0.0000000000000000e+00  -3.0487439407645816e-04 1.0221877579409721e-03 0.0000000000000000e+00  -2.9129466629519826e-04 1.0264072414173215e-03 0.0000000000000000e+00  -2.8327611445447672e-04 1.0710993149464386e-03 0.0000000000000000e+00  -2.9900438470057799e-04 9.8189478199693279e-04 0.0000000000000000e+00  -2.8553107861546760e-04 9.8604164366177384e-04 0.0000000000000000e+00  -3.4527816450536568e-04 1.3049360066076012e-03 0.000000000000