<?xml version="1.0"?>
<VTKFile type="UnstructuredGrid"  version="0.1"  >
<UnstructuredGrid>
<Piece  NumberOfPoints="2165" NumberOfCells="4161">
<Points>
<DataArray  type="Float64"  NumberOfComponents="3"  format="ascii">-3.598637933768527e-16 0.3500000000000001 0  0.05 0.4 0  -3.537405593811159e-16 0.45 0  0 1 0  1 1 0  0.9999999999999997 0.65 0  0.9999999999999997 0.5499999999999999 0  1 0 0  0 0 0  0.0191341716182545 0.3538060233744357 0  0.03535533905932737 0.3646446609406727 0  0.04619397662556433 0.3808658283817455 0  0.04619397662556434 0.4191341716182545 0  0.03535533905932738 0.4353553390593274 0  0.01913417161825449 0.4461939766255644 0  0 0.975 0  0 0.95 0  0 0.9249999999999999 0  0 0.8999999999999998 0  0 0.8749999999999998 0  0 0.8499999999999998 0  0 0.8249999999999997 0  0 0.7999999999999996 0  0 0.7749999999999996 0  0 0.7499999999999996 0  0 0.7249999999999996 0  0 0.6999999999999997 0  0 0.6749999999999998 0  0 0.6499999999999999 0  0 0.6249999999999999 0  0 0.6 0  0 0.575 0  0 0.5499999999999998 0  0 0.5249999999999999 0  0 0.4999999999999998 0  0 0.4749999999999999 0  0.975 1 0  0.95 1 0  0.925 1 0  0.9 1 0  0.875 1 0  0.85 1 0  0.825 1 0  0.8 1 0  0.775 1 0  0.75 1 0  0.725 1 0  0.7 1 0  0.675 1 0  0.65 1 0  0.625 1 0  0.6 1 0  0.575 1 0  0.55 1 0  0.525 1 0  0.5 1 0  0.475 1 0  0.45 1 0  0.425 1 0  0.4 1 0  0.375 1 0  0.35 1 0  0.325 1 0  0.3 1 0  0.275 1 0  0.25 1 0  0.225 1 0  0.2 1 0  0.175 1 0  0.15 1 0  0.125 1 0  0.09999999999999998 1 0  0.07499999999999996 1 0  0.05000000000000004 1 0  0.02500000000000002 1 0  1 0.675 0  1 0.7000000000000001 0  1 0.7250000000000001 0  1 0.7500000000000001 0  1 0.7750000000000001 0  1 0.8000000000000002 0  1 0.8250000000000002 0  1 0.8500000000000002 0  1 0.8750000000000003 0  1 0.9000000000000001 0  1 0.9250000000000002 0  1 0.9500000000000001 0  1 0.9750000000000001 0  0.9783058130441221 0.6450484433951209 0  0.9609084258765985 0.6311744900929367 0  0.9512536043909088 0.6111260466978157 0  0.9512536043909088 0.5888739533021843 0  0.9609084258765985 0.5688255099070633 0  0.9783058130441221 0.554951556604879 0  1 0.02500000000000002 0  1 0.05000000000000004 0  1 0.07500000000000008 0  1 0.1000000000000001 0  1 0.1250000000000001 0  1 0.1500000000000002 0  1 0.1750000000000002 0  1 0.2000000000000003 0  1 0.2250000000000003 0  1 0.2500000000000004 0  1 0.2750000000000004 0  1 0.3000000000000003 0  1 0.3250000000000002 0  1 0.3500000000000001 0  1 0.3750000000000001 0  1 0.3999999999999999 0  1 0.425 0  1 0.45 0  1 0.475 0  1 0.5000000000000001 0  1 0.5249999999999999 0  0.025 0 0  0.05 0 0  0.075 0 0  0.1 0 0  0.125 0 0  0.15 0 0  0.175 0 0  0.2 0 0  0.225 0 0  0.25 0 0  0.275 0 0  0.3 0 0  0.325 0 0  0.35 0 0  0.375 0 0  0.4 0 0  0.425 0 0  0.45 0 0  0.475 0 0  0.5 0 0  0.525 0 0  0.55 0 0  0.575 0 0  0.6 0 0  0.625 0 0  0.65 0 0  0.675 0 0  0.7 0 0  0.725 0 0  0.75 0 0  0.775 0 0  0.8 0 0  0.825 0 0  0.85 0 0  0.875 0 0  0.9 0 0  0.925 0 0  0.95 0 0  0.975 0 0  0 0.3250000000000001 0  0 0.3 0  0 0.275 0  0 0.2499999999999999 0  0 0.2249999999999999 0  0 0.1999999999999998 0  0 0.1749999999999998 0  0 0.1499999999999998 0  0 0.1249999999999998 0  0 0.09999999999999987 0  0 0.07499999999999984 0  0 0.04999999999999993 0  0 0.02500000000000002 0  0.06453325334544308 0.4134708543086404 0  0.5146839915088474 0.02134387884913819 0  0.4875871001393628 0.9784117024331356 0  0.9386300160094723 0.5701776715936071 0  0.0216506350946109 0.6124999999999999 0  0.9764205887290853 0.3596067946540696 0  0.3876261045932067 0.02156097490657183 0  0.6125 0.978349364905389 0  0.3612127461797463 0.9792371404802113 0  0.6374786650398092 0.02079982608537345 0  0.9387185538472446 0.6295115890709873 0  0.05482260092545593 0.3633687091864355 0  0.02445354803948679 0.7343198207875321 0  0.2624888813627476 0.02091671348578122 0  0.7375212991274043 0.9794996488945376 0  0.9793010831723812 0.2648509348664836 0  0.2625026480689301 0.9795699185263282 0  0.7362840788105066 0.02225211062275217 0  0.02159327910297104 0.2128861809896528 0  0.9786837570973538 0.7867241244631172 0  0.02419728000065929 0.8365600234152764 0  0.980043283615984 0.1624097203408714 0  0.1645857434226354 0.0205513501962844 0  0.8339481359352011 0.9784483546369231 0  0.1637584777222821 0.9774556328160621 0  0.8374916614314967 0.02165097219510076 0  0.02171915379676059 0.5370700005916152 0  0.9795335762511281 0.4365726939225819 0  0.02319480745007968 0.1370197632171214 0  0.9774462976085161 0.8592616917551974 0  0.9786941241076723 0.7122511101067891 0  0.9797883857882621 0.08781864217752949 0  0.01966314788989931 0.9125801876811624 0  0.02051815350151098 0.2882126194470174 0  0.09063226699593246 0.0214884092697174 0  0.9124408843562394 0.9818463395009377 0  0.03872465516591678 0.452731089005145 0  0.08969424365256845 0.978412979507602 0  0.9124999999999999 0.02165063509461096 0  0.02158104789437187 0.6619299176372371 0  0.9796602354625652 0.4859004208706154 0  0.3127517983598529 0.02417963694738812 0  0.4375629605000894 0.02158039900821679 0  0.5643674594196073 0.01968996000301126 0  0.5368361594956101 0.9790428840407062 0  0.4376176251051295 0.9783667484208922 0  0.6874072695660477 0.978435143102373 0  0.310604317388614 0.979558305560928 0  0.2125577044121564 0.02066685543111635 0  0.6875 0.0216506350946109 0  0.02224009810917643 0.08811420611559456 0  0.790876428529276 0.978633065284896 0  0.2125 0.978349364905389 0  0.9788033534786624 0.2116925349935155 0  0.9769441169344462 0.3150381335760689 0  0.9804648376981185 0.9123186437266726 0  0.7874999988222203 0.02127957051165741 0  0.02109233852270731 0.786866823287435 0  0.9483709287873718 0.5504073206521916 0  0.9259842326464427 0.5519702047534598 0  0.9163209045278007 0.5719292915927929 0  0.9035374059862284 0.5537291796040291 0  0.8938951918780048 0.5738949757882954 0  0.8807940177559743 0.5546750869516996 0  0.8712661812741653 0.5757142549099102 0  0.8580668865514332 0.5563902430113601 0  0.848508161986991 0.5779004013072002 0  0.8354274200119249 0.5591176379057713 0  0.8256349826905482 0.5800610629400762 0  0.8124123591208572 0.5604454546391737 0  0.802603410938817 0.5819653950592523 0  0.7892876429890218 0.562234610648543 0  0.7794355871850538 0.583896242519796 0  0.7661469824381839 0.5648243426306435 0  0.7562387679604726 0.5860005456930413 0  0.7429651600512166 0.5669367633461588 0  0.7330846968880171 0.5879590907760761 0  0.7198577999459205 0.5688986880627463 0  0.7297050500533544 0.5479561801187277 0  0.7066243396993471 0.5499068108517552 0  0.6968285086900206 0.5707989520567972 0  0.6836266810714333 0.5519088927359967 0  0.6738604685766018 0.5727655091567184 0  0.6607284761452521 0.5538781923028128 0  0.6697149783704412 0.5321140554135094 0  0.6473436039782401 0.5350050604671006 0  0.6378867365666199 0.5557804038095817 0  0.6246915360243652 0.5362124690568238 0  0.6151175309583405 0.5575933164645619 0  0.6019784180102355 0.5380659376543677 0  0.5924099113505394 0.5593739656462906 0  0.5794110962027638 0.541110021814312 0  0.5697985396917309 0.5614600003719357 0  0.5568468707330213 0.5433212932327446 0  0.5472634011377896 0.5635652141280936 0  0.5343236363495072 0.5451361960661517 0  0.5247877773262166 0.565493591892781 0  0.5118927934227436 0.5470665328397559 0  0.5023398230005425 0.5674381114577953 0  0.5213991904098014 0.5267047787870831 0  0.4990390504096661 0.528649139287786 0  0.6328887517229864 0.5131744321062524 0  0.5085133205790763 0.5083322037773296 0  0.4861972978925295 0.5102540920324363 0  0.4956914791804768 0.4899605513008993 0  0.4734139980312694 0.4918582759645476 0  0.4826986629698439 0.4717164019717278 0  0.460570567761715 0.473509155475794 0  0.4699344541058981 0.4533140529328089 0  0.4477087341565655 0.4550973130597117 0  0.4381733274019614 0.4752901381741884 0  0.4570222843287571 0.4349938694701042 0  0.4348599018247688 0.436728068420533 0  0.5604623134382263 0.581815997002507 0  0.4443612964408632 0.416499823314016 0  0.422056299386984 0.4183730429856528 0  0.4688721528228815 0.4135009841763965 0  0.4315584877924544 0.398120546824229 0  0.4092288692044618 0.3999974286008185 0  0.7463210599443056 0.6070829843371945 0  0.4187270626688335 0.3797365044773463 0  0.3964262302393312 0.3817184136470017 0  0.3869780036193907 0.4018498778543814 0  0.3742423843122406 0.3837055716372927 0  0.3648701490102072 0.4037049758807119 0  0.3518115403926748 0.3858985036587403 0  0.3426146276710081 0.4056777495658291 0  0.3614541441355358 0.3656396497906528 0  0.339026673715919 0.3678724679736439 0  0.3485566370135618 0.3476560889674916 0  0.3264681821394378 0.3496422822523857 0  0.8219942777991693 0.5379143061758643 0  0.3358297439968608 0.3295117748868035 0  0.3137050884585635 0.3314921667582986 0  0.3229980644152205 0.3113561769498422 0  0.3007986024336577 0.3133063832007756 0  0.3441851868720173 0.3085211458266175 0  0.3101966551534752 0.2930273704914169 0  0.287793053707373 0.2950088132226583 0  0.2914417217227097 0.3337427541189321 0  0.2975120686695638 0.2743682539701985 0  0.274864585256681 0.2764253296978281 0  0.816026571618698 0.6006851919544112 0  0.2844672854128698 0.2557011565880619 0  0.2617267434509338 0.2577713002235077 0  0.3072711221189672 0.2536790056475094 0  0.2521588568690318 0.2785072139143895 0  0.2389277409161178 0.2598761196336353 0  0.248448076747058 0.2389478879785275 0  0.5053822153261678 0.4716915524631118 0  0.229548765875869 0.2806542761043101 0  0.2254561407802683 0.2411354049374563 0  0.2350621310805047 0.2199181955146378 0  0.2117782450160163 0.222165061041625 0  0.2214249125635323 0.2008136877065064 0  0.2448758256083499 0.1985732693215908 0  0.197966291680556 0.2031211006951591 0  0.1883147493074436 0.2245564097761413 0  0.8910637266939049 0.5322898364209732 0  0.1748136087708587 0.2051141748992724 0  0.1842088801696792 0.1837087814679069 0  0.1656574100807746 0.2269812054689968 0  0.3554582346764377 0.4236292557112198 0  0.3328979939923831 0.425459320867588 0  0.3460368767112177 0.4435398346083328 0  0.3238464003
[...]
<PointData  Vectors="$u$"> 
<DataArray  type="Float64"  Name="$u$"  NumberOfComponents="3" format="ascii">-1.9484332053496659e-04 1.5861394040487149e-03 0.0000000000000000e+00  -3.2918977146651320e-04 2.6434093954707440e-03 0.0000000000000000e+00  -1.8014217975720562e-04 3.7106985547531862e-03 0.0000000000000000e+00  1.3135105005935221e-04 6.5000000000000006e-03 0.0000000000000000e+00  -1.8959285785478458e-03 6.5000000000000006e-03 0.0000000000000000e+00  -1.6468234606431169e-03 4.9089221804142057e-03 0.0000000000000000e+00  -1.6621449576267819e-03 2.7969578027732668e-03 0.0000000000000000e+00  -1.9689588190658150e-03 0.0000000000000000e+00 0.0000000000000000e+00  0.0000000000000000e+00 0.0000000000000000e+00 0.0000000000000000e+00  -2.2688939064973934e-04 1.7149271028510035e-03 0.0000000000000000e+00  -2.9704517635351465e-04 1.9339730471486295e-03 0.0000000000000000e+00  -3.3367464031007021e-04 2.2449300857983346e-03 0.0000000000000000e+00  -3.2900383888364866e-04 3.0474644015018280e-03 0.0000000000000000e+00  -2.8481596494276648e-04 3.3548679318834576e-03 0.0000000000000000e+00  -2.1524110373483032e-04 3.5783827097539953e-03 0.0000000000000000e+00  1.3129611226355610e-04 6.3480548598090301e-03 0.0000000000000000e+00  1.3110951344251753e-04 6.1962394960335000e-03 0.0000000000000000e+00  1.3075386582681972e-04 6.0445515820817825e-03 0.0000000000000000e+00  1.3028737556867082e-04 5.8931350837985695e-03 0.0000000000000000e+00  1.2962440514913609e-04 5.7420482609520616e-03 0.0000000000000000e+00  1.2880927138125055e-04 5.5914974209335545e-03 0.0000000000000000e+00  1.2768957779307129e-04 5.4414502465705093e-03 0.0000000000000000e+00  1.2642460157056236e-04 5.2921389817290158e-03 0.0000000000000000e+00  1.2475520871119467e-04 5.1437134196079710e-03 0.0000000000000000e+00  1.2290394721503617e-04 4.9964741210507778e-03 0.0000000000000000e+00  1.2027239626013502e-04 4.8505142082118273e-03 0.0000000000000000e+00  1.1760317537953516e-04 4.7061754179865663e-03 0.0000000000000000e+00  1.1379971130726976e-04 4.5642846481963517e-03 0.0000000000000000e+00  1.0939845807277593e-04 4.4248855805992362e-03 0.0000000000000000e+00  1.0370737460211566e-04 4.2891472050074686e-03 0.0000000000000000e+00  9.6626733726015634e-05 4.1587172888381515e-03 0.0000000000000000e+00  8.6466355672226597e-05 4.0349570655364179e-03 0.0000000000000000e+00  7.2817428339094775e-05 3.9216336753734402e-03 0.0000000000000000e+00  5.1297050739493546e-05 3.8222101393680864e-03 0.0000000000000000e+00  1.6358212886081906e-05 3.7477353605480991e-03 0.0000000000000000e+00  -4.7459944461945149e-05 3.7061026243491954e-03 0.0000000000000000e+00  -1.8517363623476041e-03 6.5000000000000006e-03 0.0000000000000000e+00  -1.8069045316926559e-03 6.5000000000000006e-03 0.0000000000000000e+00  -1.7610957345049569e-03 6.5000000000000006e-03 0.0000000000000000e+00  -1.7139277843793330e-03 6.5000000000000006e-03 0.0000000000000000e+00  -1.6652857354737460e-03 6.5000000000000006e-03 0.0000000000000000e+00  -1.6151788968877126e-03 6.5000000000000006e-03 0.0000000000000000e+00  -1.5637118561339113e-03 6.5000000000000006e-03 0.0000000000000000e+00  -1.5110065229796007e-03 6.5000000000000006e-03 0.0000000000000000e+00  -1.4575434084174745e-03 6.5000000000000006e-03 0.0000000000000000e+00  -1.4033075119306761e-03 6.5000000000000006e-03 0.0000000000000000e+00  -1.3486828835185935e-03 6.5000000000000006e-03 0.0000000000000000e+00  -1.2938133652377673e-03 6.5000000000000006e-03 0.0000000000000000e+00  -1.2389094058851031e-03 6.5000000000000006e-03 0.0000000000000000e+00  -1.1840292816696070e-03 6.5000000000000006e-03 0.0000000000000000e+00  -1.1293323712671653e-03 6.5000000000000006e-03 0.0000000000000000e+00  -1.0748313407489682e-03 6.5000000000000006e-03 0.0000000000000000e+00  -1.0205796581245334e-03 6.5000000000000006e-03 0.0000000000000000e+00  -9.6660007602383205e-04 6.5000000000000006e-03 0.0000000000000000e+00  -9.1288980317424408e-04 6.5000000000000006e-03 0.0000000000000000e+00  -8.5945597574349389e-04 6.5000000000000006e-03 0.0000000000000000e+00  -8.0630219275144735e-04 6.5000000000000006e-03 0.0000000000000000e+00  -7.5341379575161595e-04 6.5000000000000006e-03 0.0000000000000000e+00  -7.0081320107826591e-04 6.5000000000000006e-03 0.0000000000000000e+00  -6.4848806083051393e-04 6.5000000000000006e-03 0.0000000000000000e+00  -5.9647977782556960e-04 6.5000000000000006e-03 0.0000000000000000e+00  -5.4478162237973286e-04 6.5000000000000006e-03 0.0000000000000000e+00  -4.9344337106318960e-04 6.5000000000000006e-03 0.0000000000000000e+00  -4.4249609045408705e-04 6.5000000000000006e-03 0.0000000000000000e+00  -3.9195468825510338e-04 6.5000000000000006e-03 0.0000000000000000e+00  -3.4189775497494017e-04 6.5000000000000006e-03 0.0000000000000000e+00  -2.9232017523093951e-04 6.5000000000000006e-03 0.0000000000000000e+00  -2.4327176782249559e-04 6.5000000000000006e-03 0.0000000000000000e+00  -1.9478106111822102e-04 6.5000000000000006e-03 0.0000000000000000e+00  -1.4683106016004846e-04 6.5000000000000006e-03 0.0000000000000000e+00  -9.9429107076049212e-05 6.5000000000000006e-03 0.0000000000000000e+00  -5.2532903752937746e-05 6.5000000000000006e-03 0.0000000000000000e+00  -6.0985854785825507e-06 6.5000000000000006e-03 0.0000000000000000e+00  3.9964625860536274e-05 6.5000000000000006e-03 0.0000000000000000e+00  8.5737992668337662e-05 6.5000000000000006e-03 0.0000000000000000e+00  -1.7750607714793710e-03 4.9026161600498894e-03 0.0000000000000000e+00  -1.8304425468074685e-03 4.9436365282832144e-03 0.0000000000000000e+00  -1.8610330464115500e-03 5.0213254582649088e-03 0.0000000000000000e+00  -1.8759124015546125e-03 5.1219928543262761e-03 0.0000000000000000e+00  -1.8850669495878685e-03 5.2362512837289136e-03 0.0000000000000000e+00  -1.8894848273352744e-03 5.3629890029160635e-03 0.0000000000000000e+00  -1.8931906003820103e-03 5.4941049769465363e-03 0.0000000000000000e+00  -1.8941075025001391e-03 5.6315311890509558e-03 0.0000000000000000e+00  -1.8955078522958344e-03 5.7720886361480057e-03 0.0000000000000000e+00  -1.8957005586663701e-03 5.9148547148047403e-03 0.0000000000000000e+00  -1.8959570649383104e-03 6.0597832732620545e-03 0.0000000000000000e+00  -1.8959128705324799e-03 6.2058858362582384e-03 0.0000000000000000e+00  -1.8959981181734097e-03 6.3527327991336853e-03 0.0000000000000000e+00  -1.6039766371716566e-03 4.7523424375350782e-03 0.0000000000000000e+00  -1.5225229531404330e-03 4.4875838900699620e-03 0.0000000000000000e+00  -1.5157445924388086e-03 4.0800554742592360e-03 0.0000000000000000e+00  -1.5039323932563877e-03 3.6320354377667725e-03 0.0000000000000000e+00  -1.5280793961143923e-03 3.2122840431720802e-03 0.0000000000000000e+00  -1.6215171183967040e-03 2.9592493520837408e-03 0.0000000000000000e+00  -1.9689069210629896e-03 1.5207033894512370e-04 0.0000000000000000e+00  -1.9687083012355352e-03 3.0405508932033364e-04 0.0000000000000000e+00  -1.9683851044666498e-03 4.5586727211706899e-04 0.0000000000000000e+00  -1.9679140030348830e-03 6.0745008670079568e-04 0.0000000000000000e+00  -1.9672768796322507e-03 7.5864095557739845e-04 0.0000000000000000e+00  -1.9664524775425281e-03 9.0943543762898372e-04 0.0000000000000000e+00  -1.9654315685695267e-03 1.0595783064209206e-03 0.0000000000000000e+00  -1.9641230367473178e-03 1.2091066764429010e-03 0.0000000000000000e+00  -1.9625944313610209e-03 1.3576192350556605e-03 0.0000000000000000e+00  -1.9605806981543832e-03 1.5051156252216412e-03 0.0000000000000000e+00  -1.9582371422510536e-03 1.6514410766254612e-03 0.0000000000000000e+00  -1.9554747575838377e-03 1.7956698302649323e-03 0.0000000000000000e+00  -1.9516828437099447e-03 1.9382133870151747e-03 0.0000000000000000e+00  -1.9476104196203812e-03 2.0777016840120232e-03 0.0000000000000000e+00  -1.9417333469518095e-03 2.2138160760161170e-03 0.0000000000000000e+00  -1.9350201526492855e-03 2.3446417135752251e-03 0.0000000000000000e+00  -1.9242716343387154e-03 2.4689227050845989e-03 0.0000000000000000e+00  -1.9127275785294712e-03 2.5847694157287251e-03 0.0000000000000000e+00  -1.8889591319738068e-03 2.6808410912885776e-03 0.0000000000000000e+00  -1.8596509363887433e-03 2.7639088335661166e-03 0.0000000000000000e+00  -1.7910639887607903e-03 2.7970886979416403e-03 0.0000000000000000e+00  0.0000000000000000e+00 0.0000000000000000e+00 0.0000000000000000e+00  0.0000000000000000e+00 0.0000000000000000e+00 0.0000000000000000e+00  -7.8907372032522284e-05 0.0000000000000000e+00 0.0000000000000000e+00  -1.1684154194066148e-04 0.0000000000000000e+00 0.0000000000000000e+00  -1.7023184376499506e-04 0.0000000000000000e+00 0.0000000000000000e+00  -2.2035253713192628e-04 0.0000000000000000e+00 0.0000000000000000e+00  -2.7191738346014162e-04 0.0000000000000000e+00 0.0000000000000000e+00  -3.2494792249936012e-04 0.0000000000000000e+00 0.0000000000000000e+00  -3.7869052356255046e-04 0.0000000000000000e+00 0.0000000000000000e+00  -4.3303792052086742e-04 0.0000000000000000e+00 0.0000000000000000e+00  -4.8785284171262065e-04 0.0000000000000000e+00 0.0000000000000000e+00  -5.4283190005503638e-04 0.0000000000000000e+00 0.0000000000000000e+00  -5.9787980787421083e-04 0.0000000000000000e+00 0.0000000000000000e+00  -6.5285393380770272e-04 0.0000000000000000e+00 0.0000000000000000e+00  -7.0766140041753393e-04 0.0000000000000000e+00 0.0000000000000000e+00  -7.6223389136640448e-04 0.0000000000000000e+00 0.0000000000000000e+00  -8.1656242122296802e-04 0.0000000000000000e+00 0.0000000000000000e+00  -8.7059790539020777e-04 0.0000000000000000e+00 0.0000000000000000e+00  -9.2435568674019463e-04 0.0000000000000000e+00 0.0000000000000000e+00  -9.7783495312918031e-04 0.0000000000000000e+00 0.0000000000000000e+00  -1.0310217052213022e-03 0.0000000000000000e+00 0.0000000000000000e+00  -1.0839249910946402e-03 0.0000000000000000e+00 0.0000000000000000e+00  -1.1365497439698167e-03 0.0000000000000000e+00 0.0000000000000000e+00  -1.1888716959129228e-03 0.0000000000000000e+00 0.0000000000000000e+00  -1.2409008257735271e-03 0.0000000000000000e+00 0.0000000000000000e+00  -1.2925875888366502e-03 0.0000000000000000e+00 0.0000000000000000e+00  -1.3439320608990364e-03 0.0000000000000000e+00 0.0000000000000000e+00  -1.3948790277959063e-03 0.0000000000000000e+00 0.0000000000000000e+00  -1.4454205084648113e-03 0.0000000000000000e+00 0.0000000000000000e+00  -1.4954676041587997e-03 0.0000000000000000e+00 0.0000000000000000e+00  -1.5450690157704039e-03 0.0000000000000000e+00 0.0000000000000000e+00  -1.5940935843901272e-03 0.0000000000000000e+00 0.0000000000000000e+00  -1.6426224020320143e-03 0.0000000000000000e+00 0.0000000000000000e+00  -1.6905783784791381e-03 0.0000000000000000e+00 0.0000000000000000e+00  -1.7379913088226662e-03 0.0000000000000000e+00 0.0000000000000000e+00  -1.7849257309244968e-03 0.0000000000000000e+00 0.0000000000000000e+00  -1.8313872776099117e-03 0.0000000000000000e+00 0.0000000000000000e+00  -1.8774869013610696e-03 0.0000000000000000e+00 0.0000000000000000e+00  -1.9233009229289062e-03 0.0000000000000000e+00 0.0000000000000000e+00  -6.4669649316771643e-05 1.5891981378804809e-03 0.0000000000000000e+00  -8.7519357471252645e-06 1.5516888880459699e-03 0.0000000000000000e+00  2.1601044159459840e-05 1.4716318160023568e-03 0.0000000000000000e+00  3.8371678363506185e-05 1.3734993217922973e-03 0.0000000000000000e+00  4.6583331928529101e-05 1.2588826856474349e-03 0.0000000000000000e+00  5.2173323237140393e-05 1.1334445572530260e-03 0.0000000000000000e+00  5.5078965376615788e-05 1.0018798224853312e-03 0.0000000000000000e+00  5.6757720594127248e-05 8.6496333226002533e-04 0.0000000000000000e+00  5.7977719301256677e-05 7.2477622703727808e-04 0.0000000000000000e+00  5.8349576576705237e-05 5.8082746254118690e-04 0.0000000000000000e+00  5.9153078186532723e-05 4.3945281739468065e-04 0.0000000000000000e+00  5.7572408603254744e-05 2.8760721183274161e-04 0.0000000000000000e+00  5.8971901474316041e-05 1.5753210905044765e-04 0.0000000000000000e+00  -4.0793463693145646e-04 2.7939534970326915e-03 0.0000000000000000e+00  -1.0091163180106397e-03 1.4072583483618783e-04 0.0000000000000000e+00  -8.3302098300243614e-04 6.3576690376961030e-03 0.0000000000000000e+00  -1.4956083568098391e-03 3.5565343864237932e-03 0.0000000000000000e+00  6.6043438464317010e-05 4.2138182805951923e-03 0.0000000000000000e+00  -1.9065341123203855e-03 2.1384588924031364e-03 0.0000000000000000e+00  -7.3540161592107066e-04 1.4326562944681894e-04 0.0000000000000000e+00  -1.1019091944311631e-03 6.3561643489336008e-03 0.0000000000000000e+00  -5.6797958079542838e-04 6.3651787216886186e-03 0.0000000000000000e+00  -1.2666851269674936e-03 1.3510358575309216e-04 0.0000000000000000e+00  -1.5038194621754069e-03 4.1647224789739829e-03 0.0000000000000000e+00  -2.8147620785051356e-04 2.2066442694272958e-03 0.0000000000000000e+00  7.8491665501546426e-05 4.9011002391115615e-03 0.0000000000000000e+00  -4.6060694558126033e-04 1.3758447079968150e-04 0.0000000000000000e+00  -1.3758902335636359e-03 6.3651717441728616e-03 0.0000000000000000e+00  -1.9228669085344196e-03 1.5949516878125782e-03 0.0000000000000000e+00  -3.6693679844390339e-04 6.3697081762500059e-03 0.0000000000000000e+00  -1.4680043605602652e-03 1.4197330679719739e-04 0.0000000000000000e+00  1.6434396395546255e-05 1.2084122627860822e-03 0.0000000000000000e+00  -1.8549520036201781e-03 5.2859611458940491e-03 0.0000000000000000e+00  8.4632387638048422e-05 5.5091837400653241e-03 0.0000000000000000e+00  -1.9299674865841986e-03 9.8517212872159337e-04 0.0000000000000000e+00  -2.5059203076095759e-04 1.3027088614919689e-04 0.0000000000000000e+00  -1.5821351075291337e-03 6.3633384152597828e-03 0.0000000000000000e+00  -1.7319501970713196e-04 6.3594077199048563e-03 0.0000000000000000e+00  -1.6666030284982671e-03 1.3505947074233445e-04 0.0000000000000000e+00  3.4155074239912172e-05 3.8393630031983662e-03 0.0000000000000000e+00  -1.8898092539057062e-03 2.5391288529785384e-03 0.0000000000000000e+00  1.8290843347241305e-05 7.9495851592674643e-04 0.0000000000000000e+00  -1.8566781024903338e-03 5.6802118765219246e-03 0.0000000000000000e+00  -1.8236767949980808e-03 4.9406323283266882e-03 0.0000000000000000e+00  -1.9313744179861678e-03 5.3416721687331726e-04 0.0000000000000000e+00  9.4793725071681392e-05 5.9687551577448537e-03 0.0000000000000000e+00  -1.3685315649379974e-05 1.5551311463105125e-03 0.0000000000000000e+00  -9.9603895209115823e-05 1.2878465277133184e-04 0.0000000000000000e+00  -1.7375459016322936e-03 6.3898760256551872e-03 0.0000000000000000e+00  -1.5694455941663200e-04 3.3638116730264822e-03 0.0000000000000000e+00  -3.3373959991843947e-05 6.3674837228857323e-03 0.0000000000000000e+00  -1.8081671840034788e-03 1.3295689051017769e-04 0.0000000000000000e+00  7.5342503696128194e-05 4.4852099345787542e-03 0.0000000000000000e+00  -1.8554612664445338e-03 2.7599910961016499e-03 0.0000000000000000e+00  -5.7119807297607503e-04 1.6028237104897839e-04 0.0000000000000000e+00  -8.4384713338576868e-04 1.4312594757519081e-04 0.0000000000000000e+00  -1.1141785363525177e-03 1.2914755204479313e-04 0.0000000000000000e+00  -9.3823064232424758e-04 6.3612651880536513e-03 0.0000000000000000e+00  -7.2735482988730258e-04 6.3581049878919807e-03 0.0000000000000000e+00  -1.2659505430444422e-03 6.3570981979755069e-03 0.0000000000000000e+00  -4.6411613402354453e-04 6.3683822181044908e-03 0.0000000000000000e+00  -3.5197899877045650e-04 1.3393122416214555e-04 0.0000000000000000e+00  -1.3693845435387370e-03 1.3947177745006251e-04 0.0000000000000000e+00  2.0689487882747156e-05 5.1322436748175136e-04 0.0000000000000000e+00  -1.4914430077844071e-03 6.3617094169164182e-03 0.0000000000000000e+00  -2.6779474218886925e-04 6.3634309819466071e-03 0.0000000000000000e+00  -1.9255879410863125e-03 1.2805450140095159e-03 0.0000000000000000e+00  -1.9137660086013749e-03 1.8867298650424274e-03 0.0000000000000000e+00  -1.8617914467232931e-03 5.9853302963240257e-03 0.0000000000000000e+00  -1.5695952260097344e-03 1.3426594579220966e-04 0.0000000000000000e+00  8.7993448301956981e-05 5.2121673817627848e-03 0.0000000000000000e+00  -1.6699627462459063e-03 3.3018657114722988e-03 0.0000000000000000e+00  -1.5792339126631200e-03 3.4254357420216716e-03 0.0000000000000000e+00  -1.4844541876551346e-03 3.6101415415014382e-03 0.0000000000000000e+00  -1.5322373605700362e-03 3.5227302875860244e-03 0.0000000000000000e+00  -1.4517321832140458e-03 3.6851587179750267e-03 0.0000000000000000e+00  -1.4936552162578846e-03 3.5474449862819973e-03 0.0000000000000000e+00  -1.4386691316857845e-03 3.6987550271646245e-03 0.0000000000000000e+00  -1.4564231826646775e-03 3.5806409856977916e-03 0.0000000000000000e+00  -1.4166189072194197e-03 3.7253979651139697e-03 0.0000000000000000e+00  -1.4255526526497822e-03 3.6023091756171746e-03 0.0000000000000000e+00  -1.3939550144876963e-03 3.7389604691678139e-03 0.0000000000000000e+00  -1.3947834834798542e-03 3.6174324171580003e-03 0.0000000000000000e+00  -1.3676316791361911e-03 3.7562029890773879e-03 0.0000000000000000e+00  -1.3632052952371498e-03 3.6305099127208985e-03 0.0000000000000000e+00  -1.3387929413769847e-03 3.7687509278085522e-03 0.0000000000000000e+00  -1.3302477980424237e-03 3.6500254991949257e-03 0.0000000000000000e+00  -1.3074583477092774e-03 3.7848608934283961e-03 0.0000000000000000e+00  -1.2962337615757560e-03 3.6646257870633211e-03 0.0000000000000000e+00  -1.2745877274229927e-03 3.7982195918918730e-03 0.0000000000000000e+00  -1.2614348849597850e-03 3.6789499932490320e-03 0.0000000000000000e+00  -1.2860022276881731e-03 3.5454248496940817e-03 0.0000000000000000e+00  -1.2492628668637894e-03 3.5589811902434782e-03 0.0000000000000000e+00  -1.2256075187233866e-03 3.6921538625809998e-03 0.0000000000000000e+00  -1.2119814077651220e-03 3.5732408609869771e-03 0.0000000000000000e+00  -1.1889922940440062e-03 3.7060532171248298e-03 0.0000000000000000e+00  -1.1743116477456708e-03 3.5868005538193183e-03 0.0000000000000000e+00  -1.1979144377503707e-03 3.4479044788064944e-03 0.0000000000000000e+00  -1.1596386016852762e-03 3.4675027557158622e-03 0.0000000000000000e+00  -1.1361774200844309e-03 3.6000639213403791e-03 0.0000000000000000e+00  -1.1212242159997238e-03 3.4761633864368612e-03 0.0000000000000000e+00  -1.0976947852288782e-03 3.6125932771127450e-03 0.0000000000000000e+00  -1.0821718972108174e-03 3.4889374449088269e-03 0.0000000000000000e+00  -1.0588360340595612e-03 3.6249480603133262e-03 0.0000000000000000e+00  -1.0426454228371386e-03 3.5092075089252542e-03 0.0000000000000000e+00  -1.0196248036891868e-03 3.6392003679082659e-03 0.0000000000000000e+00  -1.0031507307761089e-03 3.5241787453487365e-03 0.0000000000000000e+00  -9.8012727357732520e-04 3.6535945008670597e-03 0.0000000000000000e+00  -9.6356843472123019e-04 3.5366121048080452e-03 0.0000000000000000e+00  -9.4043133037967884e-04 3.6668736965961568e-03 0.0000000000000000e+00  -9.2385133445560530e-04 3.5498009051255805e-03 0.0000000000000000e+00  -9.0042135690347649e-04 3.6802996403353140e-03 0.0000000000000000e+00  -9.4737116385666307e-04 3.4195453791276329e-03 0.0000000000000000e+00  -9.0771058583133640e-04 3.4327477278078009e-03 0.0000000000000000e+00  -1.1444759020727893e-03 3.3289450872105585e-03 0.0000000000000000e+00  -9.3141414296919278e-04 3.3028029710450179e-03 0.0000000000000000e+00  -8.9182895951446040e-04 3.3158281815201716e-03 0.0000000000000000e+00  -9.1561710895244274e-04 3.1860528745810686e-03 0.0000000000000000e+00  -8.7615456789345532e-04 3.1989171375441669e-03 0.0000000000000000e+00  -8.9940370903142267e-04 3.0701324516660502e-03 0.0000000000000000e+00  -8.6034159359204838e-04 3.0823588772319688e-03 0.0000000000000000e+00  -8.8343121789113347e-04 2.9532498971976190e-03 0.0000000000000000e+00  -8.4435604858687670e-04 2.9654770283663793e-03 0.0000000000000000e+00  -8.2099427549598987e-04 3.0945148313062869e-03 0.0000000000000000e+00  -8.6680663972569811e-04 2.8369563861004175e-03 0.0000000000000000e+00  -8.2805456153861752e-04 2.8489800908013665e-03 0.0000000000000000e+00  -9.9767939053785684e-04 3.7693454422734556e-03 0.000000000000