<?xml version="1.0"?>
<VTKFile type="UnstructuredGrid"  version="0.1"  >
<UnstructuredGrid>
<Piece  NumberOfPoints="2165" NumberOfCells="4161">
<Points>
<DataArray  type="Float64"  NumberOfComponents="3"  format="ascii">-3.598637933768527e-16 0.3500000000000001 0  0.05 0.4 0  -3.537405593811159e-16 0.45 0  0 1 0  1 1 0  0.9999999999999997 0.65 0  0.9999999999999997 0.5499999999999999 0  1 0 0  0 0 0  0.0191341716182545 0.3538060233744357 0  0.03535533905932737 0.3646446609406727 0  0.04619397662556433 0.3808658283817455 0  0.04619397662556434 0.4191341716182545 0  0.03535533905932738 0.4353553390593274 0  0.01913417161825449 0.4461939766255644 0  0 0.975 0  0 0.95 0  0 0.9249999999999999 0  0 0.8999999999999998 0  0 0.8749999999999998 0  0 0.8499999999999998 0  0 0.8249999999999997 0  0 0.7999999999999996 0  0 0.7749999999999996 0  0 0.7499999999999996 0  0 0.7249999999999996 0  0 0.6999999999999997 0  0 0.6749999999999998 0  0 0.6499999999999999 0  0 0.6249999999999999 0  0 0.6 0  0 0.575 0  0 0.5499999999999998 0  0 0.5249999999999999 0  0 0.4999999999999998 0  0 0.4749999999999999 0  0.975 1 0  0.95 1 0  0.925 1 0  0.9 1 0  0.875 1 0  0.85 1 0  0.825 1 0  0.8 1 0  0.775 1 0  0.75 1 0  0.725 1 0  0.7 1 0  0.675 1 0  0.65 1 0  0.625 1 0  0.6 1 0  0.575 1 0  0.55 1 0  0.525 1 0  0.5 1 0  0.475 1 0  0.45 1 0  0.425 1 0  0.4 1 0  0.375 1 0  0.35 1 0  0.325 1 0  0.3 1 0  0.275 1 0  0.25 1 0  0.225 1 0  0.2 1 0  0.175 1 0  0.15 1 0  0.125 1 0  0.09999999999999998 1 0  0.07499999999999996 1 0  0.05000000000000004 1 0  0.02500000000000002 1 0  1 0.675 0  1 0.7000000000000001 0  1 0.7250000000000001 0  1 0.7500000000000001 0  1 0.7750000000000001 0  1 0.8000000000000002 0  1 0.8250000000000002 0  1 0.8500000000000002 0  1 0.8750000000000003 0  1 0.9000000000000001 0  1 0.9250000000000002 0  1 0.9500000000000001 0  1 0.9750000000000001 0  0.9783058130441221 0.6450484433951209 0  0.9609084258765985 0.6311744900929367 0  0.9512536043909088 0.6111260466978157 0  0.9512536043909088 0.5888739533021843 0  0.9609084258765985 0.5688255099070633 0  0.9783058130441221 0.554951556604879 0  1 0.02500000000000002 0  1 0.05000000000000004 0  1 0.07500000000000008 0  1 0.1000000000000001 0  1 0.1250000000000001 0  1 0.1500000000000002 0  1 0.1750000000000002 0  1 0.2000000000000003 0  1 0.2250000000000003 0  1 0.2500000000000004 0  1 0.2750000000000004 0  1 0.3000000000000003 0  1 0.3250000000000002 0  1 0.3500000000000001 0  1 0.3750000000000001 0  1 0.3999999999999999 0  1 0.425 0  1 0.45 0  1 0.475 0  1 0.5000000000000001 0  1 0.5249999999999999 0  0.025 0 0  0.05 0 0  0.075 0 0  0.1 0 0  0.125 0 0  0.15 0 0  0.175 0 0  0.2 0 0  0.225 0 0  0.25 0 0  0.275 0 0  0.3 0 0  0.325 0 0  0.35 0 0  0.375 0 0  0.4 0 0  0.425 0 0  0.45 0 0  0.475 0 0  0.5 0 0  0.525 0 0  0.55 0 0  0.575 0 0  0.6 0 0  0.625 0 0  0.65 0 0  0.675 0 0  0.7 0 0  0.725 0 0  0.75 0 0  0.775 0 0  0.8 0 0  0.825 0 0  0.85 0 0  0.875 0 0  0.9 0 0  0.925 0 0  0.95 0 0  0.975 0 0  0 0.3250000000000001 0  0 0.3 0  0 0.275 0  0 0.2499999999999999 0  0 0.2249999999999999 0  0 0.1999999999999998 0  0 0.1749999999999998 0  0 0.1499999999999998 0  0 0.1249999999999998 0  0 0.09999999999999987 0  0 0.07499999999999984 0  0 0.04999999999999993 0  0 0.02500000000000002 0  0.06453325334544308 0.4134708543086404 0  0.5146839915088474 0.02134387884913819 0  0.4875871001393628 0.9784117024331356 0  0.9386300160094723 0.5701776715936071 0  0.0216506350946109 0.6124999999999999 0  0.9764205887290853 0.3596067946540696 0  0.3876261045932067 0.02156097490657183 0  0.6125 0.978349364905389 0  0.3612127461797463 0.9792371404802113 0  0.6374786650398092 0.02079982608537345 0  0.9387185538472446 0.6295115890709873 0  0.05482260092545593 0.3633687091864355 0  0.02445354803948679 0.7343198207875321 0  0.2624888813627476 0.02091671348578122 0  0.7375212991274043 0.9794996488945376 0  0.9793010831723812 0.2648509348664836 0  0.2625026480689301 0.9795699185263282 0  0.7362840788105066 0.02225211062275217 0  0.02159327910297104 0.2128861809896528 0  0.9786837570973538 0.7867241244631172 0  0.02419728000065929 0.8365600234152764 0  0.980043283615984 0.1624097203408714 0  0.1645857434226354 0.0205513501962844 0  0.8339481359352011 0.9784483546369231 0  0.1637584777222821 0.9774556328160621 0  0.8374916614314967 0.02165097219510076 0  0.02171915379676059 0.5370700005916152 0  0.9795335762511281 0.4365726939225819 0  0.02319480745007968 0.1370197632171214 0  0.9774462976085161 0.8592616917551974 0  0.9786941241076723 0.7122511101067891 0  0.9797883857882621 0.08781864217752949 0  0.01966314788989931 0.9125801876811624 0  0.02051815350151098 0.2882126194470174 0  0.09063226699593246 0.0214884092697174 0  0.9124408843562394 0.9818463395009377 0  0.03872465516591678 0.452731089005145 0  0.08969424365256845 0.978412979507602 0  0.9124999999999999 0.02165063509461096 0  0.02158104789437187 0.6619299176372371 0  0.9796602354625652 0.4859004208706154 0  0.3127517983598529 0.02417963694738812 0  0.4375629605000894 0.02158039900821679 0  0.5643674594196073 0.01968996000301126 0  0.5368361594956101 0.9790428840407062 0  0.4376176251051295 0.9783667484208922 0  0.6874072695660477 0.978435143102373 0  0.310604317388614 0.979558305560928 0  0.2125577044121564 0.02066685543111635 0  0.6875 0.0216506350946109 0  0.02224009810917643 0.08811420611559456 0  0.790876428529276 0.978633065284896 0  0.2125 0.978349364905389 0  0.9788033534786624 0.2116925349935155 0  0.9769441169344462 0.3150381335760689 0  0.9804648376981185 0.9123186437266726 0  0.7874999988222203 0.02127957051165741 0  0.02109233852270731 0.786866823287435 0  0.9483709287873718 0.5504073206521916 0  0.9259842326464427 0.5519702047534598 0  0.9163209045278007 0.5719292915927929 0  0.9035374059862284 0.5537291796040291 0  0.8938951918780048 0.5738949757882954 0  0.8807940177559743 0.5546750869516996 0  0.8712661812741653 0.5757142549099102 0  0.8580668865514332 0.5563902430113601 0  0.848508161986991 0.5779004013072002 0  0.8354274200119249 0.5591176379057713 0  0.8256349826905482 0.5800610629400762 0  0.8124123591208572 0.5604454546391737 0  0.802603410938817 0.5819653950592523 0  0.7892876429890218 0.562234610648543 0  0.7794355871850538 0.583896242519796 0  0.7661469824381839 0.5648243426306435 0  0.7562387679604726 0.5860005456930413 0  0.7429651600512166 0.5669367633461588 0  0.7330846968880171 0.5879590907760761 0  0.7198577999459205 0.5688986880627463 0  0.7297050500533544 0.5479561801187277 0  0.7066243396993471 0.5499068108517552 0  0.6968285086900206 0.5707989520567972 0  0.6836266810714333 0.5519088927359967 0  0.6738604685766018 0.5727655091567184 0  0.6607284761452521 0.5538781923028128 0  0.6697149783704412 0.5321140554135094 0  0.6473436039782401 0.5350050604671006 0  0.6378867365666199 0.5557804038095817 0  0.6246915360243652 0.5362124690568238 0  0.6151175309583405 0.5575933164645619 0  0.6019784180102355 0.5380659376543677 0  0.5924099113505394 0.5593739656462906 0  0.5794110962027638 0.541110021814312 0  0.5697985396917309 0.5614600003719357 0  0.5568468707330213 0.5433212932327446 0  0.5472634011377896 0.5635652141280936 0  0.5343236363495072 0.5451361960661517 0  0.5247877773262166 0.565493591892781 0  0.5118927934227436 0.5470665328397559 0  0.5023398230005425 0.5674381114577953 0  0.5213991904098014 0.5267047787870831 0  0.4990390504096661 0.528649139287786 0  0.6328887517229864 0.5131744321062524 0  0.5085133205790763 0.5083322037773296 0  0.4861972978925295 0.5102540920324363 0  0.4956914791804768 0.4899605513008993 0  0.4734139980312694 0.4918582759645476 0  0.4826986629698439 0.4717164019717278 0  0.460570567761715 0.473509155475794 0  0.4699344541058981 0.4533140529328089 0  0.4477087341565655 0.4550973130597117 0  0.4381733274019614 0.4752901381741884 0  0.4570222843287571 0.4349938694701042 0  0.4348599018247688 0.436728068420533 0  0.5604623134382263 0.581815997002507 0  0.4443612964408632 0.416499823314016 0  0.422056299386984 0.4183730429856528 0  0.4688721528228815 0.4135009841763965 0  0.4315584877924544 0.398120546824229 0  0.4092288692044618 0.3999974286008185 0  0.7463210599443056 0.6070829843371945 0  0.4187270626688335 0.3797365044773463 0  0.3964262302393312 0.3817184136470017 0  0.3869780036193907 0.4018498778543814 0  0.3742423843122406 0.3837055716372927 0  0.3648701490102072 0.4037049758807119 0  0.3518115403926748 0.3858985036587403 0  0.3426146276710081 0.4056777495658291 0  0.3614541441355358 0.3656396497906528 0  0.339026673715919 0.3678724679736439 0  0.3485566370135618 0.3476560889674916 0  0.3264681821394378 0.3496422822523857 0  0.8219942777991693 0.5379143061758643 0  0.3358297439968608 0.3295117748868035 0  0.3137050884585635 0.3314921667582986 0  0.3229980644152205 0.3113561769498422 0  0.3007986024336577 0.3133063832007756 0  0.3441851868720173 0.3085211458266175 0  0.3101966551534752 0.2930273704914169 0  0.287793053707373 0.2950088132226583 0  0.2914417217227097 0.3337427541189321 0  0.2975120686695638 0.2743682539701985 0  0.274864585256681 0.2764253296978281 0  0.816026571618698 0.6006851919544112 0  0.2844672854128698 0.2557011565880619 0  0.2617267434509338 0.2577713002235077 0  0.3072711221189672 0.2536790056475094 0  0.2521588568690318 0.2785072139143895 0  0.2389277409161178 0.2598761196336353 0  0.248448076747058 0.2389478879785275 0  0.5053822153261678 0.4716915524631118 0  0.229548765875869 0.2806542761043101 0  0.2254561407802683 0.2411354049374563 0  0.2350621310805047 0.2199181955146378 0  0.2117782450160163 0.222165061041625 0  0.2214249125635323 0.2008136877065064 0  0.2448758256083499 0.1985732693215908 0  0.197966291680556 0.2031211006951591 0  0.1883147493074436 0.2245564097761413 0  0.8910637266939049 0.5322898364209732 0  0.1748136087708587 0.2051141748992724 0  0.1842088801696792 0.1837087814679069 0  0.1656574100807746 0.2269812054689968 0  0.3554582346764377 0.4236292557112198 0  0.3328979939923831 0.425459320867588 0  0.3460368767112177 0.4435398346083328 0  0.3238464003
[...]
<PointData  Vectors="$u$"> 
<DataArray  type="Float64"  Name="$u$"  NumberOfComponents="3" format="ascii">-3.6202219716528402e-05 3.0896246519323997e-04 0.0000000000000000e+00  -6.6174932329615102e-05 5.0792252171069088e-04 0.0000000000000000e+00  -3.3584747076308194e-05 7.0872027304634186e-04 0.0000000000000000e+00  2.5137428872641532e-05 1.2500000000000000e-03 0.0000000000000000e+00  -3.6413604780318446e-04 1.2500000000000000e-03 0.0000000000000000e+00  -3.1691495807519135e-04 9.4028756961390752e-04 0.0000000000000000e+00  -3.1908461279308144e-04 5.4210716883444524e-04 0.0000000000000000e+00  -3.7742175606704308e-04 0.0000000000000000e+00 0.0000000000000000e+00  0.0000000000000000e+00 0.0000000000000000e+00 0.0000000000000000e+00  -4.1882928271522017e-05 3.3388836984941185e-04 0.0000000000000000e+00  -5.3688165655431096e-05 3.7810094562645738e-04 0.0000000000000000e+00  -6.2672208944422296e-05 4.3881618728948315e-04 0.0000000000000000e+00  -6.1761680375593668e-05 5.7786336644677610e-04 0.0000000000000000e+00  -5.1582608153151605e-05 6.3863894447581089e-04 0.0000000000000000e+00  -3.9677008117476431e-05 6.8288161412011716e-04 0.0000000000000000e+00  2.5126255652708140e-05 1.2206799727589313e-03 0.0000000000000000e+00  2.5092219013861273e-05 1.1913804713834513e-03 0.0000000000000000e+00  2.5029340882394805e-05 1.1621058342785159e-03 0.0000000000000000e+00  2.4947334460732456e-05 1.1328799381605968e-03 0.0000000000000000e+00  2.4829722951558979e-05 1.1037223454670459e-03 0.0000000000000000e+00  2.4679999473410758e-05 1.0746491788650630e-03 0.0000000000000000e+00  2.4485401574042740e-05 1.0456770073469022e-03 0.0000000000000000e+00  2.4253950414542043e-05 1.0168447612822480e-03 0.0000000000000000e+00  2.3957855455577464e-05 9.8816696292126894e-04 0.0000000000000000e+00  2.3623791180897450e-05 9.5971206553490751e-04 0.0000000000000000e+00  2.3155174005347258e-05 9.3148643754830036e-04 0.0000000000000000e+00  2.2675518251286103e-05 9.0358699251625349e-04 0.0000000000000000e+00  2.1995454082081146e-05 8.7608851826808602e-04 0.0000000000000000e+00  2.1213258689488587e-05 8.4909401327135244e-04 0.0000000000000000e+00  2.0196469840791562e-05 8.2278701947486915e-04 0.0000000000000000e+00  1.8914325864177631e-05 7.9741999935859886e-04 0.0000000000000000e+00  1.7112299083960717e-05 7.7338836602207427e-04 0.0000000000000000e+00  1.4603193301883961e-05 7.5116934107360956e-04 0.0000000000000000e+00  1.0685822259335124e-05 7.3187745667663078e-04 0.0000000000000000e+00  4.1908497013392032e-06 7.1696594312523586e-04 0.0000000000000000e+00  -7.7528901513157945e-06 7.0862885116549116e-04 0.0000000000000000e+00  -3.5558843565680414e-04 1.2500000000000000e-03 0.0000000000000000e+00  -3.4693270808385971e-04 1.2500000000000000e-03 0.0000000000000000e+00  -3.3809274315632561e-04 1.2500000000000000e-03 0.0000000000000000e+00  -3.2900409296866411e-04 1.2500000000000000e-03 0.0000000000000000e+00  -3.1964172534052875e-04 1.2500000000000000e-03 0.0000000000000000e+00  -3.1001636354387321e-04 1.2500000000000000e-03 0.0000000000000000e+00  -3.0013021112563305e-04 1.2500000000000000e-03 0.0000000000000000e+00  -2.9002891745304106e-04 1.2500000000000000e-03 0.0000000000000000e+00  -2.7978187901786826e-04 1.2500000000000000e-03 0.0000000000000000e+00  -2.6940334968738634e-04 1.2500000000000000e-03 0.0000000000000000e+00  -2.5894305846431480e-04 1.2500000000000000e-03 0.0000000000000000e+00  -2.4844345070142886e-04 1.2500000000000000e-03 0.0000000000000000e+00  -2.3793590269352981e-04 1.2500000000000000e-03 0.0000000000000000e+00  -2.2743635195816221e-04 1.2500000000000000e-03 0.0000000000000000e+00  -2.1696761908319851e-04 1.2500000000000000e-03 0.0000000000000000e+00  -2.0653683263310269e-04 1.2500000000000000e-03 0.0000000000000000e+00  -1.9615188869249526e-04 1.2500000000000000e-03 0.0000000000000000e+00  -1.8581647718222515e-04 1.2500000000000000e-03 0.0000000000000000e+00  -1.7553087219175629e-04 1.2500000000000000e-03 0.0000000000000000e+00  -1.6529643546743340e-04 1.2500000000000000e-03 0.0000000000000000e+00  -1.5511192701617751e-04 1.2500000000000000e-03 0.0000000000000000e+00  -1.4497758694702862e-04 1.2500000000000000e-03 0.0000000000000000e+00  -1.3489427989935360e-04 1.2500000000000000e-03 0.0000000000000000e+00  -1.2486285810438963e-04 1.2500000000000000e-03 0.0000000000000000e+00  -1.1488854141234939e-04 1.2500000000000000e-03 0.0000000000000000e+00  -1.0497112785251396e-04 1.2500000000000000e-03 0.0000000000000000e+00  -9.5121271500264314e-05 1.2500000000000000e-03 0.0000000000000000e+00  -8.5341059030104042e-05 1.2500000000000000e-03 0.0000000000000000e+00  -7.5637663692023697e-05 1.2500000000000000e-03 0.0000000000000000e+00  -6.6020124055085738e-05 1.2500000000000000e-03 0.0000000000000000e+00  -5.6491858510526285e-05 1.2500000000000000e-03 0.0000000000000000e+00  -4.7060916698022775e-05 1.2500000000000000e-03 0.0000000000000000e+00  -3.7731006280959851e-05 1.2500000000000000e-03 0.0000000000000000e+00  -2.8501432011995015e-05 1.2500000000000000e-03 0.0000000000000000e+00  -1.9370890876953526e-05 1.2500000000000000e-03 0.0000000000000000e+00  -1.0334180557612786e-05 1.2500000000000000e-03 0.0000000000000000e+00  -1.3811709343183038e-06 1.2500000000000000e-03 0.0000000000000000e+00  7.5032910538464140e-06 1.2500000000000000e-03 0.0000000000000000e+00  1.6334509912996121e-05 1.2500000000000000e-03 0.0000000000000000e+00  -3.4154502416049930e-04 9.3976923029679945e-04 0.0000000000000000e+00  -3.5240797890533792e-04 9.4794866354640489e-04 0.0000000000000000e+00  -3.5785962924268436e-04 9.6329703021348384e-04 0.0000000000000000e+00  -3.6068706938857447e-04 9.8290423036176866e-04 0.0000000000000000e+00  -3.6221537947734304e-04 1.0054254729273812e-03 0.0000000000000000e+00  -3.6307727049227659e-04 1.0298402511147271e-03 0.0000000000000000e+00  -3.6366091715305259e-04 1.0554687579863629e-03 0.0000000000000000e+00  -3.6385626894393458e-04 1.0820188383112411e-03 0.0000000000000000e+00  -3.6406480884955324e-04 1.1092440658696508e-03 0.0000000000000000e+00  -3.6411762324904478e-04 1.1369003677677064e-03 0.0000000000000000e+00  -3.6414396752271330e-04 1.1649050933842805e-03 0.0000000000000000e+00  -3.6413655410470259e-04 1.1931569968883363e-03 0.0000000000000000e+00  -3.6414316833403750e-04 1.2215407468012282e-03 0.0000000000000000e+00  -3.0881520954539443e-04 9.0986462742268523e-04 0.0000000000000000e+00  -2.9596703589955786e-04 8.5407634472600409e-04 0.0000000000000000e+00  -2.9038545324476387e-04 7.8027031008915597e-04 0.0000000000000000e+00  -2.8719859358643452e-04 7.0438710723036196e-04 0.0000000000000000e+00  -2.9825206684887967e-04 6.2640983120616431e-04 0.0000000000000000e+00  -3.1212000856304116e-04 5.7457685438392747e-04 0.0000000000000000e+00  -3.7741124852770538e-04 2.9341314940761705e-05 0.0000000000000000e+00  -3.7737605900522829e-04 5.8668516342430653e-05 0.0000000000000000e+00  -3.7731657997089563e-04 8.7964646217390281e-05 0.0000000000000000e+00  -3.7723373807392417e-04 1.1721686492413264e-04 0.0000000000000000e+00  -3.7711976234233258e-04 1.4639816194854290e-04 0.0000000000000000e+00  -3.7697229730827527e-04 1.7550419549541789e-04 0.0000000000000000e+00  -3.7679257484427931e-04 2.0449713071013411e-04 0.0000000000000000e+00  -3.7655716901542489e-04 2.3336039461366965e-04 0.0000000000000000e+00  -3.7627891243240211e-04 2.6205564825038075e-04 0.0000000000000000e+00  -3.7592026848563424e-04 2.9056625254629336e-04 0.0000000000000000e+00  -3.7550667989003322e-04 3.1881879020358514e-04 0.0000000000000000e+00  -3.7499610753322305e-04 3.4674467506848273e-04 0.0000000000000000e+00  -3.7432015685469490e-04 3.7431404622490964e-04 0.0000000000000000e+00  -3.7359110090295162e-04 4.0132948915186178e-04 0.0000000000000000e+00  -3.7256501342810134e-04 4.2770155351075313e-04 0.0000000000000000e+00  -3.7126823656397968e-04 4.5312710211667671e-04 0.0000000000000000e+00  -3.6949081972117775e-04 4.7732834488017472e-04 0.0000000000000000e+00  -3.6708916003101407e-04 4.9962158513579703e-04 0.0000000000000000e+00  -3.6309897565616069e-04 5.1905028985975465e-04 0.0000000000000000e+00  -3.5713971289005186e-04 5.3437767148145328e-04 0.0000000000000000e+00  -3.4462087427952239e-04 5.4238700096941852e-04 0.0000000000000000e+00  0.0000000000000000e+00 0.0000000000000000e+00 0.0000000000000000e+00  0.0000000000000000e+00 0.0000000000000000e+00 0.0000000000000000e+00  -1.3204259456679114e-05 0.0000000000000000e+00 0.0000000000000000e+00  -2.2345128200852705e-05 0.0000000000000000e+00 0.0000000000000000e+00  -3.2020268064619908e-05 0.0000000000000000e+00 0.0000000000000000e+00  -4.1787806650126040e-05 0.0000000000000000e+00 0.0000000000000000e+00  -5.1740012485394733e-05 0.0000000000000000e+00 0.0000000000000000e+00  -6.1894311307643862e-05 0.0000000000000000e+00 0.0000000000000000e+00  -7.2197949933881867e-05 0.0000000000000000e+00 0.0000000000000000e+00  -8.2617748952833046e-05 0.0000000000000000e+00 0.0000000000000000e+00  -9.3110405256453268e-05 0.0000000000000000e+00 0.0000000000000000e+00  -1.0363717834676085e-04 0.0000000000000000e+00 0.0000000000000000e+00  -1.1417517634165745e-04 0.0000000000000000e+00 0.0000000000000000e+00  -1.2469619369801429e-04 0.0000000000000000e+00 0.0000000000000000e+00  -1.3518667911974612e-04 0.0000000000000000e+00 0.0000000000000000e+00  -1.4563431498062793e-04 0.0000000000000000e+00 0.0000000000000000e+00  -1.5603486872564404e-04 0.0000000000000000e+00 0.0000000000000000e+00  -1.6638315262279332e-04 0.0000000000000000e+00 0.0000000000000000e+00  -1.7667860164370306e-04 0.0000000000000000e+00 0.0000000000000000e+00  -1.8692321163647850e-04 0.0000000000000000e+00 0.0000000000000000e+00  -1.9711435730215276e-04 0.0000000000000000e+00 0.0000000000000000e+00  -2.0725310960473261e-04 0.0000000000000000e+00 0.0000000000000000e+00  -2.1734033396363030e-04 0.0000000000000000e+00 0.0000000000000000e+00  -2.2737353923395131e-04 0.0000000000000000e+00 0.0000000000000000e+00  -2.3735092014512968e-04 0.0000000000000000e+00 0.0000000000000000e+00  -2.4726740783289535e-04 0.0000000000000000e+00 0.0000000000000000e+00  -2.5711968303396911e-04 0.0000000000000000e+00 0.0000000000000000e+00  -2.6690135878730423e-04 0.0000000000000000e+00 0.0000000000000000e+00  -2.7660500974351792e-04 0.0000000000000000e+00 0.0000000000000000e+00  -2.8622266683480334e-04 0.0000000000000000e+00 0.0000000000000000e+00  -2.9575421014684742e-04 0.0000000000000000e+00 0.0000000000000000e+00  -3.0518306139998226e-04 0.0000000000000000e+00 0.0000000000000000e+00  -3.1451744783145220e-04 0.0000000000000000e+00 0.0000000000000000e+00  -3.2374966033702076e-04 0.0000000000000000e+00 0.0000000000000000e+00  -3.3288185553599224e-04 0.0000000000000000e+00 0.0000000000000000e+00  -3.4192486811600325e-04 0.0000000000000000e+00 0.0000000000000000e+00  -3.5088103382459123e-04 0.0000000000000000e+00 0.0000000000000000e+00  -3.5977284533714063e-04 0.0000000000000000e+00 0.0000000000000000e+00  -3.6861021543112651e-04 0.0000000000000000e+00 0.0000000000000000e+00  -1.1029252326357995e-05 3.0876938566340548e-04 0.0000000000000000e+00  -2.3248558832558511e-07 3.0084706720217208e-04 0.0000000000000000e+00  5.2553447498850180e-06 2.8549010725867471e-04 0.0000000000000000e+00  8.2900156404622549e-06 2.6604704869254511e-04 0.0000000000000000e+00  9.8393064843653662e-06 2.4368128499939150e-04 0.0000000000000000e+00  1.0822841407346319e-05 2.1936527618456582e-04 0.0000000000000000e+00  1.1302987200807843e-05 1.9378781554527693e-04 0.0000000000000000e+00  1.1613350289780315e-05 1.6720846513558008e-04 0.0000000000000000e+00  1.1844713247237022e-05 1.4005576438449790e-04 0.0000000000000000e+00  1.1881850735799170e-05 1.1238912910763452e-04 0.0000000000000000e+00  1.2002327190862648e-05 8.4510206510201289e-05 0.0000000000000000e+00  1.1784648085751890e-05 5.6370235255921573e-05 0.0000000000000000e+00  1.1154758734915045e-05 2.9969601387627418e-05 0.0000000000000000e+00  -7.2609732079835455e-05 5.3461242447352345e-04 0.0000000000000000e+00  -1.9291782841607469e-04 2.7045978849162857e-05 0.0000000000000000e+00  -1.6023077017162122e-04 1.2226447182379636e-03 0.0000000000000000e+00  -2.9131426385716022e-04 6.8382017253500638e-04 0.0000000000000000e+00  1.2904883473108270e-05 8.0818302549677317e-04 0.0000000000000000e+00  -3.6566832602326848e-04 4.1307174640836300e-04 0.0000000000000000e+00  -1.4049907010556324e-04 2.7526444653869186e-05 0.0000000000000000e+00  -2.1171789104419006e-04 1.2223658852986107e-03 0.0000000000000000e+00  -1.0942193786621655e-04 1.2240688913357325e-03 0.0000000000000000e+00  -2.4229834843392595e-04 2.5984706905021618e-05 0.0000000000000000e+00  -2.9097247799344508e-04 8.0091707717948270e-04 0.0000000000000000e+00  -5.2803672828618519e-05 4.2649440241375632e-04 0.0000000000000000e+00  1.5054987754419641e-05 9.4129638002024021e-04 0.0000000000000000e+00  -8.7898716440234075e-05 2.6449677539731934e-05 0.0000000000000000e+00  -2.6414829253036594e-04 1.2240800550329159e-03 0.0000000000000000e+00  -3.6866060484261624e-04 3.0790392101359969e-04 0.0000000000000000e+00  -7.0830397629853182e-05 1.2249182702137585e-03 0.0000000000000000e+00  -2.8094617125590157e-04 2.7329982642494821e-05 0.0000000000000000e+00  3.9501265003259337e-06 2.3391665214735714e-04 0.0000000000000000e+00  -3.5632761993855311e-04 1.0149900703411699e-03 0.0000000000000000e+00  1.6160251347416433e-05 1.0587712934443591e-03 0.0000000000000000e+00  -3.6993652263036549e-04 1.9011928429014089e-04 0.0000000000000000e+00  -4.7605522733962719e-05 2.5091849194833431e-05 0.0000000000000000e+00  -3.0367116418141959e-04 1.2236806428128073e-03 0.0000000000000000e+00  -3.3574802180161727e-05 1.2229058052037928e-03 0.0000000000000000e+00  -3.1913524845543208e-04 2.6027914398352318e-05 0.0000000000000000e+00  7.3309651647954461e-06 7.3518104947552210e-04 0.0000000000000000e+00  -3.6276422013753484e-04 4.9110013298961992e-04 0.0000000000000000e+00  4.1344703305098229e-06 1.5375375125820855e-04 0.0000000000000000e+00  -3.5657284138775459e-04 1.0914793053568874e-03 0.0000000000000000e+00  -3.5096075550218429e-04 9.4712363238587827e-04 0.0000000000000000e+00  -3.7017749915662008e-04 1.0307036677570664e-04 0.0000000000000000e+00  1.8091081984965461e-05 1.1474823747759991e-03 0.0000000000000000e+00  -1.5412363794416554e-06 3.0178663471935559e-04 0.0000000000000000e+00  -1.8976064858846734e-05 2.5171138024562862e-05 0.0000000000000000e+00  -3.3356124349175618e-04 1.2287544198562863e-03 0.0000000000000000e+00  -2.9855232406992693e-05 6.4309369529233257e-04 0.0000000000000000e+00  -6.6400050488839454e-06 1.2244404245946123e-03 0.0000000000000000e+00  -3.4640608163980397e-04 2.5641000857668914e-05 0.0000000000000000e+00  1.4581325080297677e-05 8.6082398040430096e-04 0.0000000000000000e+00  -3.5639128720572324e-04 5.3416044490776915e-04 0.0000000000000000e+00  -1.0906855646785455e-04 3.0802349383651934e-05 0.0000000000000000e+00  -1.6126089165476864e-04 2.7500978850397219e-05 0.0000000000000000e+00  -2.1305318302603852e-04 2.4826816590936965e-05 0.0000000000000000e+00  -1.8038263218408566e-04 1.2233413866684579e-03 0.0000000000000000e+00  -1.3998202855594941e-04 1.2227220612240097e-03 0.0000000000000000e+00  -2.4310961281000555e-04 1.2225398373076565e-03 0.0000000000000000e+00  -8.9491637030949368e-05 1.2246749224824631e-03 0.0000000000000000e+00  -6.7093277449992441e-05 2.5765489106921188e-05 0.0000000000000000e+00  -2.6200500952751110e-04 2.6836613844134664e-05 0.0000000000000000e+00  4.4617682875602615e-06 9.9311929878628238e-05 0.0000000000000000e+00  -2.8628173295143424e-04 1.2233930764992524e-03 0.0000000000000000e+00  -5.1776492198267888e-05 1.2236958046518774e-03 0.0000000000000000e+00  -3.6911681957953792e-04 2.4716086048619246e-04 0.0000000000000000e+00  -3.6696678057053067e-04 3.6432246891482346e-04 0.0000000000000000e+00  -3.5755155148329686e-04 1.1505084340711128e-03 0.0000000000000000e+00  -3.0047038922457878e-04 2.5859650503128076e-05 0.0000000000000000e+00  1.6839110352471443e-05 1.0013977988882323e-03 0.0000000000000000e+00  -3.1699600438491073e-04 6.3685812582135108e-04 0.0000000000000000e+00  -3.0354281970068647e-04 6.6246696178098754e-04 0.0000000000000000e+00  -2.8667788011640840e-04 6.9811650954402366e-04 0.0000000000000000e+00  -2.9443539341993802e-04 6.7710390573401022e-04 0.0000000000000000e+00  -2.8198938085878804e-04 7.0807642484499900e-04 0.0000000000000000e+00  -2.8728166368950842e-04 6.8353832640572756e-04 0.0000000000000000e+00  -2.7803123323821177e-04 7.1233438641082187e-04 0.0000000000000000e+00  -2.8083182954781666e-04 6.8849644665369485e-04 0.0000000000000000e+00  -2.7373165512036435e-04 7.1634288326170934e-04 0.0000000000000000e+00  -2.7469377740704071e-04 6.9329197782976146e-04 0.0000000000000000e+00  -2.6900466736297314e-04 7.1960487651652894e-04 0.0000000000000000e+00  -2.6880853717457109e-04 6.9576154448553417e-04 0.0000000000000000e+00  -2.6375447154602515e-04 7.2241386469950263e-04 0.0000000000000000e+00  -2.6263593680340909e-04 6.9850679695477647e-04 0.0000000000000000e+00  -2.5803198618176769e-04 7.2512594701520461e-04 0.0000000000000000e+00  -2.5620373116459023e-04 7.0207202914557981e-04 0.0000000000000000e+00  -2.5189038835713383e-04 7.2801299849778196e-04 0.0000000000000000e+00  -2.4958170296322281e-04 7.0497408101227082e-04 0.0000000000000000e+00  -2.4544312181865014e-04 7.3069107509522746e-04 0.0000000000000000e+00  -2.4279268617812742e-04 7.0764576199207059e-04 0.0000000000000000e+00  -2.4747101952775677e-04 6.8193658107897472e-04 0.0000000000000000e+00  -2.4032785445020265e-04 6.8459734290221249e-04 0.0000000000000000e+00  -2.3583186632494552e-04 7.1021663780514318e-04 0.0000000000000000e+00  -2.3309702870941409e-04 6.8728668641536103e-04 0.0000000000000000e+00  -2.2871588466751380e-04 7.1285297508381570e-04 0.0000000000000000e+00  -2.2578964946377817e-04 6.8990662044508876e-04 0.0000000000000000e+00  -2.3027160689043783e-04 6.6317652600732442e-04 0.0000000000000000e+00  -2.2286387153452189e-04 6.6692248689979633e-04 0.0000000000000000e+00  -2.1840405493108559e-04 6.9243387986233132e-04 0.0000000000000000e+00  -2.1542938011403503e-04 6.6858591633388873e-04 0.0000000000000000e+00  -2.1095075862891420e-04 6.9484167285429157e-04 0.0000000000000000e+00  -2.0787422544230478e-04 6.7102835040300604e-04 0.0000000000000000e+00  -2.0343178844791531e-04 6.9720489658927081e-04 0.0000000000000000e+00  -2.0023584804305740e-04 6.7492197821794608e-04 0.0000000000000000e+00  -1.9584882230867112e-04 6.9993887002086708e-04 0.0000000000000000e+00  -1.9260097942654818e-04 6.7779233801230909e-04 0.0000000000000000e+00  -1.8821630282891874e-04 7.0269733999979715e-04 0.0000000000000000e+00  -1.8495244400167188e-04 6.8017594691055093e-04 0.0000000000000000e+00  -1.8054628180620946e-04 7.0524244128953868e-04 0.0000000000000000e+00  -1.7727963373296456e-04 6.8270379155098253e-04 0.0000000000000000e+00  -1.7282052239638311e-04 7.0781454639114042e-04 0.0000000000000000e+00  -1.8175543816223989e-04 6.5763868947159038e-04 0.0000000000000000e+00  -1.7409480088516859e-04 6.6016994353815901e-04 0.0000000000000000e+00  -2.1983033009701996e-04 6.4025658427699882e-04 0.0000000000000000e+00  -1.7860264414698297e-04 6.3516474483984694e-04 0.0000000000000000e+00  -1.7095706628794430e-04 6.3766144471072656e-04 0.0000000000000000e+00  -1.7548119115153217e-04 6.1268873724358488e-04 0.0000000000000000e+00  -1.6785893612964933e-04 6.1515473423488028e-04 0.0000000000000000e+00  -1.7227991145739644e-04 5.9037258010062751e-04 0.0000000000000000e+00  -1.6473384724784233e-04 5.9271505335309967e-04 0.0000000000000000e+00  -1.6912647624813356e-04 5.6787017515786255e-04 0.0000000000000000e+00  -1.6157663396195674e-04 5.7021324370012938e-04 0.0000000000000000e+00  -1.5712957841936996e-04 5.9504486655535653e-04 0.0000000000000000e+00  -1.6585271590347273e-04 5.4548126761777007e-04 0.0000000000000000e+00  -1.5836168373454019e-04 5.4778377910824475e-04 0.0000000000000000e+00  -1.9166708142086427e-04 7.2498282262110989e-04 0.000000000000