<?xml version="1.0"?>
<VTKFile type="UnstructuredGrid"  version="0.1"  >
<UnstructuredGrid>
<Piece  NumberOfPoints="2165" NumberOfCells="4161">
<Points>
<DataArray  type="Float64"  NumberOfComponents="3"  format="ascii">-3.598637933768527e-16 0.3500000000000001 0  0.05 0.4 0  -3.537405593811159e-16 0.45 0  0 1 0  1 1 0  0.9999999999999997 0.65 0  0.9999999999999997 0.5499999999999999 0  1 0 0  0 0 0  0.0191341716182545 0.3538060233744357 0  0.03535533905932737 0.3646446609406727 0  0.04619397662556433 0.3808658283817455 0  0.04619397662556434 0.4191341716182545 0  0.03535533905932738 0.4353553390593274 0  0.01913417161825449 0.4461939766255644 0  0 0.975 0  0 0.95 0  0 0.9249999999999999 0  0 0.8999999999999998 0  0 0.8749999999999998 0  0 0.8499999999999998 0  0 0.8249999999999997 0  0 0.7999999999999996 0  0 0.7749999999999996 0  0 0.7499999999999996 0  0 0.7249999999999996 0  0 0.6999999999999997 0  0 0.6749999999999998 0  0 0.6499999999999999 0  0 0.6249999999999999 0  0 0.6 0  0 0.575 0  0 0.5499999999999998 0  0 0.5249999999999999 0  0 0.4999999999999998 0  0 0.4749999999999999 0  0.975 1 0  0.95 1 0  0.925 1 0  0.9 1 0  0.875 1 0  0.85 1 0  0.825 1 0  0.8 1 0  0.775 1 0  0.75 1 0  0.725 1 0  0.7 1 0  0.675 1 0  0.65 1 0  0.625 1 0  0.6 1 0  0.575 1 0  0.55 1 0  0.525 1 0  0.5 1 0  0.475 1 0  0.45 1 0  0.425 1 0  0.4 1 0  0.375 1 0  0.35 1 0  0.325 1 0  0.3 1 0  0.275 1 0  0.25 1 0  0.225 1 0  0.2 1 0  0.175 1 0  0.15 1 0  0.125 1 0  0.09999999999999998 1 0  0.07499999999999996 1 0  0.05000000000000004 1 0  0.02500000000000002 1 0  1 0.675 0  1 0.7000000000000001 0  1 0.7250000000000001 0  1 0.7500000000000001 0  1 0.7750000000000001 0  1 0.8000000000000002 0  1 0.8250000000000002 0  1 0.8500000000000002 0  1 0.8750000000000003 0  1 0.9000000000000001 0  1 0.9250000000000002 0  1 0.9500000000000001 0  1 0.9750000000000001 0  0.9783058130441221 0.6450484433951209 0  0.9609084258765985 0.6311744900929367 0  0.9512536043909088 0.6111260466978157 0  0.9512536043909088 0.5888739533021843 0  0.9609084258765985 0.5688255099070633 0  0.9783058130441221 0.554951556604879 0  1 0.02500000000000002 0  1 0.05000000000000004 0  1 0.07500000000000008 0  1 0.1000000000000001 0  1 0.1250000000000001 0  1 0.1500000000000002 0  1 0.1750000000000002 0  1 0.2000000000000003 0  1 0.2250000000000003 0  1 0.2500000000000004 0  1 0.2750000000000004 0  1 0.3000000000000003 0  1 0.3250000000000002 0  1 0.3500000000000001 0  1 0.3750000000000001 0  1 0.3999999999999999 0  1 0.425 0  1 0.45 0  1 0.475 0  1 0.5000000000000001 0  1 0.5249999999999999 0  0.025 0 0  0.05 0 0  0.075 0 0  0.1 0 0  0.125 0 0  0.15 0 0  0.175 0 0  0.2 0 0  0.225 0 0  0.25 0 0  0.275 0 0  0.3 0 0  0.325 0 0  0.35 0 0  0.375 0 0  0.4 0 0  0.425 0 0  0.45 0 0  0.475 0 0  0.5 0 0  0.525 0 0  0.55 0 0  0.575 0 0  0.6 0 0  0.625 0 0  0.65 0 0  0.675 0 0  0.7 0 0  0.725 0 0  0.75 0 0  0.775 0 0  0.8 0 0  0.825 0 0  0.85 0 0  0.875 0 0  0.9 0 0  0.925 0 0  0.95 0 0  0.975 0 0  0 0.3250000000000001 0  0 0.3 0  0 0.275 0  0 0.2499999999999999 0  0 0.2249999999999999 0  0 0.1999999999999998 0  0 0.1749999999999998 0  0 0.1499999999999998 0  0 0.1249999999999998 0  0 0.09999999999999987 0  0 0.07499999999999984 0  0 0.04999999999999993 0  0 0.02500000000000002 0  0.06453325334544308 0.4134708543086404 0  0.5146839915088474 0.02134387884913819 0  0.4875871001393628 0.9784117024331356 0  0.9386300160094723 0.5701776715936071 0  0.0216506350946109 0.6124999999999999 0  0.9764205887290853 0.3596067946540696 0  0.3876261045932067 0.02156097490657183 0  0.6125 0.978349364905389 0  0.3612127461797463 0.9792371404802113 0  0.6374786650398092 0.02079982608537345 0  0.9387185538472446 0.6295115890709873 0  0.05482260092545593 0.3633687091864355 0  0.02445354803948679 0.7343198207875321 0  0.2624888813627476 0.02091671348578122 0  0.7375212991274043 0.9794996488945376 0  0.9793010831723812 0.2648509348664836 0  0.2625026480689301 0.9795699185263282 0  0.7362840788105066 0.02225211062275217 0  0.02159327910297104 0.2128861809896528 0  0.9786837570973538 0.7867241244631172 0  0.02419728000065929 0.8365600234152764 0  0.980043283615984 0.1624097203408714 0  0.1645857434226354 0.0205513501962844 0  0.8339481359352011 0.9784483546369231 0  0.1637584777222821 0.9774556328160621 0  0.8374916614314967 0.02165097219510076 0  0.02171915379676059 0.5370700005916152 0  0.9795335762511281 0.4365726939225819 0  0.02319480745007968 0.1370197632171214 0  0.9774462976085161 0.8592616917551974 0  0.9786941241076723 0.7122511101067891 0  0.9797883857882621 0.08781864217752949 0  0.01966314788989931 0.9125801876811624 0  0.02051815350151098 0.2882126194470174 0  0.09063226699593246 0.0214884092697174 0  0.9124408843562394 0.9818463395009377 0  0.03872465516591678 0.452731089005145 0  0.08969424365256845 0.978412979507602 0  0.9124999999999999 0.02165063509461096 0  0.02158104789437187 0.6619299176372371 0  0.9796602354625652 0.4859004208706154 0  0.3127517983598529 0.02417963694738812 0  0.4375629605000894 0.02158039900821679 0  0.5643674594196073 0.01968996000301126 0  0.5368361594956101 0.9790428840407062 0  0.4376176251051295 0.9783667484208922 0  0.6874072695660477 0.978435143102373 0  0.310604317388614 0.979558305560928 0  0.2125577044121564 0.02066685543111635 0  0.6875 0.0216506350946109 0  0.02224009810917643 0.08811420611559456 0  0.790876428529276 0.978633065284896 0  0.2125 0.978349364905389 0  0.9788033534786624 0.2116925349935155 0  0.9769441169344462 0.3150381335760689 0  0.9804648376981185 0.9123186437266726 0  0.7874999988222203 0.02127957051165741 0  0.02109233852270731 0.786866823287435 0  0.9483709287873718 0.5504073206521916 0  0.9259842326464427 0.5519702047534598 0  0.9163209045278007 0.5719292915927929 0  0.9035374059862284 0.5537291796040291 0  0.8938951918780048 0.5738949757882954 0  0.8807940177559743 0.5546750869516996 0  0.8712661812741653 0.5757142549099102 0  0.8580668865514332 0.5563902430113601 0  0.848508161986991 0.5779004013072002 0  0.8354274200119249 0.5591176379057713 0  0.8256349826905482 0.5800610629400762 0  0.8124123591208572 0.5604454546391737 0  0.802603410938817 0.5819653950592523 0  0.7892876429890218 0.562234610648543 0  0.7794355871850538 0.583896242519796 0  0.7661469824381839 0.5648243426306435 0  0.7562387679604726 0.5860005456930413 0  0.7429651600512166 0.5669367633461588 0  0.7330846968880171 0.5879590907760761 0  0.7198577999459205 0.5688986880627463 0  0.7297050500533544 0.5479561801187277 0  0.7066243396993471 0.5499068108517552 0  0.6968285086900206 0.5707989520567972 0  0.6836266810714333 0.5519088927359967 0  0.6738604685766018 0.5727655091567184 0  0.6607284761452521 0.5538781923028128 0  0.6697149783704412 0.5321140554135094 0  0.6473436039782401 0.5350050604671006 0  0.6378867365666199 0.5557804038095817 0  0.6246915360243652 0.5362124690568238 0  0.6151175309583405 0.5575933164645619 0  0.6019784180102355 0.5380659376543677 0  0.5924099113505394 0.5593739656462906 0  0.5794110962027638 0.541110021814312 0  0.5697985396917309 0.5614600003719357 0  0.5568468707330213 0.5433212932327446 0  0.5472634011377896 0.5635652141280936 0  0.5343236363495072 0.5451361960661517 0  0.5247877773262166 0.565493591892781 0  0.5118927934227436 0.5470665328397559 0  0.5023398230005425 0.5674381114577953 0  0.5213991904098014 0.5267047787870831 0  0.4990390504096661 0.528649139287786 0  0.6328887517229864 0.5131744321062524 0  0.5085133205790763 0.5083322037773296 0  0.4861972978925295 0.5102540920324363 0  0.4956914791804768 0.4899605513008993 0  0.4734139980312694 0.4918582759645476 0  0.4826986629698439 0.4717164019717278 0  0.460570567761715 0.473509155475794 0  0.4699344541058981 0.4533140529328089 0  0.4477087341565655 0.4550973130597117 0  0.4381733274019614 0.4752901381741884 0  0.4570222843287571 0.4349938694701042 0  0.4348599018247688 0.436728068420533 0  0.5604623134382263 0.581815997002507 0  0.4443612964408632 0.416499823314016 0  0.422056299386984 0.4183730429856528 0  0.4688721528228815 0.4135009841763965 0  0.4315584877924544 0.398120546824229 0  0.4092288692044618 0.3999974286008185 0  0.7463210599443056 0.6070829843371945 0  0.4187270626688335 0.3797365044773463 0  0.3964262302393312 0.3817184136470017 0  0.3869780036193907 0.4018498778543814 0  0.3742423843122406 0.3837055716372927 0  0.3648701490102072 0.4037049758807119 0  0.3518115403926748 0.3858985036587403 0  0.3426146276710081 0.4056777495658291 0  0.3614541441355358 0.3656396497906528 0  0.339026673715919 0.3678724679736439 0  0.3485566370135618 0.3476560889674916 0  0.3264681821394378 0.3496422822523857 0  0.8219942777991693 0.5379143061758643 0  0.3358297439968608 0.3295117748868035 0  0.3137050884585635 0.3314921667582986 0  0.3229980644152205 0.3113561769498422 0  0.3007986024336577 0.3133063832007756 0  0.3441851868720173 0.3085211458266175 0  0.3101966551534752 0.2930273704914169 0  0.287793053707373 0.2950088132226583 0  0.2914417217227097 0.3337427541189321 0  0.2975120686695638 0.2743682539701985 0  0.274864585256681 0.2764253296978281 0  0.816026571618698 0.6006851919544112 0  0.2844672854128698 0.2557011565880619 0  0.2617267434509338 0.2577713002235077 0  0.3072711221189672 0.2536790056475094 0  0.2521588568690318 0.2785072139143895 0  0.2389277409161178 0.2598761196336353 0  0.248448076747058 0.2389478879785275 0  0.5053822153261678 0.4716915524631118 0  0.229548765875869 0.2806542761043101 0  0.2254561407802683 0.2411354049374563 0  0.2350621310805047 0.2199181955146378 0  0.2117782450160163 0.222165061041625 0  0.2214249125635323 0.2008136877065064 0  0.2448758256083499 0.1985732693215908 0  0.197966291680556 0.2031211006951591 0  0.1883147493074436 0.2245564097761413 0  0.8910637266939049 0.5322898364209732 0  0.1748136087708587 0.2051141748992724 0  0.1842088801696792 0.1837087814679069 0  0.1656574100807746 0.2269812054689968 0  0.3554582346764377 0.4236292557112198 0  0.3328979939923831 0.425459320867588 0  0.3460368767112177 0.4435398346083328 0  0.3238464003
[...]
<PointData  Vectors="$u$"> 
<DataArray  type="Float64"  Name="$u$"  NumberOfComponents="3" format="ascii">-2.1465212824632746e-05 1.8619231405485575e-04 0.0000000000000000e+00  -3.9299628261858422e-05 3.0468871047083836e-04 0.0000000000000000e+00  -1.9925130149945678e-05 4.2428022336901423e-04 0.0000000000000000e+00  1.5140187913747917e-05 7.5000000000000002e-04 0.0000000000000000e+00  -2.1834360423613917e-04 7.5000000000000002e-04 0.0000000000000000e+00  -1.9013028809982259e-04 5.6334826912363047e-04 0.0000000000000000e+00  -1.9150115014689628e-04 3.2630133579294941e-04 0.0000000000000000e+00  -2.2622133065305425e-04 0.0000000000000000e+00 0.0000000000000000e+00  0.0000000000000000e+00 0.0000000000000000e+00 0.0000000000000000e+00  -2.4620444489689648e-05 2.0111389162031171e-04 0.0000000000000000e+00  -3.1487507950095544e-05 2.2781045205454316e-04 0.0000000000000000e+00  -3.7107389603854721e-05 2.6386804982938904e-04 0.0000000000000000e+00  -3.6525758939014458e-05 3.4597727231911140e-04 0.0000000000000000e+00  -3.0218174183226722e-05 3.8222768306859367e-04 0.0000000000000000e+00  -2.3328094497369406e-05 4.0879454321926463e-04 0.0000000000000000e+00  1.5133005278984155e-05 7.3239742834445222e-04 0.0000000000000000e+00  1.5112578500411010e-05 7.1480595630466642e-04 0.0000000000000000e+00  1.5075729896411575e-05 6.9722960086791895e-04 0.0000000000000000e+00  1.5027609776724428e-05 6.7968295860911833e-04 0.0000000000000000e+00  1.4958202811166984e-05 6.6217668280221928e-04 0.0000000000000000e+00  1.4868827859993754e-05 6.4471935714964306e-04 0.0000000000000000e+00  1.4754609211925860e-05 6.2732327873579925e-04 0.0000000000000000e+00  1.4617310457041740e-05 6.1001063199873158e-04 0.0000000000000000e+00  1.4442028782149492e-05 5.9279069993391361e-04 0.0000000000000000e+00  1.4244157121054975e-05 5.7570195598846945e-04 0.0000000000000000e+00  1.3966759497002746e-05 5.5875089147851438e-04 0.0000000000000000e+00  1.3682227790450340e-05 5.4199720546116372e-04 0.0000000000000000e+00  1.3281437326835759e-05 5.2547277026721809e-04 0.0000000000000000e+00  1.2820023089156451e-05 5.0925720676155400e-04 0.0000000000000000e+00  1.2219049537841822e-05 4.9345501560257052e-04 0.0000000000000000e+00  1.1454724612700430e-05 4.7820954941954811e-04 0.0000000000000000e+00  1.0391008067859761e-05 4.6375417219126638e-04 0.0000000000000000e+00  8.8935135496923643e-06 4.5040131083492975e-04 0.0000000000000000e+00  6.5434198560519645e-06 4.3879540919897241e-04 0.0000000000000000e+00  2.6494044356376139e-06 4.2979160868719083e-04 0.0000000000000000e+00  -4.5187372304395544e-06 4.2458115135703459e-04 0.0000000000000000e+00  -2.1320688839639472e-04 7.5000000000000002e-04 0.0000000000000000e+00  -2.0800798232339864e-04 7.5000000000000002e-04 0.0000000000000000e+00  -2.0269926304553536e-04 7.5000000000000002e-04 0.0000000000000000e+00  -1.9724195330580655e-04 7.5000000000000002e-04 0.0000000000000000e+00  -1.9162399340813332e-04 7.5000000000000002e-04 0.0000000000000000e+00  -1.8584870013189914e-04 7.5000000000000002e-04 0.0000000000000000e+00  -1.7991671325937031e-04 7.5000000000000002e-04 0.0000000000000000e+00  -1.7386150127103592e-04 7.5000000000000002e-04 0.0000000000000000e+00  -1.6771951287738150e-04 7.5000000000000002e-04 0.0000000000000000e+00  -1.6149986524675178e-04 7.5000000000000002e-04 0.0000000000000000e+00  -1.5523010201839386e-04 7.5000000000000002e-04 0.0000000000000000e+00  -1.4893771295829727e-04 7.5000000000000002e-04 0.0000000000000000e+00  -1.4264062401871759e-04 7.5000000000000002e-04 0.0000000000000000e+00  -1.3634875286013497e-04 7.5000000000000002e-04 0.0000000000000000e+00  -1.3007469673965023e-04 7.5000000000000002e-04 0.0000000000000000e+00  -1.2382339394547068e-04 7.5000000000000002e-04 0.0000000000000000e+00  -1.1759920681367459e-04 7.5000000000000002e-04 0.0000000000000000e+00  -1.1140427955902584e-04 7.5000000000000002e-04 0.0000000000000000e+00  -1.0523899709407031e-04 7.5000000000000002e-04 0.0000000000000000e+00  -9.9103925059523018e-05 7.5000000000000002e-04 0.0000000000000000e+00  -9.2998303764235804e-05 7.5000000000000002e-04 0.0000000000000000e+00  -8.6922420448338247e-05 7.5000000000000002e-04 0.0000000000000000e+00  -8.0876619322870958e-05 7.5000000000000002e-04 0.0000000000000000e+00  -7.4861662674292854e-05 7.5000000000000002e-04 0.0000000000000000e+00  -6.8880425037775651e-05 7.5000000000000002e-04 0.0000000000000000e+00  -6.2933311675632177e-05 7.5000000000000002e-04 0.0000000000000000e+00  -5.7026352361390926e-05 7.5000000000000002e-04 0.0000000000000000e+00  -5.1160650083994602e-05 7.5000000000000002e-04 0.0000000000000000e+00  -4.5340764072136849e-05 7.5000000000000002e-04 0.0000000000000000e+00  -3.9571378398821498e-05 7.5000000000000002e-04 0.0000000000000000e+00  -3.3855306233481722e-05 7.5000000000000002e-04 0.0000000000000000e+00  -2.8196934759165850e-05 7.5000000000000002e-04 0.0000000000000000e+00  -2.2598430817027197e-05 7.5000000000000002e-04 0.0000000000000000e+00  -1.7059694779117912e-05 7.5000000000000002e-04 0.0000000000000000e+00  -1.1579745634952374e-05 7.5000000000000002e-04 0.0000000000000000e+00  -6.1555797477253019e-06 7.5000000000000002e-04 0.0000000000000000e+00  -7.8098924356259988e-07 7.5000000000000002e-04 0.0000000000000000e+00  4.5527900509301285e-06 7.5000000000000002e-04 0.0000000000000000e+00  9.8547592935985437e-06 7.5000000000000002e-04 0.0000000000000000e+00  -2.0482783438372808e-04 5.6324745993810519e-04 0.0000000000000000e+00  -2.1140521994991062e-04 5.6832443773818103e-04 0.0000000000000000e+00  -2.1462300197771299e-04 5.7761287918979510e-04 0.0000000000000000e+00  -2.1631442058897533e-04 5.8945976586679953e-04 0.0000000000000000e+00  -2.1721530490230188e-04 6.0302884406681766e-04 0.0000000000000000e+00  -2.1772498506397416e-04 6.1770121576415547e-04 0.0000000000000000e+00  -2.1806569433551934e-04 6.3312617776032948e-04 0.0000000000000000e+00  -2.1818098372103432e-04 6.4907364220763832e-04 0.0000000000000000e+00  -2.1830076546626125e-04 6.6543389505218319e-04 0.0000000000000000e+00  -2.1833572620095801e-04 6.8205584304453510e-04 0.0000000000000000e+00  -2.1834810465595062e-04 6.9888167970738255e-04 0.0000000000000000e+00  -2.1834432113316480e-04 7.1585236661846074e-04 0.0000000000000000e+00  -2.1834647518274012e-04 7.3290489999536983e-04 0.0000000000000000e+00  -1.8563306683986658e-04 5.4471273753172703e-04 0.0000000000000000e+00  -1.7822980132192729e-04 5.1110360105707743e-04 0.0000000000000000e+00  -1.7469894686887905e-04 4.6765882927613423e-04 0.0000000000000000e+00  -1.7239751167009147e-04 4.2307009630777344e-04 0.0000000000000000e+00  -1.7963514070063955e-04 3.7731211940548884e-04 0.0000000000000000e+00  -1.8764328614761058e-04 3.4600229700304378e-04 0.0000000000000000e+00  -2.2621495382911216e-04 1.7618736108723251e-05 0.0000000000000000e+00  -2.2619414979833567e-04 3.5229703508557600e-05 0.0000000000000000e+00  -2.2615863685491175e-04 5.2822429430014440e-05 0.0000000000000000e+00  -2.2610994267401280e-04 7.0388535260575450e-05 0.0000000000000000e+00  -2.2604308230213775e-04 8.7913296070963031e-05 0.0000000000000000e+00  -2.2595635387460912e-04 1.0539246936707350e-04 0.0000000000000000e+00  -2.2585147515086671e-04 1.2280479070758246e-04 0.0000000000000000e+00  -2.2571166949055031e-04 1.4013914172872008e-04 0.0000000000000000e+00  -2.2554642234518169e-04 1.5737718195537543e-04 0.0000000000000000e+00  -2.2533595302303057e-04 1.7450328875587797e-04 0.0000000000000000e+00  -2.2509314393040782e-04 1.9147366557484161e-04 0.0000000000000000e+00  -2.2478803376304034e-04 2.0825604373590488e-04 0.0000000000000000e+00  -2.2438932167554137e-04 2.2482075088774880e-04 0.0000000000000000e+00  -2.2396150456503299e-04 2.4105404367964493e-04 0.0000000000000000e+00  -2.2335854682829789e-04 2.5691165656167462e-04 0.0000000000000000e+00  -2.2258491677544550e-04 2.7220732276960152e-04 0.0000000000000000e+00  -2.2153488935165255e-04 2.8676541614298349e-04 0.0000000000000000e+00  -2.2010127793861928e-04 3.0018003958094805e-04 0.0000000000000000e+00  -2.1772689236656693e-04 3.1191412098111211e-04 0.0000000000000000e+00  -2.1417276186845284e-04 3.2113652100777509e-04 0.0000000000000000e+00  -2.0662580347309475e-04 3.2629801532282779e-04 0.0000000000000000e+00  0.0000000000000000e+00 0.0000000000000000e+00 0.0000000000000000e+00  0.0000000000000000e+00 0.0000000000000000e+00 0.0000000000000000e+00  -7.5005259548248614e-06 0.0000000000000000e+00 0.0000000000000000e+00  -1.3234657612087322e-05 0.0000000000000000e+00 0.0000000000000000e+00  -1.9037800265072187e-05 0.0000000000000000e+00 0.0000000000000000e+00  -2.4903780173422609e-05 0.0000000000000000e+00 0.0000000000000000e+00  -3.0882630333410041e-05 0.0000000000000000e+00 0.0000000000000000e+00  -3.6973909648794142e-05 0.0000000000000000e+00 0.0000000000000000e+00  -4.3154129739936405e-05 0.0000000000000000e+00 0.0000000000000000e+00  -4.9402282419012553e-05 0.0000000000000000e+00 0.0000000000000000e+00  -5.5693474067474631e-05 0.0000000000000000e+00 0.0000000000000000e+00  -6.2004502786203863e-05 0.0000000000000000e+00 0.0000000000000000e+00  -6.8321902047775300e-05 0.0000000000000000e+00 0.0000000000000000e+00  -7.4629017899953187e-05 0.0000000000000000e+00 0.0000000000000000e+00  -8.0917398848478101e-05 0.0000000000000000e+00 0.0000000000000000e+00  -8.7180519489605130e-05 0.0000000000000000e+00 0.0000000000000000e+00  -9.3415250955466056e-05 0.0000000000000000e+00 0.0000000000000000e+00  -9.9619054773510308e-05 0.0000000000000000e+00 0.0000000000000000e+00  -1.0579114917769582e-04 0.0000000000000000e+00 0.0000000000000000e+00  -1.1193276085569867e-04 0.0000000000000000e+00 0.0000000000000000e+00  -1.1804278091294892e-04 0.0000000000000000e+00 0.0000000000000000e+00  -1.2412154723604742e-04 0.0000000000000000e+00 0.0000000000000000e+00  -1.3016959618422712e-04 0.0000000000000000e+00 0.0000000000000000e+00  -1.3618564006157979e-04 0.0000000000000000e+00 0.0000000000000000e+00  -1.4216832803005274e-04 0.0000000000000000e+00 0.0000000000000000e+00  -1.4811503837531840e-04 0.0000000000000000e+00 0.0000000000000000e+00  -1.5402337199324159e-04 0.0000000000000000e+00 0.0000000000000000e+00  -1.5989015010447382e-04 0.0000000000000000e+00 0.0000000000000000e+00  -1.6571038501957133e-04 0.0000000000000000e+00 0.0000000000000000e+00  -1.7148016483191863e-04 0.0000000000000000e+00 0.0000000000000000e+00  -1.7719788235701222e-04 0.0000000000000000e+00 0.0000000000000000e+00  -1.8285539884876174e-04 0.0000000000000000e+00 0.0000000000000000e+00  -1.8845622981661286e-04 0.0000000000000000e+00 0.0000000000000000e+00  -1.9399706903720443e-04 0.0000000000000000e+00 0.0000000000000000e+00  -1.9947897775617930e-04 0.0000000000000000e+00 0.0000000000000000e+00  -2.0490710257614207e-04 0.0000000000000000e+00 0.0000000000000000e+00  -2.1028380241336822e-04 0.0000000000000000e+00 0.0000000000000000e+00  -2.1562302512282425e-04 0.0000000000000000e+00 0.0000000000000000e+00  -2.2092970559433014e-04 0.0000000000000000e+00 0.0000000000000000e+00  -6.4776248281041295e-06 1.8574347093642011e-04 0.0000000000000000e+00  6.0498636654647910e-08 1.8070728879637180e-04 0.0000000000000000e+00  3.3348753828503430e-06 1.7152378037921305e-04 0.0000000000000000e+00  5.1427570221503774e-06 1.5979505681526783e-04 0.0000000000000000e+00  6.0787530848731493e-06 1.4635527294732862e-04 0.0000000000000000e+00  6.6666033556301140e-06 1.3174011445978682e-04 0.0000000000000000e+00  6.9452157495136716e-06 1.1636316515623623e-04 0.0000000000000000e+00  7.1337574169952907e-06 1.0040405786089802e-04 0.0000000000000000e+00  7.2693692568527399e-06 8.4081427779145694e-05 0.0000000000000000e+00  7.2974071462670560e-06 6.7481763204171763e-05 0.0000000000000000e+00  7.3550900294860964e-06 5.0727895792420687e-05 0.0000000000000000e+00  7.2342109372818980e-06 3.3959649326241001e-05 0.0000000000000000e+00  6.5786360783203341e-06 1.7883114222417299e-05 0.0000000000000000e+00  -4.2852993625350038e-05 3.2077431181830605e-04 0.0000000000000000e+00  -1.1552725530800765e-04 1.6225452699784182e-05 0.0000000000000000e+00  -9.6066817081746431e-05 7.3358926377289468e-04 0.0000000000000000e+00  -1.7531384555881643e-04 4.0999962806673586e-04 0.0000000000000000e+00  7.8358017401798187e-06 4.8464862607003887e-04 0.0000000000000000e+00  -2.1920090991407712e-04 2.4812533509153235e-04 0.0000000000000000e+00  -8.4103236490369365e-05 1.6512887166818538e-05 0.0000000000000000e+00  -1.2692757653051223e-04 7.3342326526930303e-04 0.0000000000000000e+00  -6.5602607183349945e-05 7.3444136914348679e-04 0.0000000000000000e+00  -1.4513533712267129e-04 1.5591359559958671e-05 0.0000000000000000e+00  -1.7491837139296901e-04 4.8107371237268053e-04 0.0000000000000000e+00  -3.1407891900559707e-05 2.5568851370780780e-04 0.0000000000000000e+00  9.0991029385667202e-06 5.6463857326308827e-04 0.0000000000000000e+00  -5.2570445089906615e-05 1.5869144488806485e-05 0.0000000000000000e+00  -1.5834856578565026e-04 7.3444893663993072e-04 0.0000000000000000e+00  -2.2097800252484292e-04 1.8492131325018659e-04 0.0000000000000000e+00  -4.2456783492781004e-05 7.3494837902971953e-04 0.0000000000000000e+00  -1.6831493886159370e-04 1.6402231609949962e-05 0.0000000000000000e+00  2.5302628870356477e-06 1.4053266777596288e-04 0.0000000000000000e+00  -2.1365822707444625e-04 6.0874357603814277e-04 0.0000000000000000e+00  9.7540620064750601e-06 6.3518518017555235e-04 0.0000000000000000e+00  -2.2173230405828708e-04 1.1417047781161742e-04 0.0000000000000000e+00  -2.8401051027631354e-05 1.5060983065602611e-05 0.0000000000000000e+00  -1.8204288823409884e-04 7.3420117600253923e-04 0.0000000000000000e+00  -2.0103984230189483e-05 7.3373702678185878e-04 0.0000000000000000e+00  -1.9122800316949943e-04 1.5624942512848141e-05 0.0000000000000000e+00  4.5231383962690718e-06 4.4068369958801478e-04 0.0000000000000000e+00  -2.1749388078285184e-04 2.9510372718257366e-04 0.0000000000000000e+00  2.6378150374382309e-06 9.2330497175276661e-05 0.0000000000000000e+00  -2.1379953062687835e-04 6.5474980847115736e-04 0.0000000000000000e+00  -2.1046804895271770e-04 5.6773333333897107e-04 0.0000000000000000e+00  -2.2187178954325142e-04 6.1893773029797182e-05 0.0000000000000000e+00  1.0910293502749821e-05 6.8844980373302344e-04 0.0000000000000000e+00  -7.9899404387119518e-07 1.8144051862281418e-04 0.0000000000000000e+00  -1.1274739042703878e-05 1.5147620562424321e-05 0.0000000000000000e+00  -1.9998067388435879e-04 7.3724176998075973e-04 0.0000000000000000e+00  -1.7937085642556911e-05 3.8565116625880445e-04 0.0000000000000000e+00  -3.9378041329455759e-06 7.3465552609810092e-04 0.0000000000000000e+00  -2.0759777493536708e-04 1.5395340689221203e-05 0.0000000000000000e+00  8.8299988270962732e-06 5.1629772061467718e-04 0.0000000000000000e+00  -2.1364699413066723e-04 3.2109870879960323e-04 0.0000000000000000e+00  -6.5261985191778592e-05 1.8479139197283298e-05 0.0000000000000000e+00  -9.6549032617310288e-05 1.6497752576375656e-05 0.0000000000000000e+00  -1.2759941802155126e-04 1.4895001074796147e-05 0.0000000000000000e+00  -1.0814675582103516e-04 7.3400799596565246e-04 0.0000000000000000e+00  -8.3927190205690280e-05 7.3363476053985141e-04 0.0000000000000000e+00  -1.4574021995962478e-04 7.3352671198965590e-04 0.0000000000000000e+00  -5.3649983616472764e-05 7.3480393222898153e-04 0.0000000000000000e+00  -4.0093448601201885e-05 1.5460829656911847e-05 0.0000000000000000e+00  -1.5695327296224025e-04 1.6104346352985196e-05 0.0000000000000000e+00  2.8282597428535978e-06 5.9626220683472128e-05 0.0000000000000000e+00  -1.7161627399645384e-04 7.3403398783103901e-04 0.0000000000000000e+00  -3.1026274292550584e-05 7.3421299452102861e-04 0.0000000000000000e+00  -2.2124197525339148e-04 1.4843193741539493e-04 0.0000000000000000e+00  -2.1996763434748286e-04 2.1881918544342318e-04 0.0000000000000000e+00  -2.1438817122167798e-04 6.9022478890705798e-04 0.0000000000000000e+00  -1.8002735217489149e-04 1.5521340083227268e-05 0.0000000000000000e+00  1.0164887115228864e-05 6.0073155076033151e-04 0.0000000000000000e+00  -1.8967340603827986e-04 3.8200734584379210e-04 0.0000000000000000e+00  -1.8215980568218556e-04 3.9782477847608228e-04 0.0000000000000000e+00  -1.7224836419792665e-04 4.1930294271390052e-04 0.0000000000000000e+00  -1.7669594735769177e-04 4.0625714716139628e-04 0.0000000000000000e+00  -1.6948265398767726e-04 4.2477047566615543e-04 0.0000000000000000e+00  -1.7245006308031407e-04 4.1020031167720672e-04 0.0000000000000000e+00  -1.6699426228073520e-04 4.2748735278147292e-04 0.0000000000000000e+00  -1.6858742039871998e-04 4.1311937678702529e-04 0.0000000000000000e+00  -1.6436659188368585e-04 4.2982379001807209e-04 0.0000000000000000e+00  -1.6489021403199775e-04 4.1601124236108344e-04 0.0000000000000000e+00  -1.6149017751949986e-04 4.3180196089584834e-04 0.0000000000000000e+00  -1.6133803523265666e-04 4.1748329375875469e-04 0.0000000000000000e+00  -1.5831204502641256e-04 4.3347881896685977e-04 0.0000000000000000e+00  -1.5761255408802666e-04 4.1913128966357481e-04 0.0000000000000000e+00  -1.5485235474751259e-04 4.3510805063229737e-04 0.0000000000000000e+00  -1.5373410654035373e-04 4.2126864920285546e-04 0.0000000000000000e+00  -1.5114927149981853e-04 4.3683742901319067e-04 0.0000000000000000e+00  -1.4974651839759357e-04 4.2300870107490977e-04 0.0000000000000000e+00  -1.4726304508967596e-04 4.3844374136052359e-04 0.0000000000000000e+00  -1.4565745347616972e-04 4.2461052788262489e-04 0.0000000000000000e+00  -1.4845994207596586e-04 4.0918117944993261e-04 0.0000000000000000e+00  -1.4416253448897378e-04 4.1077696972325180e-04 0.0000000000000000e+00  -1.4146873509683337e-04 4.2615206291348959e-04 0.0000000000000000e+00  -1.3981288570578205e-04 4.1238909874125230e-04 0.0000000000000000e+00  -1.3718767764976303e-04 4.2773254760527959e-04 0.0000000000000000e+00  -1.3541830845394072e-04 4.1395985269871853e-04 0.0000000000000000e+00  -1.3810142411306646e-04 3.9791808444445591e-04 0.0000000000000000e+00  -1.3364878978331272e-04 4.0016482953982149e-04 0.0000000000000000e+00  -1.3097843087978516e-04 4.1547494529356542e-04 0.0000000000000000e+00  -1.2918054539848666e-04 4.0116199652761724e-04 0.0000000000000000e+00  -1.2649840159893250e-04 4.1691870047868776e-04 0.0000000000000000e+00  -1.2464040256645502e-04 4.0262641763597377e-04 0.0000000000000000e+00  -1.2197981105378467e-04 4.1833548841087255e-04 0.0000000000000000e+00  -1.2005158780368591e-04 4.0496184120050434e-04 0.0000000000000000e+00  -1.1742359875238635e-04 4.1997481034786622e-04 0.0000000000000000e+00  -1.1546479956105361e-04 4.0668322480401906e-04 0.0000000000000000e+00  -1.1283850257623594e-04 4.2162886767814402e-04 0.0000000000000000e+00  -1.1087022591692154e-04 4.0811251248431456e-04 0.0000000000000000e+00  -1.0823118614216042e-04 4.2315485115581306e-04 0.0000000000000000e+00  -1.0626149344944674e-04 4.0962828115269774e-04 0.0000000000000000e+00  -1.0359096967175595e-04 4.2469695413180911e-04 0.0000000000000000e+00  -1.0894166636258246e-04 3.9458679444077005e-04 0.0000000000000000e+00  -1.0434047612522377e-04 3.9610472307582571e-04 0.0000000000000000e+00  -1.3181294546363932e-04 3.8416119497059018e-04 0.0000000000000000e+00  -1.0703934967162227e-04 3.8109925491404569e-04 0.0000000000000000e+00  -1.0244737210510024e-04 3.8259641954516729e-04 0.0000000000000000e+00  -1.0515583523047963e-04 3.6761059576308794e-04 0.0000000000000000e+00  -1.0057796001573453e-04 3.6908918398737673e-04 0.0000000000000000e+00  -1.0322425415613254e-04 3.5421774906606643e-04 0.0000000000000000e+00  -9.8692230452051982e-05 3.5562218902472523e-04 0.0000000000000000e+00  -1.0132177109965521e-04 3.4071304213518540e-04 0.0000000000000000e+00  -9.6787370683943251e-05 3.4211801805099444e-04 0.0000000000000000e+00  -9.4125000761575181e-05 3.5701917906775350e-04 0.0000000000000000e+00  -9.9347655267944759e-05 3.2727659793975201e-04 0.0000000000000000e+00  -9.4848461361595436e-05 3.2865717457343117e-04 0.0000000000000000e+00  -1.1491832543601509e-04 4.3500383698064245e-04 0.0000000000000