<?xml version="1.0"?>
<VTKFile type="UnstructuredGrid"  version="0.1"  >
<UnstructuredGrid>
<Piece  NumberOfPoints="2165" NumberOfCells="4161">
<Points>
<DataArray  type="Float64"  NumberOfComponents="3"  format="ascii">-3.598637933768527e-16 0.3500000000000001 0  0.05 0.4 0  -3.537405593811159e-16 0.45 0  0 1 0  1 1 0  0.9999999999999997 0.65 0  0.9999999999999997 0.5499999999999999 0  1 0 0  0 0 0  0.0191341716182545 0.3538060233744357 0  0.03535533905932737 0.3646446609406727 0  0.04619397662556433 0.3808658283817455 0  0.04619397662556434 0.4191341716182545 0  0.03535533905932738 0.4353553390593274 0  0.01913417161825449 0.4461939766255644 0  0 0.975 0  0 0.95 0  0 0.9249999999999999 0  0 0.8999999999999998 0  0 0.8749999999999998 0  0 0.8499999999999998 0  0 0.8249999999999997 0  0 0.7999999999999996 0  0 0.7749999999999996 0  0 0.7499999999999996 0  0 0.7249999999999996 0  0 0.6999999999999997 0  0 0.6749999999999998 0  0 0.6499999999999999 0  0 0.6249999999999999 0  0 0.6 0  0 0.575 0  0 0.5499999999999998 0  0 0.5249999999999999 0  0 0.4999999999999998 0  0 0.4749999999999999 0  0.975 1 0  0.95 1 0  0.925 1 0  0.9 1 0  0.875 1 0  0.85 1 0  0.825 1 0  0.8 1 0  0.775 1 0  0.75 1 0  0.725 1 0  0.7 1 0  0.675 1 0  0.65 1 0  0.625 1 0  0.6 1 0  0.575 1 0  0.55 1 0  0.525 1 0  0.5 1 0  0.475 1 0  0.45 1 0  0.425 1 0  0.4 1 0  0.375 1 0  0.35 1 0  0.325 1 0  0.3 1 0  0.275 1 0  0.25 1 0  0.225 1 0  0.2 1 0  0.175 1 0  0.15 1 0  0.125 1 0  0.09999999999999998 1 0  0.07499999999999996 1 0  0.05000000000000004 1 0  0.02500000000000002 1 0  1 0.675 0  1 0.7000000000000001 0  1 0.7250000000000001 0  1 0.7500000000000001 0  1 0.7750000000000001 0  1 0.8000000000000002 0  1 0.8250000000000002 0  1 0.8500000000000002 0  1 0.8750000000000003 0  1 0.9000000000000001 0  1 0.9250000000000002 0  1 0.9500000000000001 0  1 0.9750000000000001 0  0.9783058130441221 0.6450484433951209 0  0.9609084258765985 0.6311744900929367 0  0.9512536043909088 0.6111260466978157 0  0.9512536043909088 0.5888739533021843 0  0.9609084258765985 0.5688255099070633 0  0.9783058130441221 0.554951556604879 0  1 0.02500000000000002 0  1 0.05000000000000004 0  1 0.07500000000000008 0  1 0.1000000000000001 0  1 0.1250000000000001 0  1 0.1500000000000002 0  1 0.1750000000000002 0  1 0.2000000000000003 0  1 0.2250000000000003 0  1 0.2500000000000004 0  1 0.2750000000000004 0  1 0.3000000000000003 0  1 0.3250000000000002 0  1 0.3500000000000001 0  1 0.3750000000000001 0  1 0.3999999999999999 0  1 0.425 0  1 0.45 0  1 0.475 0  1 0.5000000000000001 0  1 0.5249999999999999 0  0.025 0 0  0.05 0 0  0.075 0 0  0.1 0 0  0.125 0 0  0.15 0 0  0.175 0 0  0.2 0 0  0.225 0 0  0.25 0 0  0.275 0 0  0.3 0 0  0.325 0 0  0.35 0 0  0.375 0 0  0.4 0 0  0.425 0 0  0.45 0 0  0.475 0 0  0.5 0 0  0.525 0 0  0.55 0 0  0.575 0 0  0.6 0 0  0.625 0 0  0.65 0 0  0.675 0 0  0.7 0 0  0.725 0 0  0.75 0 0  0.775 0 0  0.8 0 0  0.825 0 0  0.85 0 0  0.875 0 0  0.9 0 0  0.925 0 0  0.95 0 0  0.975 0 0  0 0.3250000000000001 0  0 0.3 0  0 0.275 0  0 0.2499999999999999 0  0 0.2249999999999999 0  0 0.1999999999999998 0  0 0.1749999999999998 0  0 0.1499999999999998 0  0 0.1249999999999998 0  0 0.09999999999999987 0  0 0.07499999999999984 0  0 0.04999999999999993 0  0 0.02500000000000002 0  0.06453325334544308 0.4134708543086404 0  0.5146839915088474 0.02134387884913819 0  0.4875871001393628 0.9784117024331356 0  0.9386300160094723 0.5701776715936071 0  0.0216506350946109 0.6124999999999999 0  0.9764205887290853 0.3596067946540696 0  0.3876261045932067 0.02156097490657183 0  0.6125 0.978349364905389 0  0.3612127461797463 0.9792371404802113 0  0.6374786650398092 0.02079982608537345 0  0.9387185538472446 0.6295115890709873 0  0.05482260092545593 0.3633687091864355 0  0.02445354803948679 0.7343198207875321 0  0.2624888813627476 0.02091671348578122 0  0.7375212991274043 0.9794996488945376 0  0.9793010831723812 0.2648509348664836 0  0.2625026480689301 0.9795699185263282 0  0.7362840788105066 0.02225211062275217 0  0.02159327910297104 0.2128861809896528 0  0.9786837570973538 0.7867241244631172 0  0.02419728000065929 0.8365600234152764 0  0.980043283615984 0.1624097203408714 0  0.1645857434226354 0.0205513501962844 0  0.8339481359352011 0.9784483546369231 0  0.1637584777222821 0.9774556328160621 0  0.8374916614314967 0.02165097219510076 0  0.02171915379676059 0.5370700005916152 0  0.9795335762511281 0.4365726939225819 0  0.02319480745007968 0.1370197632171214 0  0.9774462976085161 0.8592616917551974 0  0.9786941241076723 0.7122511101067891 0  0.9797883857882621 0.08781864217752949 0  0.01966314788989931 0.9125801876811624 0  0.02051815350151098 0.2882126194470174 0  0.09063226699593246 0.0214884092697174 0  0.9124408843562394 0.9818463395009377 0  0.03872465516591678 0.452731089005145 0  0.08969424365256845 0.978412979507602 0  0.9124999999999999 0.02165063509461096 0  0.02158104789437187 0.6619299176372371 0  0.9796602354625652 0.4859004208706154 0  0.3127517983598529 0.02417963694738812 0  0.4375629605000894 0.02158039900821679 0  0.5643674594196073 0.01968996000301126 0  0.5368361594956101 0.9790428840407062 0  0.4376176251051295 0.9783667484208922 0  0.6874072695660477 0.978435143102373 0  0.310604317388614 0.979558305560928 0  0.2125577044121564 0.02066685543111635 0  0.6875 0.0216506350946109 0  0.02224009810917643 0.08811420611559456 0  0.790876428529276 0.978633065284896 0  0.2125 0.978349364905389 0  0.9788033534786624 0.2116925349935155 0  0.9769441169344462 0.3150381335760689 0  0.9804648376981185 0.9123186437266726 0  0.7874999988222203 0.02127957051165741 0  0.02109233852270731 0.786866823287435 0  0.9483709287873718 0.5504073206521916 0  0.9259842326464427 0.5519702047534598 0  0.9163209045278007 0.5719292915927929 0  0.9035374059862284 0.5537291796040291 0  0.8938951918780048 0.5738949757882954 0  0.8807940177559743 0.5546750869516996 0  0.8712661812741653 0.5757142549099102 0  0.8580668865514332 0.5563902430113601 0  0.848508161986991 0.5779004013072002 0  0.8354274200119249 0.5591176379057713 0  0.8256349826905482 0.5800610629400762 0  0.8124123591208572 0.5604454546391737 0  0.802603410938817 0.5819653950592523 0  0.7892876429890218 0.562234610648543 0  0.7794355871850538 0.583896242519796 0  0.7661469824381839 0.5648243426306435 0  0.7562387679604726 0.5860005456930413 0  0.7429651600512166 0.5669367633461588 0  0.7330846968880171 0.5879590907760761 0  0.7198577999459205 0.5688986880627463 0  0.7297050500533544 0.5479561801187277 0  0.7066243396993471 0.5499068108517552 0  0.6968285086900206 0.5707989520567972 0  0.6836266810714333 0.5519088927359967 0  0.6738604685766018 0.5727655091567184 0  0.6607284761452521 0.5538781923028128 0  0.6697149783704412 0.5321140554135094 0  0.6473436039782401 0.5350050604671006 0  0.6378867365666199 0.5557804038095817 0  0.6246915360243652 0.5362124690568238 0  0.6151175309583405 0.5575933164645619 0  0.6019784180102355 0.5380659376543677 0  0.5924099113505394 0.5593739656462906 0  0.5794110962027638 0.541110021814312 0  0.5697985396917309 0.5614600003719357 0  0.5568468707330213 0.5433212932327446 0  0.5472634011377896 0.5635652141280936 0  0.5343236363495072 0.5451361960661517 0  0.5247877773262166 0.565493591892781 0  0.5118927934227436 0.5470665328397559 0  0.5023398230005425 0.5674381114577953 0  0.5213991904098014 0.5267047787870831 0  0.4990390504096661 0.528649139287786 0  0.6328887517229864 0.5131744321062524 0  0.5085133205790763 0.5083322037773296 0  0.4861972978925295 0.5102540920324363 0  0.4956914791804768 0.4899605513008993 0  0.4734139980312694 0.4918582759645476 0  0.4826986629698439 0.4717164019717278 0  0.460570567761715 0.473509155475794 0  0.4699344541058981 0.4533140529328089 0  0.4477087341565655 0.4550973130597117 0  0.4381733274019614 0.4752901381741884 0  0.4570222843287571 0.4349938694701042 0  0.4348599018247688 0.436728068420533 0  0.5604623134382263 0.581815997002507 0  0.4443612964408632 0.416499823314016 0  0.422056299386984 0.4183730429856528 0  0.4688721528228815 0.4135009841763965 0  0.4315584877924544 0.398120546824229 0  0.4092288692044618 0.3999974286008185 0  0.7463210599443056 0.6070829843371945 0  0.4187270626688335 0.3797365044773463 0  0.3964262302393312 0.3817184136470017 0  0.3869780036193907 0.4018498778543814 0  0.3742423843122406 0.3837055716372927 0  0.3648701490102072 0.4037049758807119 0  0.3518115403926748 0.3858985036587403 0  0.3426146276710081 0.4056777495658291 0  0.3614541441355358 0.3656396497906528 0  0.339026673715919 0.3678724679736439 0  0.3485566370135618 0.3476560889674916 0  0.3264681821394378 0.3496422822523857 0  0.8219942777991693 0.5379143061758643 0  0.3358297439968608 0.3295117748868035 0  0.3137050884585635 0.3314921667582986 0  0.3229980644152205 0.3113561769498422 0  0.3007986024336577 0.3133063832007756 0  0.3441851868720173 0.3085211458266175 0  0.3101966551534752 0.2930273704914169 0  0.287793053707373 0.2950088132226583 0  0.2914417217227097 0.3337427541189321 0  0.2975120686695638 0.2743682539701985 0  0.274864585256681 0.2764253296978281 0  0.816026571618698 0.6006851919544112 0  0.2844672854128698 0.2557011565880619 0  0.2617267434509338 0.2577713002235077 0  0.3072711221189672 0.2536790056475094 0  0.2521588568690318 0.2785072139143895 0  0.2389277409161178 0.2598761196336353 0  0.248448076747058 0.2389478879785275 0  0.5053822153261678 0.4716915524631118 0  0.229548765875869 0.2806542761043101 0  0.2254561407802683 0.2411354049374563 0  0.2350621310805047 0.2199181955146378 0  0.2117782450160163 0.222165061041625 0  0.2214249125635323 0.2008136877065064 0  0.2448758256083499 0.1985732693215908 0  0.197966291680556 0.2031211006951591 0  0.1883147493074436 0.2245564097761413 0  0.8910637266939049 0.5322898364209732 0  0.1748136087708587 0.2051141748992724 0  0.1842088801696792 0.1837087814679069 0  0.1656574100807746 0.2269812054689968 0  0.3554582346764377 0.4236292557112198 0  0.3328979939923831 0.425459320867588 0  0.3460368767112177 0.4435398346083328 0  0.3238464003
[...]
<PointData  Vectors="$u$"> 
<DataArray  type="Float64"  Name="$u$"  NumberOfComponents="3" format="ascii">-1.2417810968018035e-04 1.0455982704121150e-03 0.0000000000000000e+00  -2.2841741563015537e-04 1.7272032319604691e-03 0.0000000000000000e+00  -1.1504611384298193e-04 2.4154614505195121e-03 0.0000000000000000e+00  8.4604363050613395e-05 4.2500000000000003e-03 0.0000000000000000e+00  -1.2395300324184923e-03 4.2500000000000003e-03 0.0000000000000000e+00  -1.0792270905239331e-03 3.2020156094278080e-03 0.0000000000000000e+00  -1.0872711975705872e-03 1.8369323523233598e-03 0.0000000000000000e+00  -1.2853990043714698e-03 0.0000000000000000e+00 0.0000000000000000e+00  0.0000000000000000e+00 0.0000000000000000e+00 0.0000000000000000e+00  -1.4546906882575617e-04 1.1303677577800314e-03 0.0000000000000000e+00  -1.8920849304336241e-04 1.2775492873071746e-03 0.0000000000000000e+00  -2.1676221816354374e-04 1.4880884118743745e-03 0.0000000000000000e+00  -2.1403977390397074e-04 1.9701869970568261e-03 0.0000000000000000e+00  -1.8179121607542952e-04 2.1788405934705032e-03 0.0000000000000000e+00  -1.3809520489591878e-04 2.3282076828112629e-03 0.0000000000000000e+00  8.4570176428570590e-05 4.1503857889332750e-03 0.0000000000000000e+00  8.4454946041338463e-05 4.0508527571663129e-03 0.0000000000000000e+00  8.4234786380933332e-05 3.9514010894029514e-03 0.0000000000000000e+00  8.3947757383542575e-05 3.8521172207037942e-03 0.0000000000000000e+00  8.3538453817494880e-05 3.7530510674031671e-03 0.0000000000000000e+00  8.3031513782148131e-05 3.6543102103452261e-03 0.0000000000000000e+00  8.2343435293607645e-05 3.5558959749820616e-03 0.0000000000000000e+00  8.1554668705283284e-05 3.4579480353236227e-03 0.0000000000000000e+00  8.0525454183769525e-05 3.3605515908300804e-03 0.0000000000000000e+00  7.9376027079895381e-05 3.2639150020005647e-03 0.0000000000000000e+00  7.7747497967593158e-05 3.1680728048555091e-03 0.0000000000000000e+00  7.6095582735217213e-05 3.0732863318950277e-03 0.0000000000000000e+00  7.3738157150145901e-05 2.9800079961498005e-03 0.0000000000000000e+00  7.1014617157712299e-05 2.8883555927566489e-03 0.0000000000000000e+00  6.7487108061306363e-05 2.7990128218817129e-03 0.0000000000000000e+00  6.3101485570574991e-05 2.7130209096562618e-03 0.0000000000000000e+00  5.6809791831326972e-05 2.6314226865439658e-03 0.0000000000000000e+00  4.8281169764698197e-05 2.5563137078567222e-03 0.0000000000000000e+00  3.4814972755749529e-05 2.4905489491973327e-03 0.0000000000000000e+00  1.2732382452801241e-05 2.4406273410298397e-03 0.0000000000000000e+00  -2.8131951323607135e-05 2.4128528722222064e-03 0.0000000000000000e+00  -1.2105390914979278e-03 4.2500000000000003e-03 0.0000000000000000e+00  -1.1811485935078799e-03 4.2500000000000003e-03 0.0000000000000000e+00  -1.1511314183956609e-03 4.2500000000000003e-03 0.0000000000000000e+00  -1.1202593797799206e-03 4.2500000000000003e-03 0.0000000000000000e+00  -1.0884402818976829e-03 4.2500000000000003e-03 0.0000000000000000e+00  -1.0557028159770036e-03 4.2500000000000003e-03 0.0000000000000000e+00  -1.0220930223911646e-03 4.2500000000000003e-03 0.0000000000000000e+00  -9.8770543193867511e-04 4.2500000000000003e-03 0.0000000000000000e+00  -9.5283063123568470e-04 4.2500000000000003e-03 0.0000000000000000e+00  -9.1747670318885553e-04 4.2500000000000003e-03 0.0000000000000000e+00  -8.8186903208070818e-04 4.2500000000000003e-03 0.0000000000000000e+00  -8.4611184799338718e-04 4.2500000000000003e-03 0.0000000000000000e+00  -8.1033188872218337e-04 4.2500000000000003e-03 0.0000000000000000e+00  -7.7457131270062532e-04 4.2500000000000003e-03 0.0000000000000000e+00  -7.3892489147683307e-04 4.2500000000000003e-03 0.0000000000000000e+00  -7.0340561653786855e-04 4.2500000000000003e-03 0.0000000000000000e+00  -6.6804485670422819e-04 4.2500000000000003e-03 0.0000000000000000e+00  -6.3285707359587355e-04 4.2500000000000003e-03 0.0000000000000000e+00  -5.9784029713125762e-04 4.2500000000000003e-03 0.0000000000000000e+00  -5.6300021425373858e-04 4.2500000000000003e-03 0.0000000000000000e+00  -5.2833602107497360e-04 4.2500000000000003e-03 0.0000000000000000e+00  -4.9384218247950241e-04 4.2500000000000003e-03 0.0000000000000000e+00  -4.5952880440835661e-04 4.2500000000000003e-03 0.0000000000000000e+00  -4.2539122712045114e-04 4.2500000000000003e-03 0.0000000000000000e+00  -3.9145363196218576e-04 4.2500000000000003e-03 0.0000000000000000e+00  -3.5771109243540338e-04 4.2500000000000003e-03 0.0000000000000000e+00  -3.2419811405533250e-04 4.2500000000000003e-03 0.0000000000000000e+00  -2.9092960547854983e-04 4.2500000000000003e-03 0.0000000000000000e+00  -2.5791968681304855e-04 4.2500000000000003e-03 0.0000000000000000e+00  -2.2521355781504967e-04 4.2500000000000003e-03 0.0000000000000000e+00  -1.9281080805879578e-04 4.2500000000000003e-03 0.0000000000000000e+00  -1.6074237784071882e-04 4.2500000000000003e-03 0.0000000000000000e+00  -1.2902490743480605e-04 4.2500000000000003e-03 0.0000000000000000e+00  -9.7649861496771069e-05 4.2500000000000003e-03 0.0000000000000000e+00  -6.6618870805670144e-05 4.2500000000000003e-03 0.0000000000000000e+00  -3.5908262839200406e-05 4.2500000000000003e-03 0.0000000000000000e+00  -5.4878921678579305e-06 4.2500000000000003e-03 0.0000000000000000e+00  2.4697879966993377e-05 4.2500000000000003e-03 0.0000000000000000e+00  5.4701242598724662e-05 4.2500000000000003e-03 0.0000000000000000e+00  -1.1625969169482204e-03 3.1989843064828545e-03 0.0000000000000000e+00  -1.1987476408655199e-03 3.2260210107696733e-03 0.0000000000000000e+00  -1.2178114503031618e-03 3.2778852882613045e-03 0.0000000000000000e+00  -1.2273169811647961e-03 3.3442590286984811e-03 0.0000000000000000e+00  -1.2328621885133151e-03 3.4200736324061921e-03 0.0000000000000000e+00  -1.2357165537349726e-03 3.5032410389327167e-03 0.0000000000000000e+00  -1.2378882716184445e-03 3.5897449770733170e-03 0.0000000000000000e+00  -1.2384961491768789e-03 3.6799984889544814e-03 0.0000000000000000e+00  -1.2393064262433049e-03 3.7723285163886438e-03 0.0000000000000000e+00  -1.2394303787909846e-03 3.8661074723733181e-03 0.0000000000000000e+00  -1.2395654050441757e-03 3.9611828954893629e-03 0.0000000000000000e+00  -1.2395279965234940e-03 4.0570680442910401e-03 0.0000000000000000e+00  -1.2395745554083593e-03 4.1533954655802270e-03 0.0000000000000000e+00  -1.0504413453672017e-03 3.1003985302890907e-03 0.0000000000000000e+00  -1.0011880321755520e-03 2.9190982710697064e-03 0.0000000000000000e+00  -9.8027980260824476e-04 2.6563545930282243e-03 0.0000000000000000e+00  -9.8045351037066462e-04 2.3916075370629462e-03 0.0000000000000000e+00  -1.0042827762854164e-03 2.1146788906342877e-03 0.0000000000000000e+00  -1.0606209381243108e-03 1.9444292940583138e-03 0.0000000000000000e+00  -1.2853660373290106e-03 9.9650465248997270e-05 0.0000000000000000e+00  -1.2852427152273604e-03 1.9924628091007375e-04 0.0000000000000000e+00  -1.2850397800779508e-03 2.9873394547070647e-04 0.0000000000000000e+00  -1.2847477152678629e-03 3.9807491126054955e-04 0.0000000000000000e+00  -1.2843498910865185e-03 4.9716734242420788e-04 0.0000000000000000e+00  -1.2838358745972758e-03 5.9600502631354632e-04 0.0000000000000000e+00  -1.2831998240086110e-03 6.9443827121848010e-04 0.0000000000000000e+00  -1.2823858743042768e-03 7.9246564217402989e-04 0.0000000000000000e+00  -1.2814285207933308e-03 8.8985368958919967e-04 0.0000000000000000e+00  -1.2801721713397202e-03 9.8661327257955063e-04 0.0000000000000000e+00  -1.2787158365807438e-03 1.0825792362826182e-03 0.0000000000000000e+00  -1.2769826799850117e-03 1.1772629383210865e-03 0.0000000000000000e+00  -1.2746186617233252e-03 1.2708295721278753e-03 0.0000000000000000e+00  -1.2720629329783732e-03 1.3624778906879281e-03 0.0000000000000000e+00  -1.2684502670840209e-03 1.4519088998420683e-03 0.0000000000000000e+00  -1.2641013210494940e-03 1.5380042280236414e-03 0.0000000000000000e+00  -1.2576299850498337e-03 1.6199468015793115e-03 0.0000000000000000e+00  -1.2499540268467754e-03 1.6959335133262569e-03 0.0000000000000000e+00  -1.2354029491751276e-03 1.7602392793809579e-03 0.0000000000000000e+00  -1.2160812914170688e-03 1.8142362731154871e-03 0.0000000000000000e+00  -1.1724021426679876e-03 1.8374789112282713e-03 0.0000000000000000e+00  0.0000000000000000e+00 0.0000000000000000e+00 0.0000000000000000e+00  0.0000000000000000e+00 0.0000000000000000e+00 0.0000000000000000e+00  -5.0230301315765767e-05 0.0000000000000000e+00 0.0000000000000000e+00  -7.6721455100608091e-05 0.0000000000000000e+00 0.0000000000000000e+00  -1.1084835178172988e-04 0.0000000000000000e+00 0.0000000000000000e+00  -1.4388375684778104e-04 0.0000000000000000e+00 0.0000000000000000e+00  -1.7753227449918041e-04 0.0000000000000000e+00 0.0000000000000000e+00  -2.1214006526715644e-04 0.0000000000000000e+00 0.0000000000000000e+00  -2.4717361134135075e-04 0.0000000000000000e+00 0.0000000000000000e+00  -2.8261866510423129e-04 0.0000000000000000e+00 0.0000000000000000e+00  -3.1832960121075941e-04 0.0000000000000000e+00 0.0000000000000000e+00  -3.5415358940830678e-04 0.0000000000000000e+00 0.0000000000000000e+00  -3.9001828385565925e-04 0.0000000000000000e+00 0.0000000000000000e+00  -4.2583050945131363e-04 0.0000000000000000e+00 0.0000000000000000e+00  -4.6153986507284611e-04 0.0000000000000000e+00 0.0000000000000000e+00  -4.9709895948269584e-04 0.0000000000000000e+00 0.0000000000000000e+00  -5.3250269081919776e-04 0.0000000000000000e+00 0.0000000000000000e+00  -5.6772302711455042e-04 0.0000000000000000e+00 0.0000000000000000e+00  -6.0276599847079336e-04 0.0000000000000000e+00 0.0000000000000000e+00  -6.3763472057690889e-04 0.0000000000000000e+00 0.0000000000000000e+00  -6.7231863749788270e-04 0.0000000000000000e+00 0.0000000000000000e+00  -7.0682390330905438e-04 0.0000000000000000e+00 0.0000000000000000e+00  -7.4115314766613066e-04 0.0000000000000000e+00 0.0000000000000000e+00  -7.7529317552854204e-04 0.0000000000000000e+00 0.0000000000000000e+00  -8.0924638253330734e-04 0.0000000000000000e+00 0.0000000000000000e+00  -8.4298519123710773e-04 0.0000000000000000e+00 0.0000000000000000e+00  -8.7650661787562359e-04 0.0000000000000000e+00 0.0000000000000000e+00  -9.0977849487657145e-04 0.0000000000000000e+00 0.0000000000000000e+00  -9.4279083007496925e-04 0.0000000000000000e+00 0.0000000000000000e+00  -9.7549382441908510e-04 0.0000000000000000e+00 0.0000000000000000e+00  -1.0079112113550973e-03 0.0000000000000000e+00 0.0000000000000000e+00  -1.0399656488671682e-03 0.0000000000000000e+00 0.0000000000000000e+00  -1.0717026680794003e-03 0.0000000000000000e+00 0.0000000000000000e+00  -1.1030793736259482e-03 0.0000000000000000e+00 0.0000000000000000e+00  -1.1341097797832220e-03 0.0000000000000000e+00 0.0000000000000000e+00  -1.1648372825324362e-03 0.0000000000000000e+00 0.0000000000000000e+00  -1.1952644602079851e-03 0.0000000000000000e+00 0.0000000000000000e+00  -1.2254631645196952e-03 0.0000000000000000e+00 0.0000000000000000e+00  -1.2554796027140149e-03 0.0000000000000000e+00 0.0000000000000000e+00  -3.9060775618069224e-05 1.0472221749263319e-03 0.0000000000000000e+00  -2.9970701413307944e-06 1.0218198536394694e-03 0.0000000000000000e+00  1.6053949594549871e-05 9.6869093880507277e-04 0.0000000000000000e+00  2.6557476251250578e-05 9.0348358947200762e-04 0.0000000000000000e+00  3.1651326971938185e-05 8.2761132388328024e-04 0.0000000000000000e+00  3.5077669404036660e-05 7.4494390444193809e-04 0.0000000000000000e+00  3.6802747526083870e-05 6.5827345257115299e-04 0.0000000000000000e+00  3.7804551961300673e-05 5.6803843399699436e-04 0.0000000000000000e+00  3.8595001549037339e-05 4.7593205758847721e-04 0.0000000000000000e+00  3.8713655129615596e-05 3.8155913522507014e-04 0.0000000000000000e+00  3.9226587313005026e-05 2.8804612009559783e-04 0.0000000000000000e+00  3.8248442368536269e-05 1.8944887101797958e-04 0.0000000000000000e+00  3.8613528231376708e-05 1.0309454284032971e-04 0.0000000000000000e+00  -2.5299417307744223e-04 1.8174787649754970e-03 0.0000000000000000e+00  -6.5803282417991780e-04 9.1971693181591260e-05 0.0000000000000000e+00  -5.4576042758827615e-04 4.1569741559709071e-03 0.0000000000000000e+00  -9.8267294908416865e-04 2.3321153668731118e-03 0.0000000000000000e+00  4.2779335726899228e-05 2.7496803989055813e-03 0.0000000000000000e+00  -1.2451733196218722e-03 1.4022128531125683e-03 0.0000000000000000e+00  -4.7961226240381003e-04 9.3610218247665145e-05 0.0000000000000000e+00  -7.2105445700107722e-04 4.1560148664761256e-03 0.0000000000000000e+00  -3.7285172802693469e-04 4.1618350879824920e-03 0.0000000000000000e+00  -8.2607753333014127e-04 8.8342114739106564e-05 0.0000000000000000e+00  -9.8858335896959766e-04 2.7142928271175703e-03 0.0000000000000000e+00  -1.8135773731330919e-04 1.4532603235778900e-03 0.0000000000000000e+00  5.0272102083482092e-05 3.2014061986929345e-03 0.0000000000000000e+00  -3.0057509454483374e-04 8.9933449986794010e-05 0.0000000000000000e+00  -8.9960301384613616e-04 4.1618690651553476e-03 0.0000000000000000e+00  -1.2554848541856945e-03 1.0454627107218861e-03 0.0000000000000000e+00  -2.4157291083130725e-04 4.1647411193308365e-03 0.0000000000000000e+00  -9.5754867793293463e-04 9.2888299395467872e-05 0.0000000000000000e+00  1.1678905590710336e-05 7.9410708738297451e-04 0.0000000000000000e+00  -1.2129620804117247e-03 3.4528743494675082e-03 0.0000000000000000e+00  5.4080881315998754e-05 3.6003742488411711e-03 0.0000000000000000e+00  -1.2599344145431365e-03 6.4562590631146559e-04 0.0000000000000000e+00  -1.6356885417194517e-04 8.5256005141976619e-05 0.0000000000000000e+00  -1.0341248591842532e-03 4.1605697387228626e-03 0.0000000000000000e+00  -1.1489967535379266e-04 4.1579244071946672e-03 0.0000000000000000e+00  -1.0873938530459647e-03 8.8428734403843228e-05 0.0000000000000000e+00  2.3209449442081768e-05 2.5025271510570502e-03 0.0000000000000000e+00  -1.2349477585458346e-03 1.6660124772705561e-03 0.0000000000000000e+00  1.2468375155642413e-05 5.2211413453905823e-04 0.0000000000000000e+00  -1.2138582598279688e-03 3.7120986183845437e-03 0.0000000000000000e+00  -1.1938982229848893e-03 3.2246649986677240e-03 0.0000000000000000e+00  -1.2607929407508016e-03 3.5003261665739486e-04 0.0000000000000000e+00  6.0664417035500907e-05 3.9017214667766030e-03 0.0000000000000000e+00  -6.8587942796539166e-06 1.0234324300591807e-03 0.0000000000000000e+00  -6.5180734528075295e-05 8.4745155902884192e-05 0.0000000000000000e+00  -1.1357180550787883e-03 4.1778423923568503e-03 0.0000000000000000e+00  -1.0052967716162800e-04 2.1874300364466723e-03 0.0000000000000000e+00  -2.3356657623494971e-05 4.1631592061664585e-03 0.0000000000000000e+00  -1.1800584426584469e-03 8.7095557928754472e-05 0.0000000000000000e+00  4.8537733409415677e-05 2.9282062037953869e-03 0.0000000000000000e+00  -1.2133647391008760e-03 1.8115852434532692e-03 0.0000000000000000e+00  -3.7262839629948965e-04 1.0474226593358876e-04 0.0000000000000000e+00  -5.5028411615602063e-04 9.3523112425723562e-05 0.0000000000000000e+00  -7.2655968735682033e-04 8.4419318105192028e-05 0.0000000000000000e+00  -6.1436158968891262e-04 4.1593371730297927e-03 0.0000000000000000e+00  -4.7684229308541374e-04 4.1572430910742364e-03 0.0000000000000000e+00  -8.2795611557617865e-04 4.1566156056504090e-03 0.0000000000000000e+00  -3.0504705494326123e-04 4.1639035675107797e-03 0.0000000000000000e+00  -2.2977733152937532e-04 8.7589922737494911e-05 0.0000000000000000e+00  -8.9312790395366384e-04 9.1223612933895889e-05 0.0000000000000000e+00  1.3827689147638808e-05 3.3708606335342283e-04 0.0000000000000000e+00  -9.7494510749366432e-04 4.1595591434435680e-03 0.0000000000000000e+00  -1.7677553913236687e-04 4.1605972703990055e-03 0.0000000000000000e+00  -1.2571359272927187e-03 8.3927134706357118e-04 0.0000000000000000e+00  -1.2496842954133102e-03 1.2369187575983977e-03 0.0000000000000000e+00  -1.2171665497636083e-03 3.9123641904085203e-03 0.0000000000000000e+00  -1.0239472248873150e-03 8.7876948327499994e-05 0.0000000000000000e+00  5.6370524434162137e-05 3.4055280919077966e-03 0.0000000000000000e+00  -1.0884566337147307e-03 2.1674218403391838e-03 0.0000000000000000e+00  -1.0323702926755614e-03 2.2472305642705541e-03 0.0000000000000000e+00  -9.7345638841437395e-04 2.3662901614308045e-03 0.0000000000000000e+00  -1.0023902109037115e-03 2.3047499379059396e-03 0.0000000000000000e+00  -9.5462751161052380e-04 2.4101240630473005e-03 0.0000000000000000e+00  -9.7760149114188739e-04 2.3220167108980545e-03 0.0000000000000000e+00  -9.4416689764573148e-04 2.4200068794643856e-03 0.0000000000000000e+00  -9.5449798681216172e-04 2.3416817267300281e-03 0.0000000000000000e+00  -9.2965354567288916e-04 2.4361795419428510e-03 0.0000000000000000e+00  -9.3400487054589177e-04 2.3564627280112924e-03 0.0000000000000000e+00  -9.1422311656482911e-04 2.4458304256512434e-03 0.0000000000000000e+00  -9.1391307222033792e-04 2.3656699187308674e-03 0.0000000000000000e+00  -8.9659167240134963e-04 2.4562865605337065e-03 0.0000000000000000e+00  -8.9311316782231557e-04 2.3745515937990958e-03 0.0000000000000000e+00  -8.7740551587986676e-04 2.4650035705420471e-03 0.0000000000000000e+00  -8.7135858612885631e-04 2.3869440374827168e-03 0.0000000000000000e+00  -8.5664917636883167e-04 2.4751108602261572e-03 0.0000000000000000e+00  -8.4894985405764545e-04 2.3966729600873532e-03 0.0000000000000000e+00  -8.3489738642755751e-04 2.4840741020753197e-03 0.0000000000000000e+00  -8.2600394165545203e-04 2.4058457345632676e-03 0.0000000000000000e+00  -8.4192700829042197e-04 2.3184811428292314e-03 0.0000000000000000e+00  -8.1774743239213313e-04 2.3274652673957665e-03 0.0000000000000000e+00  -8.0242096224051945e-04 2.4145534738799789e-03 0.0000000000000000e+00  -7.9324379799897528e-04 2.3366551572504366e-03 0.0000000000000000e+00  -7.7832317611921538e-04 2.4235477199398485e-03 0.0000000000000000e+00  -7.6848101085821255e-04 2.3455544435942517e-03 0.0000000000000000e+00  -7.8376063453590742e-04 2.2547023562947449e-03 0.0000000000000000e+00  -7.5864046587739524e-04 2.2674523399514425e-03 0.0000000000000000e+00  -7.4343246714901840e-04 2.3541663278961455e-03 0.0000000000000000e+00  -7.3341835008084442e-04 2.2731108341819584e-03 0.0000000000000000e+00  -7.1815717843756862e-04 2.3623557366668777e-03 0.0000000000000000e+00  -7.0778622104075370e-04 2.2814269411595635e-03 0.0000000000000000e+00  -6.9264761482208215e-04 2.3704013079645747e-03 0.0000000000000000e+00  -6.8185961224224067e-04 2.2946695960512509e-03 0.0000000000000000e+00  -6.6691629193046519e-04 2.3797045685616421e-03 0.0000000000000000e+00  -6.5594904066550641e-04 2.3044357466716092e-03 0.0000000000000000e+00  -6.4100684963635851e-04 2.3890922592967028e-03 0.0000000000000000e+00  -6.2998512052942488e-04 2.3125469930242479e-03 0.0000000000000000e+00  -6.1497133125823522e-04 2.3977542767975686e-03 0.0000000000000000e+00  -6.0393704530114719e-04 2.3211493286547820e-03 0.0000000000000000e+00  -5.8873924510325032e-04 2.4065089113006763e-03 0.0000000000000000e+00  -6.1919297953415232e-04 2.2359457240428192e-03 0.0000000000000000e+00  -5.9318323462585168e-04 2.2445590980859392e-03 0.0000000000000000e+00  -7.4844585471541946e-04 2.1768159528724957e-03 0.0000000000000000e+00  -6.0855468589712173e-04 2.1595582977375397e-03 0.0000000000000000e+00  -5.8259366558189023e-04 2.1680546766399216e-03 0.0000000000000000e+00  -5.9802102723031404e-04 2.0831635381909222e-03 0.0000000000000000e+00  -5.7213787009564832e-04 2.0915557363799298e-03 0.0000000000000000e+00  -5.8721788446899014e-04 2.0073118066946949e-03 0.0000000000000000e+00  -5.6159199266339599e-04 2.0152846696919915e-03 0.0000000000000000e+00  -5.7657544979826912e-04 1.9308277059234932e-03 0.0000000000000000e+00  -5.5093655500239129e-04 1.9388005022130796e-03 0.0000000000000000e+00  -5.3577262087396499e-04 2.0232125812779905e-03 0.0000000000000000e+00  -5.6551689572561061e-04 1.8547276258148496e-03 0.0000000000000000e+00  -5.4008117966232493e-04 1.8625641676251485e-03 0.0000000000000000e+00  -6.5266923165729332e-04 2.4648354024426411e-03 0.000000000000