<?xml version="1.0"?>
<VTKFile type="UnstructuredGrid"  version="0.1"  >
<UnstructuredGrid>
<Piece  NumberOfPoints="2165" NumberOfCells="4161">
<Points>
<DataArray  type="Float64"  NumberOfComponents="3"  format="ascii">-3.598637933768527e-16 0.3500000000000001 0  0.05 0.4 0  -3.537405593811159e-16 0.45 0  0 1 0  1 1 0  0.9999999999999997 0.65 0  0.9999999999999997 0.5499999999999999 0  1 0 0  0 0 0  0.0191341716182545 0.3538060233744357 0  0.03535533905932737 0.3646446609406727 0  0.04619397662556433 0.3808658283817455 0  0.04619397662556434 0.4191341716182545 0  0.03535533905932738 0.4353553390593274 0  0.01913417161825449 0.4461939766255644 0  0 0.975 0  0 0.95 0  0 0.9249999999999999 0  0 0.8999999999999998 0  0 0.8749999999999998 0  0 0.8499999999999998 0  0 0.8249999999999997 0  0 0.7999999999999996 0  0 0.7749999999999996 0  0 0.7499999999999996 0  0 0.7249999999999996 0  0 0.6999999999999997 0  0 0.6749999999999998 0  0 0.6499999999999999 0  0 0.6249999999999999 0  0 0.6 0  0 0.575 0  0 0.5499999999999998 0  0 0.5249999999999999 0  0 0.4999999999999998 0  0 0.4749999999999999 0  0.975 1 0  0.95 1 0  0.925 1 0  0.9 1 0  0.875 1 0  0.85 1 0  0.825 1 0  0.8 1 0  0.775 1 0  0.75 1 0  0.725 1 0  0.7 1 0  0.675 1 0  0.65 1 0  0.625 1 0  0.6 1 0  0.575 1 0  0.55 1 0  0.525 1 0  0.5 1 0  0.475 1 0  0.45 1 0  0.425 1 0  0.4 1 0  0.375 1 0  0.35 1 0  0.325 1 0  0.3 1 0  0.275 1 0  0.25 1 0  0.225 1 0  0.2 1 0  0.175 1 0  0.15 1 0  0.125 1 0  0.09999999999999998 1 0  0.07499999999999996 1 0  0.05000000000000004 1 0  0.02500000000000002 1 0  1 0.675 0  1 0.7000000000000001 0  1 0.7250000000000001 0  1 0.7500000000000001 0  1 0.7750000000000001 0  1 0.8000000000000002 0  1 0.8250000000000002 0  1 0.8500000000000002 0  1 0.8750000000000003 0  1 0.9000000000000001 0  1 0.9250000000000002 0  1 0.9500000000000001 0  1 0.9750000000000001 0  0.9783058130441221 0.6450484433951209 0  0.9609084258765985 0.6311744900929367 0  0.9512536043909088 0.6111260466978157 0  0.9512536043909088 0.5888739533021843 0  0.9609084258765985 0.5688255099070633 0  0.9783058130441221 0.554951556604879 0  1 0.02500000000000002 0  1 0.05000000000000004 0  1 0.07500000000000008 0  1 0.1000000000000001 0  1 0.1250000000000001 0  1 0.1500000000000002 0  1 0.1750000000000002 0  1 0.2000000000000003 0  1 0.2250000000000003 0  1 0.2500000000000004 0  1 0.2750000000000004 0  1 0.3000000000000003 0  1 0.3250000000000002 0  1 0.3500000000000001 0  1 0.3750000000000001 0  1 0.3999999999999999 0  1 0.425 0  1 0.45 0  1 0.475 0  1 0.5000000000000001 0  1 0.5249999999999999 0  0.025 0 0  0.05 0 0  0.075 0 0  0.1 0 0  0.125 0 0  0.15 0 0  0.175 0 0  0.2 0 0  0.225 0 0  0.25 0 0  0.275 0 0  0.3 0 0  0.325 0 0  0.35 0 0  0.375 0 0  0.4 0 0  0.425 0 0  0.45 0 0  0.475 0 0  0.5 0 0  0.525 0 0  0.55 0 0  0.575 0 0  0.6 0 0  0.625 0 0  0.65 0 0  0.675 0 0  0.7 0 0  0.725 0 0  0.75 0 0  0.775 0 0  0.8 0 0  0.825 0 0  0.85 0 0  0.875 0 0  0.9 0 0  0.925 0 0  0.95 0 0  0.975 0 0  0 0.3250000000000001 0  0 0.3 0  0 0.275 0  0 0.2499999999999999 0  0 0.2249999999999999 0  0 0.1999999999999998 0  0 0.1749999999999998 0  0 0.1499999999999998 0  0 0.1249999999999998 0  0 0.09999999999999987 0  0 0.07499999999999984 0  0 0.04999999999999993 0  0 0.02500000000000002 0  0.06453325334544308 0.4134708543086404 0  0.5146839915088474 0.02134387884913819 0  0.4875871001393628 0.9784117024331356 0  0.9386300160094723 0.5701776715936071 0  0.0216506350946109 0.6124999999999999 0  0.9764205887290853 0.3596067946540696 0  0.3876261045932067 0.02156097490657183 0  0.6125 0.978349364905389 0  0.3612127461797463 0.9792371404802113 0  0.6374786650398092 0.02079982608537345 0  0.9387185538472446 0.6295115890709873 0  0.05482260092545593 0.3633687091864355 0  0.02445354803948679 0.7343198207875321 0  0.2624888813627476 0.02091671348578122 0  0.7375212991274043 0.9794996488945376 0  0.9793010831723812 0.2648509348664836 0  0.2625026480689301 0.9795699185263282 0  0.7362840788105066 0.02225211062275217 0  0.02159327910297104 0.2128861809896528 0  0.9786837570973538 0.7867241244631172 0  0.02419728000065929 0.8365600234152764 0  0.980043283615984 0.1624097203408714 0  0.1645857434226354 0.0205513501962844 0  0.8339481359352011 0.9784483546369231 0  0.1637584777222821 0.9774556328160621 0  0.8374916614314967 0.02165097219510076 0  0.02171915379676059 0.5370700005916152 0  0.9795335762511281 0.4365726939225819 0  0.02319480745007968 0.1370197632171214 0  0.9774462976085161 0.8592616917551974 0  0.9786941241076723 0.7122511101067891 0  0.9797883857882621 0.08781864217752949 0  0.01966314788989931 0.9125801876811624 0  0.02051815350151098 0.2882126194470174 0  0.09063226699593246 0.0214884092697174 0  0.9124408843562394 0.9818463395009377 0  0.03872465516591678 0.452731089005145 0  0.08969424365256845 0.978412979507602 0  0.9124999999999999 0.02165063509461096 0  0.02158104789437187 0.6619299176372371 0  0.9796602354625652 0.4859004208706154 0  0.3127517983598529 0.02417963694738812 0  0.4375629605000894 0.02158039900821679 0  0.5643674594196073 0.01968996000301126 0  0.5368361594956101 0.9790428840407062 0  0.4376176251051295 0.9783667484208922 0  0.6874072695660477 0.978435143102373 0  0.310604317388614 0.979558305560928 0  0.2125577044121564 0.02066685543111635 0  0.6875 0.0216506350946109 0  0.02224009810917643 0.08811420611559456 0  0.790876428529276 0.978633065284896 0  0.2125 0.978349364905389 0  0.9788033534786624 0.2116925349935155 0  0.9769441169344462 0.3150381335760689 0  0.9804648376981185 0.9123186437266726 0  0.7874999988222203 0.02127957051165741 0  0.02109233852270731 0.786866823287435 0  0.9483709287873718 0.5504073206521916 0  0.9259842326464427 0.5519702047534598 0  0.9163209045278007 0.5719292915927929 0  0.9035374059862284 0.5537291796040291 0  0.8938951918780048 0.5738949757882954 0  0.8807940177559743 0.5546750869516996 0  0.8712661812741653 0.5757142549099102 0  0.8580668865514332 0.5563902430113601 0  0.848508161986991 0.5779004013072002 0  0.8354274200119249 0.5591176379057713 0  0.8256349826905482 0.5800610629400762 0  0.8124123591208572 0.5604454546391737 0  0.802603410938817 0.5819653950592523 0  0.7892876429890218 0.562234610648543 0  0.7794355871850538 0.583896242519796 0  0.7661469824381839 0.5648243426306435 0  0.7562387679604726 0.5860005456930413 0  0.7429651600512166 0.5669367633461588 0  0.7330846968880171 0.5879590907760761 0  0.7198577999459205 0.5688986880627463 0  0.7297050500533544 0.5479561801187277 0  0.7066243396993471 0.5499068108517552 0  0.6968285086900206 0.5707989520567972 0  0.6836266810714333 0.5519088927359967 0  0.6738604685766018 0.5727655091567184 0  0.6607284761452521 0.5538781923028128 0  0.6697149783704412 0.5321140554135094 0  0.6473436039782401 0.5350050604671006 0  0.6378867365666199 0.5557804038095817 0  0.6246915360243652 0.5362124690568238 0  0.6151175309583405 0.5575933164645619 0  0.6019784180102355 0.5380659376543677 0  0.5924099113505394 0.5593739656462906 0  0.5794110962027638 0.541110021814312 0  0.5697985396917309 0.5614600003719357 0  0.5568468707330213 0.5433212932327446 0  0.5472634011377896 0.5635652141280936 0  0.5343236363495072 0.5451361960661517 0  0.5247877773262166 0.565493591892781 0  0.5118927934227436 0.5470665328397559 0  0.5023398230005425 0.5674381114577953 0  0.5213991904098014 0.5267047787870831 0  0.4990390504096661 0.528649139287786 0  0.6328887517229864 0.5131744321062524 0  0.5085133205790763 0.5083322037773296 0  0.4861972978925295 0.5102540920324363 0  0.4956914791804768 0.4899605513008993 0  0.4734139980312694 0.4918582759645476 0  0.4826986629698439 0.4717164019717278 0  0.460570567761715 0.473509155475794 0  0.4699344541058981 0.4533140529328089 0  0.4477087341565655 0.4550973130597117 0  0.4381733274019614 0.4752901381741884 0  0.4570222843287571 0.4349938694701042 0  0.4348599018247688 0.436728068420533 0  0.5604623134382263 0.581815997002507 0  0.4443612964408632 0.416499823314016 0  0.422056299386984 0.4183730429856528 0  0.4688721528228815 0.4135009841763965 0  0.4315584877924544 0.398120546824229 0  0.4092288692044618 0.3999974286008185 0  0.7463210599443056 0.6070829843371945 0  0.4187270626688335 0.3797365044773463 0  0.3964262302393312 0.3817184136470017 0  0.3869780036193907 0.4018498778543814 0  0.3742423843122406 0.3837055716372927 0  0.3648701490102072 0.4037049758807119 0  0.3518115403926748 0.3858985036587403 0  0.3426146276710081 0.4056777495658291 0  0.3614541441355358 0.3656396497906528 0  0.339026673715919 0.3678724679736439 0  0.3485566370135618 0.3476560889674916 0  0.3264681821394378 0.3496422822523857 0  0.8219942777991693 0.5379143061758643 0  0.3358297439968608 0.3295117748868035 0  0.3137050884585635 0.3314921667582986 0  0.3229980644152205 0.3113561769498422 0  0.3007986024336577 0.3133063832007756 0  0.3441851868720173 0.3085211458266175 0  0.3101966551534752 0.2930273704914169 0  0.287793053707373 0.2950088132226583 0  0.2914417217227097 0.3337427541189321 0  0.2975120686695638 0.2743682539701985 0  0.274864585256681 0.2764253296978281 0  0.816026571618698 0.6006851919544112 0  0.2844672854128698 0.2557011565880619 0  0.2617267434509338 0.2577713002235077 0  0.3072711221189672 0.2536790056475094 0  0.2521588568690318 0.2785072139143895 0  0.2389277409161178 0.2598761196336353 0  0.248448076747058 0.2389478879785275 0  0.5053822153261678 0.4716915524631118 0  0.229548765875869 0.2806542761043101 0  0.2254561407802683 0.2411354049374563 0  0.2350621310805047 0.2199181955146378 0  0.2117782450160163 0.222165061041625 0  0.2214249125635323 0.2008136877065064 0  0.2448758256083499 0.1985732693215908 0  0.197966291680556 0.2031211006951591 0  0.1883147493074436 0.2245564097761413 0  0.8910637266939049 0.5322898364209732 0  0.1748136087708587 0.2051141748992724 0  0.1842088801696792 0.1837087814679069 0  0.1656574100807746 0.2269812054689968 0  0.3554582346764377 0.4236292557112198 0  0.3328979939923831 0.425459320867588 0  0.3460368767112177 0.4435398346083328 0  0.3238464003
[...]
<PointData  Vectors="$u$"> 
<DataArray  type="Float64"  Name="$u$"  NumberOfComponents="3" format="ascii">-1.3889667010920972e-04 1.1682420990352770e-03 0.0000000000000000e+00  -2.5542266450502023e-04 1.9304300193773189e-03 0.0000000000000000e+00  -1.2865636868654586e-04 2.7000883246954205e-03 0.0000000000000000e+00  9.4498320034736548e-05 4.7499999999999999e-03 0.0000000000000000e+00  -1.3854666625426962e-03 4.7499999999999999e-03 0.0000000000000000e+00  -1.2062818153909048e-03 3.5790686823469141e-03 0.0000000000000000e+00  -1.2154679924336459e-03 2.0527175602880537e-03 0.0000000000000000e+00  -1.4367993966403498e-03 0.0000000000000000e+00 0.0000000000000000e+00  0.0000000000000000e+00 0.0000000000000000e+00 0.0000000000000000e+00  -1.6272145395491362e-04 1.2629762096657683e-03 0.0000000000000000e+00  -2.1198811602602402e-04 1.4271076239985117e-03 0.0000000000000000e+00  -2.4245884426133787e-04 1.6626197396234325e-03 0.0000000000000000e+00  -2.3944014713188000e-04 2.2026451579091168e-03 0.0000000000000000e+00  -2.0364280610964204e-04 2.4358804139350196e-03 0.0000000000000000e+00  -1.5452482738247705e-04 2.6026391005209964e-03 0.0000000000000000e+00  9.4460247724039592e-05 4.6386752302075536e-03 0.0000000000000000e+00  9.4331333234891885e-05 4.5274417331744041e-03 0.0000000000000000e+00  9.4084856582525697e-05 4.4162989221022183e-03 0.0000000000000000e+00  9.3763197199441689e-05 4.3053448354688764e-03 0.0000000000000000e+00  9.3304728428239873e-05 4.1946313517678838e-03 0.0000000000000000e+00  9.2738305476252508e-05 4.0842860993541355e-03 0.0000000000000000e+00  9.1966256485539615e-05 3.9743037343818706e-03 0.0000000000000000e+00  9.1085131245643557e-05 3.8648420172553623e-03 0.0000000000000000e+00  8.9931600989261859e-05 3.7560002988291270e-03 0.0000000000000000e+00  8.8646025088727623e-05 3.6480057927101837e-03 0.0000000000000000e+00  8.6821766117001260e-05 3.5409042010979899e-03 0.0000000000000000e+00  8.4972915829071663e-05 3.4349745110989136e-03 0.0000000000000000e+00  8.2333881302217143e-05 3.3307460393695353e-03 0.0000000000000000e+00  7.9283391989412182e-05 3.2283239922622836e-03 0.0000000000000000e+00  7.5335319341417496e-05 3.1284858285818649e-03 0.0000000000000000e+00  7.0426348598882026e-05 3.0324130575757665e-03 0.0000000000000000e+00  6.3377486282199986e-05 2.9412093519965749e-03 0.0000000000000000e+00  5.3844812766737337e-05 2.8573354501206538e-03 0.0000000000000000e+00  3.8774774564570345e-05 2.7837971587270417e-03 0.0000000000000000e+00  1.4075847795429576e-05 2.7281147009149023e-03 0.0000000000000000e+00  -3.1618935418731970e-05 2.6970343940486757e-03 0.0000000000000000e+00  -1.3530698762790516e-03 4.7499999999999999e-03 0.0000000000000000e+00  -1.3202238897119497e-03 4.7499999999999999e-03 0.0000000000000000e+00  -1.2866786404981936e-03 4.7499999999999999e-03 0.0000000000000000e+00  -1.2521752591162472e-03 4.7499999999999999e-03 0.0000000000000000e+00  -1.2166148891635186e-03 4.7499999999999999e-03 0.0000000000000000e+00  -1.1800240430974763e-03 4.7499999999999999e-03 0.0000000000000000e+00  -1.1424601440195204e-03 4.7499999999999999e-03 0.0000000000000000e+00  -1.1040234650726616e-03 4.7499999999999999e-03 0.0000000000000000e+00  -1.0650439067408540e-03 4.7499999999999999e-03 0.0000000000000000e+00  -1.0255250850320786e-03 4.7499999999999999e-03 0.0000000000000000e+00  -9.8572523406701578e-04 4.7499999999999999e-03 0.0000000000000000e+00  -9.4575660339429695e-04 4.7499999999999999e-03 0.0000000000000000e+00  -9.0576313479474771e-04 4.7499999999999999e-03 0.0000000000000000e+00  -8.6579035696055526e-04 4.7499999999999999e-03 0.0000000000000000e+00  -8.2594620484198532e-04 4.7499999999999999e-03 0.0000000000000000e+00  -7.8624372367960946e-04 4.7499999999999999e-03 0.0000000000000000e+00  -7.4671860533082166e-04 4.7499999999999999e-03 0.0000000000000000e+00  -7.0738712789495534e-04 4.7499999999999999e-03 0.0000000000000000e+00  -6.6824696723583531e-04 4.7499999999999999e-03 0.0000000000000000e+00  -6.2930423124150448e-04 4.7499999999999999e-03 0.0000000000000000e+00  -5.9055881630568617e-04 4.7499999999999999e-03 0.0000000000000000e+00  -5.5200341662384840e-04 4.7499999999999999e-03 0.0000000000000000e+00  -5.1365050510663853e-04 4.7499999999999999e-03 0.0000000000000000e+00  -4.7549385159064529e-04 4.7499999999999999e-03 0.0000000000000000e+00  -4.3756114294694811e-04 4.7499999999999999e-03 0.0000000000000000e+00  -3.9984690398861940e-04 4.7499999999999999e-03 0.0000000000000000e+00  -3.6238888852667102e-04 4.7499999999999999e-03 0.0000000000000000e+00  -3.2520515394448386e-04 4.7499999999999999e-03 0.0000000000000000e+00  -2.8830998674385497e-04 4.7499999999999999e-03 0.0000000000000000e+00  -2.5175547849076306e-04 4.7499999999999999e-03 0.0000000000000000e+00  -2.1554010073998717e-04 4.7499999999999999e-03 0.0000000000000000e+00  -1.7969867740320371e-04 4.7499999999999999e-03 0.0000000000000000e+00  -1.4425029161825665e-04 4.7499999999999999e-03 0.0000000000000000e+00  -1.0918464138930997e-04 4.7499999999999999e-03 0.0000000000000000e+00  -7.4504479047213238e-05 4.7499999999999999e-03 0.0000000000000000e+00  -4.0182405857685156e-05 4.7499999999999999e-03 0.0000000000000000e+00  -6.1853527680045772e-06 4.7499999999999999e-03 0.0000000000000000e+00  2.7549398735211763e-05 4.7499999999999999e-03 0.0000000000000000e+00  6.1080054817004727e-05 4.7499999999999999e-03 0.0000000000000000e+00  -1.2995507081777317e-03 3.5755110681333978e-03 0.0000000000000000e+00  -1.3397940769703826e-03 3.6057429738835267e-03 0.0000000000000000e+00  -1.3611769380580683e-03 3.6636821872432913e-03 0.0000000000000000e+00  -1.3717712996231899e-03 3.7378989583420176e-03 0.0000000000000000e+00  -1.3780176181827492e-03 3.8225190285918289e-03 0.0000000000000000e+00  -1.3811768008255814e-03 3.9155355002229077e-03 0.0000000000000000e+00  -1.3836384471235493e-03 4.0121409408520482e-03 0.0000000000000000e+00  -1.3843004973130679e-03 4.1130217049531658e-03 0.0000000000000000e+00  -1.3852206413474033e-03 4.2161968611448180e-03 0.0000000000000000e+00  -1.3853515374267523e-03 4.3209854688169924e-03 0.0000000000000000e+00  -1.3855069292028398e-03 4.4272433471068033e-03 0.0000000000000000e+00  -1.3854641871370822e-03 4.5343920623238396e-03 0.0000000000000000e+00  -1.3855175022887212e-03 4.6420419124784014e-03 0.0000000000000000e+00  -1.1743263732555021e-03 3.4653385361410080e-03 0.0000000000000000e+00  -1.1186808939276942e-03 3.2639994164474382e-03 0.0000000000000000e+00  -1.0948288616719967e-03 2.9690122267369565e-03 0.0000000000000000e+00  -1.0964990273952847e-03 2.6727678153741453e-03 0.0000000000000000e+00  -1.1213602130277947e-03 2.3621179333012149e-03 0.0000000000000000e+00  -1.1856338092165828e-03 2.1726408045574588e-03 0.0000000000000000e+00  -1.4367627936003992e-03 1.1136568388492711e-04 0.0000000000000000e+00  -1.4366245612132044e-03 2.2267005268372011e-04 0.0000000000000000e+00  -1.4363978385679231e-03 3.3385318140454108e-04 0.0000000000000000e+00  -1.4360703641706114e-03 4.4487245585994432e-04 0.0000000000000000e+00  -1.4356251182135690e-03 5.5561363797387462e-04 0.0000000000000000e+00  -1.4350496467915425e-03 6.6607047748066704e-04 0.0000000000000000e+00  -1.4343371381709135e-03 7.7607214235220353e-04 0.0000000000000000e+00  -1.4334254778660587e-03 8.8562479951976778e-04 0.0000000000000000e+00  -1.4323550773565892e-03 9.9445854276646343e-04 0.0000000000000000e+00  -1.4309480379885405e-03 1.1025849910035008e-03 0.0000000000000000e+00  -1.4293158553772662e-03 1.2098384400386179e-03 0.0000000000000000e+00  -1.4273792121621833e-03 1.3156389317853377e-03 0.0000000000000000e+00  -1.4247311169278661e-03 1.4202031683435510e-03 0.0000000000000000e+00  -1.4218721334774609e-03 1.5226133347369724e-03 0.0000000000000000e+00  -1.4178142997154524e-03 1.6225566421546398e-03 0.0000000000000000e+00  -1.4129834024259880e-03 1.7187508216334759e-03 0.0000000000000000e+00  -1.4056666126488050e-03 1.8102919663295321e-03 0.0000000000000000e+00  -1.3971989615974151e-03 1.8953064824964634e-03 0.0000000000000000e+00  -1.3807715421872682e-03 1.9669313131440835e-03 0.0000000000000000e+00  -1.3593569054163039e-03 2.0275615753970297e-03 0.0000000000000000e+00  -1.3103547540308372e-03 2.0532022272934432e-03 0.0000000000000000e+00  0.0000000000000000e+00 0.0000000000000000e+00 0.0000000000000000e+00  0.0000000000000000e+00 0.0000000000000000e+00 0.0000000000000000e+00  -5.6598620046493861e-05 0.0000000000000000e+00 0.0000000000000000e+00  -8.5713976233832905e-05 0.0000000000000000e+00 0.0000000000000000e+00  -1.2407572201099786e-04 0.0000000000000000e+00 0.0000000000000000e+00  -1.6093346454114891e-04 0.0000000000000000e+00 0.0000000000000000e+00  -1.9853608058931720e-04 0.0000000000000000e+00 0.0000000000000000e+00  -2.3722257123150552e-04 0.0000000000000000e+00 0.0000000000000000e+00  -2.7638096816431094e-04 0.0000000000000000e+00 0.0000000000000000e+00  -3.1599549341578719e-04 0.0000000000000000e+00 0.0000000000000000e+00  -3.5591351269147718e-04 0.0000000000000000e+00 0.0000000000000000e+00  -3.9595529267633106e-04 0.0000000000000000e+00 0.0000000000000000e+00  -4.3604311917097376e-04 0.0000000000000000e+00 0.0000000000000000e+00  -4.7607326446782295e-04 0.0000000000000000e+00 0.0000000000000000e+00  -5.1598776796463099e-04 0.0000000000000000e+00 0.0000000000000000e+00  -5.5573424358699411e-04 0.0000000000000000e+00 0.0000000000000000e+00  -5.9530736662859152e-04 0.0000000000000000e+00 0.0000000000000000e+00  -6.3467476756238908e-04 0.0000000000000000e+00 0.0000000000000000e+00  -6.7384432880593739e-04 0.0000000000000000e+00 0.0000000000000000e+00  -7.1281861600432615e-04 0.0000000000000000e+00 0.0000000000000000e+00  -7.5158620881578253e-04 0.0000000000000000e+00 0.0000000000000000e+00  -7.9015397523740085e-04 0.0000000000000000e+00 0.0000000000000000e+00  -8.2852494950398485e-04 0.0000000000000000e+00 0.0000000000000000e+00  -8.6668370599841775e-04 0.0000000000000000e+00 0.0000000000000000e+00  -9.0463413132271548e-04 0.0000000000000000e+00 0.0000000000000000e+00  -9.4234411397711845e-04 0.0000000000000000e+00 0.0000000000000000e+00  -9.7981127511337861e-04 0.0000000000000000e+00 0.0000000000000000e+00  -1.0169985961303489e-03 0.0000000000000000e+00 0.0000000000000000e+00  -1.0538965721256768e-03 0.0000000000000000e+00 0.0000000000000000e+00  -1.0904471646449162e-03 0.0000000000000000e+00 0.0000000000000000e+00  -1.1266792971129603e-03 0.0000000000000000e+00 0.0000000000000000e+00  -1.1625045130164854e-03 0.0000000000000000e+00 0.0000000000000000e+00  -1.1979754968419480e-03 0.0000000000000000e+00 0.0000000000000000e+00  -1.2330424567988034e-03 0.0000000000000000e+00 0.0000000000000000e+00  -1.2677224031989909e-03 0.0000000000000000e+00 0.0000000000000000e+00  -1.3020633751221391e-03 0.0000000000000000e+00 0.0000000000000000e+00  -1.3360684430931875e-03 0.0000000000000000e+00 0.0000000000000000e+00  -1.3698174450295186e-03 0.0000000000000000e+00 0.0000000000000000e+00  -1.4033630746606665e-03 0.0000000000000000e+00 0.0000000000000000e+00  -4.3801355783905819e-05 1.1701866262515599e-03 0.0000000000000000e+00  -3.5621791510898535e-06 1.1418499934715777e-03 0.0000000000000000e+00  1.7790201978793453e-05 1.0824323734263811e-03 0.0000000000000000e+00  2.9539205954920652e-05 1.0096190966151625e-03 0.0000000000000000e+00  3.5225078234397865e-05 9.2485971927153577e-04 0.0000000000000000e+00  3.9064439956179131e-05 8.3246047089114848e-04 0.0000000000000000e+00  4.1004825028044372e-05 7.3561779970257558e-04 0.0000000000000000e+00  4.2123982043448463e-05 6.3481345345155248e-04 0.0000000000000000e+00  4.2994496421192377e-05 5.3187355045046915e-04 0.0000000000000000e+00  4.3148890338729840e-05 4.2634979823242782e-04 0.0000000000000000e+00  4.3718435632353769e-05 3.2203422179463980e-04 0.0000000000000000e+00  4.2603810239968636e-05 2.1151805504902849e-04 0.0000000000000000e+00  4.3183176521053779e-05 1.1531026978206078e-04 0.0000000000000000e+00  -2.8337593004906824e-04 2.0314870814560930e-03 0.0000000000000000e+00  -7.3561827132647144e-04 1.0279350052568750e-04 0.0000000000000000e+00  -6.1003484308934321e-04 4.6460286947438883e-03 0.0000000000000000e+00  -1.0973613335764324e-03 2.6073583117794345e-03 0.0000000000000000e+00  4.7731273177519723e-05 3.0733634243215045e-03 0.0000000000000000e+00  -1.3918156883138055e-03 1.5670143895683754e-03 0.0000000000000000e+00  -5.3618804507896925e-04 1.0462522673093532e-04 0.0000000000000000e+00  -8.0597137128115681e-04 4.6449554385996619e-03 0.0000000000000000e+00  -4.1676954707436801e-04 4.6514632815431974e-03 0.0000000000000000e+00  -9.2344625874988780e-04 9.8735009470658343e-05 0.0000000000000000e+00  -1.1050541183002566e-03 3.0327324865687369e-03 0.0000000000000000e+00  -2.0279541181820261e-04 1.6242929063571827e-03 0.0000000000000000e+00  5.6121106692641084e-05 3.5781524413100734e-03 0.0000000000000000e+00  -3.3606690817706669e-04 1.0051497577591858e-04 0.0000000000000000e+00  -1.0055483001422387e-03 4.6515004201012674e-03 0.0000000000000000e+00  -1.4033544621848706e-03 1.1683542310054749e-03 0.0000000000000000e+00  -2.7003983482785124e-04 4.6547130925833164e-03 0.0000000000000000e+00  -1.0703905146336721e-03 1.0381387500988871e-04 0.0000000000000000e+00  1.2901440408256885e-05 8.8739654936259528e-04 0.0000000000000000e+00  -1.3557749924747913e-03 3.8592247054692282e-03 0.0000000000000000e+00  6.0383223055647494e-05 4.0240089237395518e-03 0.0000000000000000e+00  -1.4083379879478522e-03 7.2152366701866920e-04 0.0000000000000000e+00  -1.8294347339349801e-04 9.5284503177000166e-05 0.0000000000000000e+00  -1.1559072381192035e-03 4.6500520169936027e-03 0.0000000000000000e+00  -1.2846383823764837e-04 4.6470970378036432e-03 0.0000000000000000e+00  -1.2155118159628707e-03 9.8827167503661448e-05 0.0000000000000000e+00  2.5774429879174040e-05 2.7972383227936820e-03 0.0000000000000000e+00  -1.3803525923316133e-03 1.8617191313010854e-03 0.0000000000000000e+00  1.3816210563429966e-05 5.8344003072268585e-04 0.0000000000000000e+00  -1.3567763085208734e-03 4.1488857580325019e-03 0.0000000000000000e+00  -1.3343338667370168e-03 3.6043477063294051e-03 0.0000000000000000e+00  -1.4093001751517068e-03 3.9118274708703477e-04 0.0000000000000000e+00  6.7743743991389782e-05 4.3607789682289493e-03 0.0000000000000000e+00  -7.8395912896594663e-06 1.1435696014186934e-03 0.0000000000000000e+00  -7.2878256408699858e-05 9.4616765027653968e-05 0.0000000000000000e+00  -1.2694512229919133e-03 4.6693575484277597e-03 0.0000000000000000e+00  -1.1229330632011782e-04 2.4450220356105647e-03 0.0000000000000000e+00  -2.6155024173822804e-05 4.6529495417287764e-03 0.0000000000000000e+00  -1.3190742152919474e-03 9.7335888051118281e-05 0.0000000000000000e+00  5.4169790053219971e-05 3.2728545986692569e-03 0.0000000000000000e+00  -1.3561985365714998e-03 2.0244052230888811e-03 0.0000000000000000e+00  -4.1660556327322799e-04 1.1706650938595062e-04 0.0000000000000000e+00  -6.1518239750605133e-04 1.0452784319367543e-04 0.0000000000000000e+00  -8.1221308713425554e-04 9.4351989290047511e-05 0.0000000000000000e+00  -6.8671399539288849e-04 4.6486692130973534e-03 0.0000000000000000e+00  -5.3300227297030823e-04 4.6463297300283393e-03 0.0000000000000000e+00  -9.2546316426989539e-04 4.6456276244030599e-03 0.0000000000000000e+00  -3.4098395265993309e-04 4.6537760080937749e-03 0.0000000000000000e+00  -2.5693021249787487e-04 9.7894509498968672e-05 0.0000000000000000e+00  -9.9838897205811847e-04 1.0195434464608571e-04 0.0000000000000000e+00  1.5377412088710735e-05 3.7665353718810342e-04 0.0000000000000000e+00  -1.0897608913005960e-03 4.6489208602116605e-03 0.0000000000000000e+00  -1.9761814037990141e-04 4.6500830354839085e-03 0.0000000000000000e+00  -1.4052083598629268e-03 9.3792844475929697e-04 0.0000000000000000e+00  -1.3968673327464860e-03 1.3823049797850259e-03 0.0000000000000000e+00  -1.3604721627095441e-03 4.3726854400105994e-03 0.0000000000000000e+00  -1.1446018591039157e-03 9.8211884191383371e-05 0.0000000000000000e+00  6.2940077153908713e-05 3.8062636832798787e-03 0.0000000000000000e+00  -1.2177843355577268e-03 2.4224884345315986e-03 0.0000000000000000e+00  -1.1539512232290204e-03 2.5110388095060726e-03 0.0000000000000000e+00  -1.0878821483420412e-03 2.6438886631244825e-03 0.0000000000000000e+00  -1.1205789012226695e-03 2.5762670744321450e-03 0.0000000000000000e+00  -1.0664123668642702e-03 2.6939839480683929e-03 0.0000000000000000e+00  -1.0928551421581691e-03 2.5949066774211232e-03 0.0000000000000000e+00  -1.0551406229457909e-03 2.7044867348244503e-03 0.0000000000000000e+00  -1.0667875221299617e-03 2.6173251761690752e-03 0.0000000000000000e+00  -1.0389142213519961e-03 2.7229012624372592e-03 0.0000000000000000e+00  -1.0439543727117015e-03 2.6335813464127039e-03 0.0000000000000000e+00  -1.0217384614880332e-03 2.7334367033033770e-03 0.0000000000000000e+00  -1.0214571498764562e-03 2.6440321694607069e-03 0.0000000000000000e+00  -1.0020658412001570e-03 2.7453230315421977e-03 0.0000000000000000e+00  -9.9821427167767957e-04 2.6538465788943652e-03 0.0000000000000000e+00  -9.8064398641117042e-04 2.7549287689380380e-03 0.0000000000000000e+00  -9.7390800927298245e-04 2.6677757748633721e-03 0.0000000000000000e+00  -9.5745644339512452e-04 2.7663156268492306e-03 0.0000000000000000e+00  -9.4886729372045382e-04 2.6785976032214971e-03 0.0000000000000000e+00  -9.3316156239561744e-04 2.7762780409760078e-03 0.0000000000000000e+00  -9.2323227699574791e-04 2.6888840521545241e-03 0.0000000000000000e+00  -9.4102789074008151e-04 2.5912500655912336e-03 0.0000000000000000e+00  -9.1401463259604358e-04 2.6012603306348990e-03 0.0000000000000000e+00  -8.9687944804762456e-04 2.6985964844629638e-03 0.0000000000000000e+00  -8.8663267507859127e-04 2.6115507941582268e-03 0.0000000000000000e+00  -8.6995458489668386e-04 2.7086615166747019e-03 0.0000000000000000e+00  -8.5896345537194937e-04 2.6214875320043286e-03 0.0000000000000000e+00  -8.7604450531031473e-04 2.5199488839671991e-03 0.0000000000000000e+00  -8.4797379372018031e-04 2.5342053222915327e-03 0.0000000000000000e+00  -8.3097216369827707e-04 2.6311188993587090e-03 0.0000000000000000e+00  -8.1978835981211088e-04 2.5405270221601863e-03 0.0000000000000000e+00  -8.0272860700924295e-04 2.6402694971365448e-03 0.0000000000000000e+00  -7.9114498540039629e-04 2.5498240931296923e-03 0.0000000000000000e+00  -7.7422191436579951e-04 2.6492636537360252e-03 0.0000000000000000e+00  -7.6217146498316641e-04 2.5646243002825429e-03 0.0000000000000000e+00  -7.4546726758980316e-04 2.6596615252791672e-03 0.0000000000000000e+00  -7.3321651164352266e-04 2.5755403530290685e-03 0.0000000000000000e+00  -7.1651270200033773e-04 2.6701547182562142e-03 0.0000000000000000e+00  -7.0420114389738153e-04 2.5846063348375619e-03 0.0000000000000000e+00  -6.8741758335791022e-04 2.6798364423481023e-03 0.0000000000000000e+00  -6.7509189727319569e-04 2.5942214481570964e-03 0.0000000000000000e+00  -6.5810194357855602e-04 2.6896219286526397e-03 0.0000000000000000e+00  -6.9214650568111898e-04 2.4989952898989420e-03 0.0000000000000000e+00  -6.6307983956767820e-04 2.5086226710729085e-03 0.0000000000000000e+00  -8.3658994505977653e-04 2.4329049220131330e-03 0.0000000000000000e+00  -6.8026412288263558e-04 2.4136231201944240e-03 0.0000000000000000e+00  -6.5125175120680947e-04 2.4231199076383105e-03 0.0000000000000000e+00  -6.6849855390652070e-04 2.3282430144068006e-03 0.0000000000000000e+00  -6.3957317922488509e-04 2.3376231667038248e-03 0.0000000000000000e+00  -6.5643169206854740e-04 2.2434695763068548e-03 0.0000000000000000e+00  -6.2779400444724649e-04 2.2523813180737430e-03 0.0000000000000000e+00  -6.4454462871729734e-04 2.1579896550422729e-03 0.0000000000000000e+00  -6.1589229900366335e-04 2.1669011431049053e-03 0.0000000000000000e+00  -5.9894062597123498e-04 2.2612424905102276e-03 0.0000000000000000e+00  -6.3219160636834469e-04 2.0729387923597948e-03 0.0000000000000000e+00  -6.0376710179238372e-04 2.0816982415047787e-03 0.0000000000000000e+00  -7.2954053993328253e-04 2.7548065722283552e-03 0.000000000000