<?xml version="1.0"?>
<VTKFile type="UnstructuredGrid"  version="0.1"  >
<UnstructuredGrid>
<Piece  NumberOfPoints="2165" NumberOfCells="4161">
<Points>
<DataArray  type="Float64"  NumberOfComponents="3"  format="ascii">-3.598637933768527e-16 0.3500000000000001 0  0.05 0.4 0  -3.537405593811159e-16 0.45 0  0 1 0  1 1 0  0.9999999999999997 0.65 0  0.9999999999999997 0.5499999999999999 0  1 0 0  0 0 0  0.0191341716182545 0.3538060233744357 0  0.03535533905932737 0.3646446609406727 0  0.04619397662556433 0.3808658283817455 0  0.04619397662556434 0.4191341716182545 0  0.03535533905932738 0.4353553390593274 0  0.01913417161825449 0.4461939766255644 0  0 0.975 0  0 0.95 0  0 0.9249999999999999 0  0 0.8999999999999998 0  0 0.8749999999999998 0  0 0.8499999999999998 0  0 0.8249999999999997 0  0 0.7999999999999996 0  0 0.7749999999999996 0  0 0.7499999999999996 0  0 0.7249999999999996 0  0 0.6999999999999997 0  0 0.6749999999999998 0  0 0.6499999999999999 0  0 0.6249999999999999 0  0 0.6 0  0 0.575 0  0 0.5499999999999998 0  0 0.5249999999999999 0  0 0.4999999999999998 0  0 0.4749999999999999 0  0.975 1 0  0.95 1 0  0.925 1 0  0.9 1 0  0.875 1 0  0.85 1 0  0.825 1 0  0.8 1 0  0.775 1 0  0.75 1 0  0.725 1 0  0.7 1 0  0.675 1 0  0.65 1 0  0.625 1 0  0.6 1 0  0.575 1 0  0.55 1 0  0.525 1 0  0.5 1 0  0.475 1 0  0.45 1 0  0.425 1 0  0.4 1 0  0.375 1 0  0.35 1 0  0.325 1 0  0.3 1 0  0.275 1 0  0.25 1 0  0.225 1 0  0.2 1 0  0.175 1 0  0.15 1 0  0.125 1 0  0.09999999999999998 1 0  0.07499999999999996 1 0  0.05000000000000004 1 0  0.02500000000000002 1 0  1 0.675 0  1 0.7000000000000001 0  1 0.7250000000000001 0  1 0.7500000000000001 0  1 0.7750000000000001 0  1 0.8000000000000002 0  1 0.8250000000000002 0  1 0.8500000000000002 0  1 0.8750000000000003 0  1 0.9000000000000001 0  1 0.9250000000000002 0  1 0.9500000000000001 0  1 0.9750000000000001 0  0.9783058130441221 0.6450484433951209 0  0.9609084258765985 0.6311744900929367 0  0.9512536043909088 0.6111260466978157 0  0.9512536043909088 0.5888739533021843 0  0.9609084258765985 0.5688255099070633 0  0.9783058130441221 0.554951556604879 0  1 0.02500000000000002 0  1 0.05000000000000004 0  1 0.07500000000000008 0  1 0.1000000000000001 0  1 0.1250000000000001 0  1 0.1500000000000002 0  1 0.1750000000000002 0  1 0.2000000000000003 0  1 0.2250000000000003 0  1 0.2500000000000004 0  1 0.2750000000000004 0  1 0.3000000000000003 0  1 0.3250000000000002 0  1 0.3500000000000001 0  1 0.3750000000000001 0  1 0.3999999999999999 0  1 0.425 0  1 0.45 0  1 0.475 0  1 0.5000000000000001 0  1 0.5249999999999999 0  0.025 0 0  0.05 0 0  0.075 0 0  0.1 0 0  0.125 0 0  0.15 0 0  0.175 0 0  0.2 0 0  0.225 0 0  0.25 0 0  0.275 0 0  0.3 0 0  0.325 0 0  0.35 0 0  0.375 0 0  0.4 0 0  0.425 0 0  0.45 0 0  0.475 0 0  0.5 0 0  0.525 0 0  0.55 0 0  0.575 0 0  0.6 0 0  0.625 0 0  0.65 0 0  0.675 0 0  0.7 0 0  0.725 0 0  0.75 0 0  0.775 0 0  0.8 0 0  0.825 0 0  0.85 0 0  0.875 0 0  0.9 0 0  0.925 0 0  0.95 0 0  0.975 0 0  0 0.3250000000000001 0  0 0.3 0  0 0.275 0  0 0.2499999999999999 0  0 0.2249999999999999 0  0 0.1999999999999998 0  0 0.1749999999999998 0  0 0.1499999999999998 0  0 0.1249999999999998 0  0 0.09999999999999987 0  0 0.07499999999999984 0  0 0.04999999999999993 0  0 0.02500000000000002 0  0.06453325334544308 0.4134708543086404 0  0.5146839915088474 0.02134387884913819 0  0.4875871001393628 0.9784117024331356 0  0.9386300160094723 0.5701776715936071 0  0.0216506350946109 0.6124999999999999 0  0.9764205887290853 0.3596067946540696 0  0.3876261045932067 0.02156097490657183 0  0.6125 0.978349364905389 0  0.3612127461797463 0.9792371404802113 0  0.6374786650398092 0.02079982608537345 0  0.9387185538472446 0.6295115890709873 0  0.05482260092545593 0.3633687091864355 0  0.02445354803948679 0.7343198207875321 0  0.2624888813627476 0.02091671348578122 0  0.7375212991274043 0.9794996488945376 0  0.9793010831723812 0.2648509348664836 0  0.2625026480689301 0.9795699185263282 0  0.7362840788105066 0.02225211062275217 0  0.02159327910297104 0.2128861809896528 0  0.9786837570973538 0.7867241244631172 0  0.02419728000065929 0.8365600234152764 0  0.980043283615984 0.1624097203408714 0  0.1645857434226354 0.0205513501962844 0  0.8339481359352011 0.9784483546369231 0  0.1637584777222821 0.9774556328160621 0  0.8374916614314967 0.02165097219510076 0  0.02171915379676059 0.5370700005916152 0  0.9795335762511281 0.4365726939225819 0  0.02319480745007968 0.1370197632171214 0  0.9774462976085161 0.8592616917551974 0  0.9786941241076723 0.7122511101067891 0  0.9797883857882621 0.08781864217752949 0  0.01966314788989931 0.9125801876811624 0  0.02051815350151098 0.2882126194470174 0  0.09063226699593246 0.0214884092697174 0  0.9124408843562394 0.9818463395009377 0  0.03872465516591678 0.452731089005145 0  0.08969424365256845 0.978412979507602 0  0.9124999999999999 0.02165063509461096 0  0.02158104789437187 0.6619299176372371 0  0.9796602354625652 0.4859004208706154 0  0.3127517983598529 0.02417963694738812 0  0.4375629605000894 0.02158039900821679 0  0.5643674594196073 0.01968996000301126 0  0.5368361594956101 0.9790428840407062 0  0.4376176251051295 0.9783667484208922 0  0.6874072695660477 0.978435143102373 0  0.310604317388614 0.979558305560928 0  0.2125577044121564 0.02066685543111635 0  0.6875 0.0216506350946109 0  0.02224009810917643 0.08811420611559456 0  0.790876428529276 0.978633065284896 0  0.2125 0.978349364905389 0  0.9788033534786624 0.2116925349935155 0  0.9769441169344462 0.3150381335760689 0  0.9804648376981185 0.9123186437266726 0  0.7874999988222203 0.02127957051165741 0  0.02109233852270731 0.786866823287435 0  0.9483709287873718 0.5504073206521916 0  0.9259842326464427 0.5519702047534598 0  0.9163209045278007 0.5719292915927929 0  0.9035374059862284 0.5537291796040291 0  0.8938951918780048 0.5738949757882954 0  0.8807940177559743 0.5546750869516996 0  0.8712661812741653 0.5757142549099102 0  0.8580668865514332 0.5563902430113601 0  0.848508161986991 0.5779004013072002 0  0.8354274200119249 0.5591176379057713 0  0.8256349826905482 0.5800610629400762 0  0.8124123591208572 0.5604454546391737 0  0.802603410938817 0.5819653950592523 0  0.7892876429890218 0.562234610648543 0  0.7794355871850538 0.583896242519796 0  0.7661469824381839 0.5648243426306435 0  0.7562387679604726 0.5860005456930413 0  0.7429651600512166 0.5669367633461588 0  0.7330846968880171 0.5879590907760761 0  0.7198577999459205 0.5688986880627463 0  0.7297050500533544 0.5479561801187277 0  0.7066243396993471 0.5499068108517552 0  0.6968285086900206 0.5707989520567972 0  0.6836266810714333 0.5519088927359967 0  0.6738604685766018 0.5727655091567184 0  0.6607284761452521 0.5538781923028128 0  0.6697149783704412 0.5321140554135094 0  0.6473436039782401 0.5350050604671006 0  0.6378867365666199 0.5557804038095817 0  0.6246915360243652 0.5362124690568238 0  0.6151175309583405 0.5575933164645619 0  0.6019784180102355 0.5380659376543677 0  0.5924099113505394 0.5593739656462906 0  0.5794110962027638 0.541110021814312 0  0.5697985396917309 0.5614600003719357 0  0.5568468707330213 0.5433212932327446 0  0.5472634011377896 0.5635652141280936 0  0.5343236363495072 0.5451361960661517 0  0.5247877773262166 0.565493591892781 0  0.5118927934227436 0.5470665328397559 0  0.5023398230005425 0.5674381114577953 0  0.5213991904098014 0.5267047787870831 0  0.4990390504096661 0.528649139287786 0  0.6328887517229864 0.5131744321062524 0  0.5085133205790763 0.5083322037773296 0  0.4861972978925295 0.5102540920324363 0  0.4956914791804768 0.4899605513008993 0  0.4734139980312694 0.4918582759645476 0  0.4826986629698439 0.4717164019717278 0  0.460570567761715 0.473509155475794 0  0.4699344541058981 0.4533140529328089 0  0.4477087341565655 0.4550973130597117 0  0.4381733274019614 0.4752901381741884 0  0.4570222843287571 0.4349938694701042 0  0.4348599018247688 0.436728068420533 0  0.5604623134382263 0.581815997002507 0  0.4443612964408632 0.416499823314016 0  0.422056299386984 0.4183730429856528 0  0.4688721528228815 0.4135009841763965 0  0.4315584877924544 0.398120546824229 0  0.4092288692044618 0.3999974286008185 0  0.7463210599443056 0.6070829843371945 0  0.4187270626688335 0.3797365044773463 0  0.3964262302393312 0.3817184136470017 0  0.3869780036193907 0.4018498778543814 0  0.3742423843122406 0.3837055716372927 0  0.3648701490102072 0.4037049758807119 0  0.3518115403926748 0.3858985036587403 0  0.3426146276710081 0.4056777495658291 0  0.3614541441355358 0.3656396497906528 0  0.339026673715919 0.3678724679736439 0  0.3485566370135618 0.3476560889674916 0  0.3264681821394378 0.3496422822523857 0  0.8219942777991693 0.5379143061758643 0  0.3358297439968608 0.3295117748868035 0  0.3137050884585635 0.3314921667582986 0  0.3229980644152205 0.3113561769498422 0  0.3007986024336577 0.3133063832007756 0  0.3441851868720173 0.3085211458266175 0  0.3101966551534752 0.2930273704914169 0  0.287793053707373 0.2950088132226583 0  0.2914417217227097 0.3337427541189321 0  0.2975120686695638 0.2743682539701985 0  0.274864585256681 0.2764253296978281 0  0.816026571618698 0.6006851919544112 0  0.2844672854128698 0.2557011565880619 0  0.2617267434509338 0.2577713002235077 0  0.3072711221189672 0.2536790056475094 0  0.2521588568690318 0.2785072139143895 0  0.2389277409161178 0.2598761196336353 0  0.248448076747058 0.2389478879785275 0  0.5053822153261678 0.4716915524631118 0  0.229548765875869 0.2806542761043101 0  0.2254561407802683 0.2411354049374563 0  0.2350621310805047 0.2199181955146378 0  0.2117782450160163 0.222165061041625 0  0.2214249125635323 0.2008136877065064 0  0.2448758256083499 0.1985732693215908 0  0.197966291680556 0.2031211006951591 0  0.1883147493074436 0.2245564097761413 0  0.8910637266939049 0.5322898364209732 0  0.1748136087708587 0.2051141748992724 0  0.1842088801696792 0.1837087814679069 0  0.1656574100807746 0.2269812054689968 0  0.3554582346764377 0.4236292557112198 0  0.3328979939923831 0.425459320867588 0  0.3460368767112177 0.4435398346083328 0  0.3238464003
[...]
<PointData  Tensors="$\sigma$"> 
<DataArray  type="Float64"  Name="$\sigma$"  NumberOfComponents="9" format="ascii">-1.7267646740441279e+02 -2.3631646707086642e+02 0.0000000000000000e+00 -2.3631646707086642e+02 -5.6703525941162241e+02 0.0000000000000000e+00 0.0000000000000000e+00 0.0000000000000000e+00 0.0000000000000000e+00  7.1829187577555047e+02 2.8078979165317303e+01 0.0000000000000000e+00 2.8078979165317143e+01 1.1098961628997451e+04 0.0000000000000000e+00 0.0000000000000000e+00 0.0000000000000000e+00 0.0000000000000000e+00  -1.4405805718490109e+02 2.8226973164924777e+02 0.0000000000000000e+00 2.8226973164924755e+02 -5.9156660773628516e+02 0.0000000000000000e+00 0.0000000000000000e+00 0.0000000000000000e+00 0.0000000000000000e+00  5.6630695780289605e-02 4.5032828506134781e-01 0.0000000000000000e+00 4.5032828506134781e-01 3.5163116666343635e+03 0.0000000000000000e+00 0.0000000000000000e+00 0.0000000000000000e+00 0.0000000000000000e+00  6.9480208129684518e-01 -1.7536477183864738e-02 0.0000000000000000e+00 -1.7536477183865744e-02 3.4101711580901811e+03 0.0000000000000000e+00 0.0000000000000000e+00 0.0000000000000000e+00 0.0000000000000000e+00  -1.9629708610200504e+02 -2.5364758627052123e+02 0.0000000000000000e+00 -2.5364758627052089e+02 -6.7596642811120660e+01 0.0000000000000000e+00 0.0000000000000000e+00 0.0000000000000000e+00 0.0000000000000000e+00  1.1590511291859193e+02 -7.1694365427885472e+01 0.0000000000000000e+00 -7.1694365427885344e+01 1.0080714085512315e+02 0.0000000000000000e+00 0.0000000000000000e+00 0.0000000000000000e+00 0.0000000000000000e+00  -6.1425137999132289e-02 8.0446758243152311e-02 0.0000000000000000e+00 8.0446758243153504e-02 3.5175005250777303e+03 0.0000000000000000e+00 0.0000000000000000e+00 0.0000000000000000e+00 0.0000000000000000e+00  1.0153975849222920e+03 4.1862435988623048e+02 0.0000000000000000e+00 4.1862435988623059e+02 3.6875128554991988e+03 0.0000000000000000e+00 0.0000000000000000e+00 0.0000000000000000e+00 0.0000000000000000e+00  5.6683677998292865e+02 4.9327493603300644e+02 0.0000000000000000e+00 4.9327493603300712e+02 4.4350735490265828e+02 0.0000000000000000e+00 0.0000000000000000e+00 0.0000000000000000e+00 0.0000000000000000e+00  1.8770157906562713e+03 2.2002134045441217e+03 0.0000000000000000e+00 2.2002134045441207e+03 2.9344982299932058e+03 0.0000000000000000e+00 0.0000000000000000e+00 0.0000000000000000e+00 0.0000000000000000e+00  1.5156851680190980e+03 2.6992870896895934e+03 0.0000000000000000e+00 2.6992870896895929e+03 8.3460254184859168e+03 0.0000000000000000e+00 0.0000000000000000e+00 0.0000000000000000e+00 0.0000000000000000e+00  1.4947317521638302e+03 -2.7218639062225070e+03 0.0000000000000000e+00 -2.7218639062225084e+03 8.3129488833312080e+03 0.0000000000000000e+00 0.0000000000000000e+00 0.0000000000000000e+00 0.0000000000000000e+00  1.8574973443852418e+03 -2.1597521582684949e+03 0.0000000000000000e+00 -2.1597521582684949e+03 3.1206188393229550e+03 0.0000000000000000e+00 0.0000000000000000e+00 0.0000000000000000e+00 0.0000000000000000e+00  5.4953875338552973e+02 -5.3375747054460601e+02 0.0000000000000000e+00 -5.3375747054460760e+02 4.2783144922841620e+02 0.0000000000000000e+00 0.0000000000000000e+00 0.0000000000000000e+00 0.0000000000000000e+00  2.1104588439327731e-02 -1.3705650587978180e-01 0.0000000000000000e+00 -1.3705650587978072e-01 3.5147753064615722e+03 0.0000000000000000e+00 0.0000000000000000e+00 0.0000000000000000e+00 0.0000000000000000e+00  6.0765545183095937e-03 -5.1741483212699513e-01 0.0000000000000000e+00 -5.1741483212699524e-01 3.5121276114292777e+03 0.0000000000000000e+00 0.0000000000000000e+00 0.0000000000000000e+00 0.0000000000000000e+00  2.7398712904874972e-01 -5.4894927150682815e-01 0.0000000000000000e+00 -5.4894927150682737e-01 3.5076169408276237e+03 0.0000000000000000e+00 0.0000000000000000e+00 0.0000000000000000e+00 0.0000000000000000e+00  -2.0934489650803328e-01 -4.6861725202278248e-01 0.0000000000000000e+00 -4.6861725202278398e-01 3.5007399608541928e+03 0.0000000000000000e+00 0.0000000000000000e+00 0.0000000000000000e+00 0.0000000000000000e+00  1.6835473451826355e-01 -8.4647347280736951e-01 0.0000000000000000e+00 -8.4647347280737373e-01 3.4914359419024727e+03 0.0000000000000000e+00 0.0000000000000000e+00 0.0000000000000000e+00 0.0000000000000000e+00  6.1769265330953960e-01 -1.6733762356390394e+00 0.0000000000000000e+00 -1.6733762356390380e+00 3.4815316278449986e+03 0.0000000000000000e+00 0.0000000000000000e+00 0.0000000000000000e+00 0.0000000000000000e+00  -8.5607170986173931e-02 -1.3097049917920622e+00 0.0000000000000000e+00 -1.3097049917920627e+00 3.4641996312808114e+03 0.0000000000000000e+00 0.0000000000000000e+00 0.0000000000000000e+00 0.0000000000000000e+00  -4.9244963018087527e-02 -1.8981023089372833e+00 0.0000000000000000e+00 -1.8981023089372819e+00 3.4476548666181866e+03 0.0000000000000000e+00 0.0000000000000000e+00 0.0000000000000000e+00 0.0000000000000000e+00  8.4913110543978620e-01 -2.6499625375101465e+00 0.0000000000000000e+00 -2.6499625375101452e+00 3.4264436599345909e+03 0.0000000000000000e+00 0.0000000000000000e+00 0.0000000000000000e+00 0.0000000000000000e+00  7.6521179824571905e-01 -3.3115174907283311e+00 0.0000000000000000e+00 -3.3115174907283111e+00 3.4013981439983231e+03 0.0000000000000000e+00 0.0000000000000000e+00 0.0000000000000000e+00 0.0000000000000000e+00  4.9021265962652127e-01 -4.2627827941664052e+00 0.0000000000000000e+00 -4.2627827941664034e+00 3.3569858807806741e+03 0.0000000000000000e+00 0.0000000000000000e+00 0.0000000000000000e+00 0.0000000000000000e+00  4.0178972122568202e-01 -7.0493775968298831e+00 0.0000000000000000e+00 -7.0493775968298769e+00 3.3282985440722664e+03 0.0000000000000000e+00 0.0000000000000000e+00 0.0000000000000000e+00 0.0000000000000000e+00  1.2249452486819053e-01 -5.3237669782140378e+00 0.0000000000000000e+00 -5.3237669782140618e+00 3.2614527189348591e+03 0.0000000000000000e+00 0.0000000000000000e+00 0.0000000000000000e+00 0.0000000000000000e+00  1.3299369933010943e+00 -7.9324567929552385e+00 0.0000000000000000e+00 -7.9324567929552430e+00 3.1990007542627159e+03 0.0000000000000000e+00 0.0000000000000000e+00 0.0000000000000000e+00 0.0000000000000000e+00  4.3958734699335134e+00 -4.5583510776011549e+00 0.0000000000000000e+00 -4.5583510776011735e+00 3.0987015228763803e+03 0.0000000000000000e+00 0.0000000000000000e+00 0.0000000000000000e+00 0.0000000000000000e+00  -2.7927418011156036e+00 -1.0228542049460517e+01 0.0000000000000000e+00 -1.0228542049460378e+01 2.9744702721467461e+03 0.0000000000000000e+00 0.0000000000000000e+00 0.0000000000000000e+00 0.0000000000000000e+00  1.4115500355890731e+01 -3.0439049101371712e+01 0.0000000000000000e+00 -3.0439049101371751e+01 2.7756200608218860e+03 0.0000000000000000e+00 0.0000000000000000e+00 0.0000000000000000e+00 0.0000000000000000e+00  -6.6781109426017817e+00 -2.1643106735798082e+01 0.0000000000000000e+00 -2.1643106735798057e+01 2.5077308848578868e+03 0.0000000000000000e+00 0.0000000000000000e+00 0.0000000000000000e+00 0.0000000000000000e+00  1.6001262292010612e+01 -9.0698131330497432e+01 0.0000000000000000e+00 -9.0698131330497631e+01 2.0630228261060784e+03 0.0000000000000000e+00 0.0000000000000000e+00 0.0000000000000000e+00 0.0000000000000000e+00  -3.2211587098477359e+01 -1.0513713237581841e+02 0.0000000000000000e+00 -1.0513713237581811e+02 1.3988748021570684e+03 0.0000000000000000e+00 0.0000000000000000e+00 0.0000000000000000e+00 0.0000000000000000e+00  1.1519173280333607e+02 -1.2363040197120267e+02 0.0000000000000000e+00 -1.2363040197120246e+02 5.0752783716919822e+02 0.0000000000000000e+00 0.0000000000000000e+00 0.0000000000000000e+00 0.0000000000000000e+00  -2.8309527735586584e+00 1.5546292076478371e-01 0.0000000000000000e+00 1.5546292076477805e-01 3.4177304482374579e+03 0.0000000000000000e+00 0.0000000000000000e+00 0.0000000000000000e+00 0.0000000000000000e+00  -1.4570328873975647e+01 7.4286523339697805e-02 0.0000000000000000e+00 7.4286523339710572e-02 3.4401833326190931e+03 0.0000000000000000e+00 0.0000000000000000e+00 0.0000000000000000e+00 0.0000000000000000e+00  -3.2150533831943648e+01 9.2513247587068981e-01 0.0000000000000000e+00 9.2513247587069358e-01 3.4739027374378320e+03 0.0000000000000000e+00 0.0000000000000000e+00 0.0000000000000000e+00 0.0000000000000000e+00  -5.2908883764255805e+01 1.9852178681104962e-01 0.0000000000000000e+00 1.9852178681105437e-01 3.5124973378785267e+03 0.0000000000000000e+00 0.0000000000000000e+00 0.0000000000000000e+00 0.0000000000000000e+00  -7.0782812086357254e+01 1.3983130822980596e+00 0.0000000000000000e+00 1.3983130822980672e+00 3.5601144861062326e+03 0.0000000000000000e+00 0.0000000000000000e+00 0.0000000000000000e+00 0.0000000000000000e+00  -8.9258218660986827e+01 -5.6175010739372429e-02 0.0000000000000000e+00 -5.6175010739362027e-02 3.6063234634453506e+03 0.0000000000000000e+00 0.0000000000000000e+00 0.0000000000000000e+00 0.0000000000000000e+00  -1.0745049988077426e+02 -5.0483482346189981e-03 0.0000000000000000e+00 -5.0483482346147610e-03 3.6458758715056247e+03 0.0000000000000000e+00 0.0000000000000000e+00 0.0000000000000000e+00 0.0000000000000000e+00  -1.1625078416478910e+02 -3.2419887785868262e-01 0.0000000000000000e+00 -3.2419887785867907e-01 3.6889523281469706e+03 0.0000000000000000e+00 0.0000000000000000e+00 0.0000000000000000e+00 0.0000000000000000e+00  -1.2496659595310123e+02 1.3467147969424365e-01 0.0000000000000000e+00 1.3467147969424126e-01 3.7161098626010416e+03 0.0000000000000000e+00 0.0000000000000000e+00 0.0000000000000000e+00 0.0000000000000000e+00  -1.3027223947019394e+02 -4.1673238623563125e-01 0.0000000000000000e+00 -4.1673238623563064e-01 3.7427928252502770e+03 0.0000000000000000e+00 0.0000000000000000e+00 0.0000000000000000e+00 0.0000000000000000e+00  -1.3112202518273912e+02 -4.1309333974800538e-01 0.0000000000000000e+00 -4.1309333974800494e-01 3.7630676336050792e+03 0.0000000000000000e+00 0.0000000000000000e+00 0.0000000000000000e+00 0.0000000000000000e+00  -1.2974179736146101e+02 -6.2619390401747466e-01 0.0000000000000000e+00 -6.2619390401747677e-01 3.7768753794495160e+03 0.0000000000000000e+00 0.0000000000000000e+00 0.0000000000000000e+00 0.0000000000000000e+00  -1.2658788106084424e+02 -4.1091222515512515e-01 0.0000000000000000e+00 -4.1091222515512815e-01 3.7867454704109841e+03 0.0000000000000000e+00 0.0000000000000000e+00 0.0000000000000000e+00 0.0000000000000000e+00  -1.2252594944450068e+02 -3.3173072300398415e-01 0.0000000000000000e+00 -3.3173072300398726e-01 3.7928900324542965e+03 0.0000000000000000e+00 0.0000000000000000e+00 0.0000000000000000e+00 0.0000000000000000e+00  -1.1732906452807882e+02 -3.7082959076210470e-01 0.0000000000000000e+00 -3.7082959076210353e-01 3.7954205334366152e+03 0.0000000000000000e+00 0.0000000000000000e+00 0.0000000000000000e+00 0.0000000000000000e+00  -1.1202892038255966e+02 -4.1885128712990272e-01 0.0000000000000000e+00 -4.1885128712990133e-01 3.7955883409298517e+03 0.0000000000000000e+00 0.0000000000000000e+00 0.0000000000000000e+00 0.0000000000000000e+00  -1.0685598634534267e+02 -2.7657884115837117e-01 0.0000000000000000e+00 -2.7657884115836923e-01 3.7934164666133211e+03 0.0000000000000000e+00 0.0000000000000000e+00 0.0000000000000000e+00 0.0000000000000000e+00  -1.0186013569177354e+02 -2.8783626435858584e-01 0.0000000000000000e+00 -2.8783626435858944e-01 3.7898371048798581e+03 0.0000000000000000e+00 0.0000000000000000e+00 0.0000000000000000e+00 0.0000000000000000e+00  -9.7224164774517774e+01 -1.6840176283281108e-01 0.0000000000000000e+00 -1.6840176283281438e-01 3.7848058058998949e+03 0.0000000000000000e+00 0.0000000000000000e+00 0.0000000000000000e+00 0.0000000000000000e+00  -9.2913879883169926e+01 -1.3042965298154707e-01 0.0000000000000000e+00 -1.3042965298154602e-01 3.7784144124633981e+03 0.0000000000000000e+00 0.0000000000000000e+00 0.0000000000000000e+00 0.0000000000000000e+00  -8.9063865851275011e+01 -7.3630335203131864e-02 0.0000000000000000e+00 -7.3630335203130823e-02 3.7710837597200061e+03 0.0000000000000000e+00 0.0000000000000000e+00 0.0000000000000000e+00 0.0000000000000000e+00  -8.5298928213290353e+01 -3.7965220832159259e-02 0.0000000000000000e+00 -3.7965220832158031e-02 3.7627991246159268e+03 0.0000000000000000e+00 0.0000000000000000e+00 0.0000000000000000e+00 0.0000000000000000e+00  -8.1995450459245802e+01 -4.5759199435190818e-03 0.0000000000000000e+00 -4.5759199435182803e-03 3.7533342908371078e+03 0.0000000000000000e+00 0.0000000000000000e+00 0.0000000000000000e+00 0.0000000000000000e+00  -7.8371079419853331e+01 -2.9285825557992539e-02 0.0000000000000000e+00 -2.9285825557992071e-02 3.7429030253242568e+03 0.0000000000000000e+00 0.0000000000000000e+00 0.0000000000000000e+00 0.0000000000000000e+00  -7.5050546645071776e+01 -4.8240966348431231e-02 0.0000000000000000e+00 -4.8240966348432501e-02 3.7315636465523189e+03 0.0000000000000000e+00 0.0000000000000000e+00 0.0000000000000000e+00 0.0000000000000000e+00  -7.1187685771118637e+01 5.9746679622116210e-02 0.0000000000000000e+00 5.9746679622116744e-02 3.7189844462548640e+03 0.0000000000000000e+00 0.0000000000000000e+00 0.0000000000000000e+00 0.0000000000000000e+00  -6.7096200265757972e+01 -1.6700486858662052e-02 0.0000000000000000e+00 -1.6700486858662749e-02 3.7049150343553688e+03 0.0000000000000000e+00 0.0000000000000000e+00 0.0000000000000000e+00 0.0000000000000000e+00  -6.2636043683153765e+01 7.1987450965125988e-02 0.0000000000000000e+00 7.1987450965125765e-02 3.6901120531301030e+03 0.0000000000000000e+00 0.0000000000000000e+00 0.0000000000000000e+00 0.0000000000000000e+00  -5.7451117923669109e+01 1.0403550892839848e-01 0.0000000000000000e+00 1.0403550892839732e-01 3.6744802571055952e+03 0.0000000000000000e+00 0.0000000000000000e+00 0.0000000000000000e+00 0.0000000000000000e+00  -5.2119025040648630e+01 7.1663269535053370e-03 0.0000000000000000e+00 7.1663269535023055e-03 3.6569816013722925e+03 0.0000000000000000e+00 0.0000000000000000e+00 0.0000000000000000e+00 0.0000000000000000e+00  -4.5697124806892035e+01 -4.5791707021569372e-02 0.0000000000000000e+00 -4.5791707021573244e-02 3.6397919192278600e+03 0.0000000000000000e+00 0.0000000000000000e+00 0.0000000000000000e+00 0.0000000000000000e+00  -3.9572635997711608e+01 -1.1300949075176192e-01 0.0000000000000000e+00 -1.1300949075175928e-01 3.6210922374741749e+03 0.0000000000000000e+00 0.0000000000000000e+00 0.0000000000000000e+00 0.0000000000000000e+00  -3.2398540912473663e+01 -5.1648865842638461e-02 0.0000000000000000e+00 -5.1648865842645462e-02 3.6029018279562929e+03 0.0000000000000000e+00 0.0000000000000000e+00 0.0000000000000000e+00 0.0000000000000000e+00  -2.5518466855860961e+01 -1.7047592246815821e-01 0.0000000000000000e+00 -1.7047592246815918e-01 3.5859069871062679e+03 0.0000000000000000e+00 0.0000000000000000e+00 0.0000000000000000e+00 0.0000000000000000e+00  -1.8750009228631139e+01 -6.2041585138637313e-02 0.0000000000000000e+00 -6.2041585138638652e-02 3.5690493478812227e+03 0.0000000000000000e+00 0.0000000000000000e+00 0.0000000000000000e+00 0.0000000000000000e+00  -1.2623828069183816e+01 -2.2389807594708877e-02 0.0000000000000000e+00 -2.2389807594708877e-02 3.5530411321184338e+03 0.0000000000000000e+00 0.0000000000000000e+00 0.0000000000000000e+00 0.0000000000000000e+00  -7.3945015048972618e+00 -6.4120425931426903e-02 0.0000000000000000e+00 -6.4120425931426403e-02 3.5395892746351651e+03 0.0000000000000000e+00 0.0000000000000000e+00 0.0000000000000000e+00 0.0000000000000000e+00  -3.3642421319635649e+00 4.4560358647436939e-02 0.0000000000000000e+00 4.4560358647439957e-02 3.5283358967960580e+03 0.0000000000000000e+00 0.0000000000000000e+00 0.0000000000000000e+00 0.0000000000000000e+00  -4.7399495650385637e-01 1.0650187470605149e-01 0.0000000000000000e+00 1.0650187470605012e-01 3.5205613109954602e+03 0.0000000000000000e+00 0.0000000000000000e+00 0.0000000000000000e+00 0.0000000000000000e+00  1.1088186693650243e+02 5.7748609701937617e+01 0.0000000000000000e+00 5.7748609701938015e+01 4.0408176710059570e+02 0.0000000000000000e+00 0.0000000000000000e+00 0.0000000000000000e+00 0.0000000000000000e+00  6.3161295818680500e+01 8.9207098411171316e+01 0.0000000000000000e+00 8.9207098411171231e+01 1.4653591725028070e+03 0.0000000000000000e+00 0.0000000000000000e+00 0.0000000000000000e+00 0.0000000000000000e+00  -1.4622150454965581e+01 2.7917817541873756e+01 0.0000000000000000e+00 2.7917817541873806e+01 2.0792543895226891e+03 0.0000000000000000e+00 0.0000000000000000e+00 0.0000000000000000e+00 0.0000000000000000e+00  3.5891249760955802e+01 3.9748977281436709e+01 0.0000000000000000e+00 3.9748977281436979e+01 2.5650803446728364e+03 0.0000000000000000e+00 0.0000000000000000e+00 0.0000000000000000e+00 0.0000000000000000e+00  -6.2735885970060865e+00 1.2518765843895130e+00 0.0000000000000000e+00 1.2518765843895689e+00 2.8076343293243308e+03 0.0000000000000000e+00 0.0000000000000000e+00 0.0000000000000000e+00 0.0000000000000000e+00  1.2898051478389096e+01 1.5674047239963219e+01 0.0000000000000000e+00 1.5674047239963205e+01 3.0058602202103866e+03 0.0000000000000000e+00 0.0000000000000000e+00 0.0000000000000000e+00 0.0000000000000000e+00  -2.0065763815978053e+00 1.0132966662319340e+01 0.0000000000000000e+00 1.0132966662319305e+01 3.1356567837072466e+03 0.0000000000000000e+00 0.0000000000000000e+00 0.0000000000000000e+00 0.0000000000000000e+00  1.0136306219047182e+00 1.0039192245702568e+01 0.0000000000000000e+00 1.0039192245702536e+01 3.2120402683394036e+03 0.0000000000000000e+00 0.0000000000000000e+00 0.0000000000000000e+00 0.0000000000000000e+00  1.3214872874419468e+00 5.6643333203900577e+00 0.0000000000000000e+00 5.6643333203900710e+00 3.2917575535796605e+03 0.0000000000000000e+00 0.0000000000000000e+00 0.0000000000000000e+00 0.0000000000000000e+00  1.8524593346528224e+00 4.3880444930484055e+00 0.0000000000000000e+00 4.3880444930484170e+00 3.3375594234758864e+03 0.0000000000000000e+00 0.0000000000000000e+00 0.0000000000000000e+00 0.0000000000000000e+00  -1.0646726839307075e+00 5.4235216673742692e-01 0.0000000000000000e+00 5.4235216673743902e-01 3.3725978444027405e+03 0.0000000000000000e+00 0.0000000000000000e+00 0.0000000000000000e+00 0.0000000000000000e+00  1.8703893889658370e+00 1.7542566683027006e+00 0.0000000000000000e+00 1.7542566683027050e+00 3.3919460077595381e+03 0.0000000000000000e+00 0.0000000000000000e+00 0.0000000000000000e+00 0.0000000000000000e+00  -4.6556699652712380e-01 4.5342067344005482e-01 0.0000000000000000e+00 4.5342067344006176e-01 3.4082001093756280e+03 0.0000000000000000e+00 0.0000000000000000e+00 0.0000000000000000e+00 0.0000000000000000e+00  7.5449547420213150e+02 6.4224584694776024e+02 0.0000000000000000e+00 6.4224584694776092e+02 4.7750824636984817e+02 0.0000000000000000e+00 0.0000000000000000e+00 0.0000000000000000e+00 0.0000000000000000e+00  2.1104969248209982e+03 2.7353828487969454e+03 0.0000000000000000e+00 2.7353828487969427e+03 4.7769709369967459e+03 0.0000000000000000e+00 0.0000000000000000e+00 0.0000000000000000e+00 0.0000000000000000e+00  8.2365377825949247e+02 1.9623979464287643e+03 0.0000000000000000e+00 1.9623979464287631e+03 9.9434962557876952e+03 0.0000000000000000e+00 0.0000000000000000e+00 0.0000000000000000e+00 0.0000000000000000e+00  1.3625826260845904e+03 -1.3233004738038171e+03 0.0000000000000000e+00 -1.3233004738038173e+03 9.3915456184965515e+03 0.0000000000000000e+00 0.0000000000000000e+00 0.0000000000000000e+00 0.0000000000000000e+00  1.4141521373957451e+03 -2.7632366877518248e+03 0.0000000000000000e+00 -2.7632366877518275e+03 4.8052182123721805e+03 0.0000000000000000e+00 0.0000000000000000e+00 0.0000000000000000e+00 0.0000000000000000e+00  7.5901854580765371e+02 -7.8735117657426349e+02 0.0000000000000000e+00 -7.8735117657426235e+02 7.1270697895547426e+02 0.0000000000000000e+00 0.0000000000000000e+00 0.0000000000000000e+00 0.0000000000000000e+00  4.6530187647029882e-02 -2.2760970123662577e-01 0.0000000000000000e+00 -2.2760970123662624e-01 3.5167699348946494e+03 0.0000000000000000e+00 0.0000000000000000e