<?xml version="1.0"?>
<VTKFile type="UnstructuredGrid"  version="0.1"  >
<UnstructuredGrid>
<Piece  NumberOfPoints="2165" NumberOfCells="4161">
<Points>
<DataArray  type="Float64"  NumberOfComponents="3"  format="ascii">-3.598637933768527e-16 0.3500000000000001 0  0.05 0.4 0  -3.537405593811159e-16 0.45 0  0 1 0  1 1 0  0.9999999999999997 0.65 0  0.9999999999999997 0.5499999999999999 0  1 0 0  0 0 0  0.0191341716182545 0.3538060233744357 0  0.03535533905932737 0.3646446609406727 0  0.04619397662556433 0.3808658283817455 0  0.04619397662556434 0.4191341716182545 0  0.03535533905932738 0.4353553390593274 0  0.01913417161825449 0.4461939766255644 0  0 0.975 0  0 0.95 0  0 0.9249999999999999 0  0 0.8999999999999998 0  0 0.8749999999999998 0  0 0.8499999999999998 0  0 0.8249999999999997 0  0 0.7999999999999996 0  0 0.7749999999999996 0  0 0.7499999999999996 0  0 0.7249999999999996 0  0 0.6999999999999997 0  0 0.6749999999999998 0  0 0.6499999999999999 0  0 0.6249999999999999 0  0 0.6 0  0 0.575 0  0 0.5499999999999998 0  0 0.5249999999999999 0  0 0.4999999999999998 0  0 0.4749999999999999 0  0.975 1 0  0.95 1 0  0.925 1 0  0.9 1 0  0.875 1 0  0.85 1 0  0.825 1 0  0.8 1 0  0.775 1 0  0.75 1 0  0.725 1 0  0.7 1 0  0.675 1 0  0.65 1 0  0.625 1 0  0.6 1 0  0.575 1 0  0.55 1 0  0.525 1 0  0.5 1 0  0.475 1 0  0.45 1 0  0.425 1 0  0.4 1 0  0.375 1 0  0.35 1 0  0.325 1 0  0.3 1 0  0.275 1 0  0.25 1 0  0.225 1 0  0.2 1 0  0.175 1 0  0.15 1 0  0.125 1 0  0.09999999999999998 1 0  0.07499999999999996 1 0  0.05000000000000004 1 0  0.02500000000000002 1 0  1 0.675 0  1 0.7000000000000001 0  1 0.7250000000000001 0  1 0.7500000000000001 0  1 0.7750000000000001 0  1 0.8000000000000002 0  1 0.8250000000000002 0  1 0.8500000000000002 0  1 0.8750000000000003 0  1 0.9000000000000001 0  1 0.9250000000000002 0  1 0.9500000000000001 0  1 0.9750000000000001 0  0.9783058130441221 0.6450484433951209 0  0.9609084258765985 0.6311744900929367 0  0.9512536043909088 0.6111260466978157 0  0.9512536043909088 0.5888739533021843 0  0.9609084258765985 0.5688255099070633 0  0.9783058130441221 0.554951556604879 0  1 0.02500000000000002 0  1 0.05000000000000004 0  1 0.07500000000000008 0  1 0.1000000000000001 0  1 0.1250000000000001 0  1 0.1500000000000002 0  1 0.1750000000000002 0  1 0.2000000000000003 0  1 0.2250000000000003 0  1 0.2500000000000004 0  1 0.2750000000000004 0  1 0.3000000000000003 0  1 0.3250000000000002 0  1 0.3500000000000001 0  1 0.3750000000000001 0  1 0.3999999999999999 0  1 0.425 0  1 0.45 0  1 0.475 0  1 0.5000000000000001 0  1 0.5249999999999999 0  0.025 0 0  0.05 0 0  0.075 0 0  0.1 0 0  0.125 0 0  0.15 0 0  0.175 0 0  0.2 0 0  0.225 0 0  0.25 0 0  0.275 0 0  0.3 0 0  0.325 0 0  0.35 0 0  0.375 0 0  0.4 0 0  0.425 0 0  0.45 0 0  0.475 0 0  0.5 0 0  0.525 0 0  0.55 0 0  0.575 0 0  0.6 0 0  0.625 0 0  0.65 0 0  0.675 0 0  0.7 0 0  0.725 0 0  0.75 0 0  0.775 0 0  0.8 0 0  0.825 0 0  0.85 0 0  0.875 0 0  0.9 0 0  0.925 0 0  0.95 0 0  0.975 0 0  0 0.3250000000000001 0  0 0.3 0  0 0.275 0  0 0.2499999999999999 0  0 0.2249999999999999 0  0 0.1999999999999998 0  0 0.1749999999999998 0  0 0.1499999999999998 0  0 0.1249999999999998 0  0 0.09999999999999987 0  0 0.07499999999999984 0  0 0.04999999999999993 0  0 0.02500000000000002 0  0.06453325334544308 0.4134708543086404 0  0.5146839915088474 0.02134387884913819 0  0.4875871001393628 0.9784117024331356 0  0.9386300160094723 0.5701776715936071 0  0.0216506350946109 0.6124999999999999 0  0.9764205887290853 0.3596067946540696 0  0.3876261045932067 0.02156097490657183 0  0.6125 0.978349364905389 0  0.3612127461797463 0.9792371404802113 0  0.6374786650398092 0.02079982608537345 0  0.9387185538472446 0.6295115890709873 0  0.05482260092545593 0.3633687091864355 0  0.02445354803948679 0.7343198207875321 0  0.2624888813627476 0.02091671348578122 0  0.7375212991274043 0.9794996488945376 0  0.9793010831723812 0.2648509348664836 0  0.2625026480689301 0.9795699185263282 0  0.7362840788105066 0.02225211062275217 0  0.02159327910297104 0.2128861809896528 0  0.9786837570973538 0.7867241244631172 0  0.02419728000065929 0.8365600234152764 0  0.980043283615984 0.1624097203408714 0  0.1645857434226354 0.0205513501962844 0  0.8339481359352011 0.9784483546369231 0  0.1637584777222821 0.9774556328160621 0  0.8374916614314967 0.02165097219510076 0  0.02171915379676059 0.5370700005916152 0  0.9795335762511281 0.4365726939225819 0  0.02319480745007968 0.1370197632171214 0  0.9774462976085161 0.8592616917551974 0  0.9786941241076723 0.7122511101067891 0  0.9797883857882621 0.08781864217752949 0  0.01966314788989931 0.9125801876811624 0  0.02051815350151098 0.2882126194470174 0  0.09063226699593246 0.0214884092697174 0  0.9124408843562394 0.9818463395009377 0  0.03872465516591678 0.452731089005145 0  0.08969424365256845 0.978412979507602 0  0.9124999999999999 0.02165063509461096 0  0.02158104789437187 0.6619299176372371 0  0.9796602354625652 0.4859004208706154 0  0.3127517983598529 0.02417963694738812 0  0.4375629605000894 0.02158039900821679 0  0.5643674594196073 0.01968996000301126 0  0.5368361594956101 0.9790428840407062 0  0.4376176251051295 0.9783667484208922 0  0.6874072695660477 0.978435143102373 0  0.310604317388614 0.979558305560928 0  0.2125577044121564 0.02066685543111635 0  0.6875 0.0216506350946109 0  0.02224009810917643 0.08811420611559456 0  0.790876428529276 0.978633065284896 0  0.2125 0.978349364905389 0  0.9788033534786624 0.2116925349935155 0  0.9769441169344462 0.3150381335760689 0  0.9804648376981185 0.9123186437266726 0  0.7874999988222203 0.02127957051165741 0  0.02109233852270731 0.786866823287435 0  0.9483709287873718 0.5504073206521916 0  0.9259842326464427 0.5519702047534598 0  0.9163209045278007 0.5719292915927929 0  0.9035374059862284 0.5537291796040291 0  0.8938951918780048 0.5738949757882954 0  0.8807940177559743 0.5546750869516996 0  0.8712661812741653 0.5757142549099102 0  0.8580668865514332 0.5563902430113601 0  0.848508161986991 0.5779004013072002 0  0.8354274200119249 0.5591176379057713 0  0.8256349826905482 0.5800610629400762 0  0.8124123591208572 0.5604454546391737 0  0.802603410938817 0.5819653950592523 0  0.7892876429890218 0.562234610648543 0  0.7794355871850538 0.583896242519796 0  0.7661469824381839 0.5648243426306435 0  0.7562387679604726 0.5860005456930413 0  0.7429651600512166 0.5669367633461588 0  0.7330846968880171 0.5879590907760761 0  0.7198577999459205 0.5688986880627463 0  0.7297050500533544 0.5479561801187277 0  0.7066243396993471 0.5499068108517552 0  0.6968285086900206 0.5707989520567972 0  0.6836266810714333 0.5519088927359967 0  0.6738604685766018 0.5727655091567184 0  0.6607284761452521 0.5538781923028128 0  0.6697149783704412 0.5321140554135094 0  0.6473436039782401 0.5350050604671006 0  0.6378867365666199 0.5557804038095817 0  0.6246915360243652 0.5362124690568238 0  0.6151175309583405 0.5575933164645619 0  0.6019784180102355 0.5380659376543677 0  0.5924099113505394 0.5593739656462906 0  0.5794110962027638 0.541110021814312 0  0.5697985396917309 0.5614600003719357 0  0.5568468707330213 0.5433212932327446 0  0.5472634011377896 0.5635652141280936 0  0.5343236363495072 0.5451361960661517 0  0.5247877773262166 0.565493591892781 0  0.5118927934227436 0.5470665328397559 0  0.5023398230005425 0.5674381114577953 0  0.5213991904098014 0.5267047787870831 0  0.4990390504096661 0.528649139287786 0  0.6328887517229864 0.5131744321062524 0  0.5085133205790763 0.5083322037773296 0  0.4861972978925295 0.5102540920324363 0  0.4956914791804768 0.4899605513008993 0  0.4734139980312694 0.4918582759645476 0  0.4826986629698439 0.4717164019717278 0  0.460570567761715 0.473509155475794 0  0.4699344541058981 0.4533140529328089 0  0.4477087341565655 0.4550973130597117 0  0.4381733274019614 0.4752901381741884 0  0.4570222843287571 0.4349938694701042 0  0.4348599018247688 0.436728068420533 0  0.5604623134382263 0.581815997002507 0  0.4443612964408632 0.416499823314016 0  0.422056299386984 0.4183730429856528 0  0.4688721528228815 0.4135009841763965 0  0.4315584877924544 0.398120546824229 0  0.4092288692044618 0.3999974286008185 0  0.7463210599443056 0.6070829843371945 0  0.4187270626688335 0.3797365044773463 0  0.3964262302393312 0.3817184136470017 0  0.3869780036193907 0.4018498778543814 0  0.3742423843122406 0.3837055716372927 0  0.3648701490102072 0.4037049758807119 0  0.3518115403926748 0.3858985036587403 0  0.3426146276710081 0.4056777495658291 0  0.3614541441355358 0.3656396497906528 0  0.339026673715919 0.3678724679736439 0  0.3485566370135618 0.3476560889674916 0  0.3264681821394378 0.3496422822523857 0  0.8219942777991693 0.5379143061758643 0  0.3358297439968608 0.3295117748868035 0  0.3137050884585635 0.3314921667582986 0  0.3229980644152205 0.3113561769498422 0  0.3007986024336577 0.3133063832007756 0  0.3441851868720173 0.3085211458266175 0  0.3101966551534752 0.2930273704914169 0  0.287793053707373 0.2950088132226583 0  0.2914417217227097 0.3337427541189321 0  0.2975120686695638 0.2743682539701985 0  0.274864585256681 0.2764253296978281 0  0.816026571618698 0.6006851919544112 0  0.2844672854128698 0.2557011565880619 0  0.2617267434509338 0.2577713002235077 0  0.3072711221189672 0.2536790056475094 0  0.2521588568690318 0.2785072139143895 0  0.2389277409161178 0.2598761196336353 0  0.248448076747058 0.2389478879785275 0  0.5053822153261678 0.4716915524631118 0  0.229548765875869 0.2806542761043101 0  0.2254561407802683 0.2411354049374563 0  0.2350621310805047 0.2199181955146378 0  0.2117782450160163 0.222165061041625 0  0.2214249125635323 0.2008136877065064 0  0.2448758256083499 0.1985732693215908 0  0.197966291680556 0.2031211006951591 0  0.1883147493074436 0.2245564097761413 0  0.8910637266939049 0.5322898364209732 0  0.1748136087708587 0.2051141748992724 0  0.1842088801696792 0.1837087814679069 0  0.1656574100807746 0.2269812054689968 0  0.3554582346764377 0.4236292557112198 0  0.3328979939923831 0.425459320867588 0  0.3460368767112177 0.4435398346083328 0  0.3238464003
[...]
<PointData  Tensors="$\sigma$"> 
<DataArray  type="Float64"  Name="$\sigma$"  NumberOfComponents="9" format="ascii">-3.3873622742882475e+02 -3.9703683593085907e+02 0.0000000000000000e+00 -3.9703683593085958e+02 -9.9245950005671364e+02 0.0000000000000000e+00 0.0000000000000000e+00 0.0000000000000000e+00 0.0000000000000000e+00  3.2015915439652781e+03 3.9276812181838473e+01 0.0000000000000000e+00 3.9276812181837450e+01 1.5656271004874074e+04 0.0000000000000000e+00 0.0000000000000000e+00 0.0000000000000000e+00 0.0000000000000000e+00  -2.8100997693369180e+02 4.9758496040444817e+02 0.0000000000000000e+00 4.9758496040444788e+02 -1.0431599702261203e+03 0.0000000000000000e+00 0.0000000000000000e+00 0.0000000000000000e+00 0.0000000000000000e+00  8.2729941576228233e-02 8.7388950444733537e-01 0.0000000000000000e+00 8.7388950444733726e-01 6.0783221786546737e+03 0.0000000000000000e+00 0.0000000000000000e+00 0.0000000000000000e+00 0.0000000000000000e+00  1.7594413955105983e+00 6.1626172753485101e-02 0.0000000000000000e+00 6.1626172753485663e-02 5.8909255970203303e+03 0.0000000000000000e+00 0.0000000000000000e+00 0.0000000000000000e+00 0.0000000000000000e+00  -4.1224218514749532e+02 -3.6454686125802249e+02 0.0000000000000000e+00 -3.6454686125802186e+02 -1.3316229546339883e+02 0.0000000000000000e+00 0.0000000000000000e+00 0.0000000000000000e+00 0.0000000000000000e+00  2.1813284341072125e+02 -1.6346887842442206e+02 0.0000000000000000e+00 -1.6346887842442152e+02 2.2383219427586309e+02 0.0000000000000000e+00 0.0000000000000000e+00 0.0000000000000000e+00 0.0000000000000000e+00  1.1788743727225796e-01 1.3487712732107837e-01 0.0000000000000000e+00 1.3487712732108209e-01 6.0830123858029165e+03 0.0000000000000000e+00 0.0000000000000000e+00 0.0000000000000000e+00 0.0000000000000000e+00  1.7927422819880771e+03 7.2581052430228158e+02 0.0000000000000000e+00 7.2581052430228237e+02 6.3799940785215194e+03 0.0000000000000000e+00 0.0000000000000000e+00 0.0000000000000000e+00 0.0000000000000000e+00  9.3682923093950296e+02 7.4836702832196670e+02 0.0000000000000000e+00 7.4836702832196738e+02 6.6003655206871883e+02 0.0000000000000000e+00 0.0000000000000000e+00 0.0000000000000000e+00 0.0000000000000000e+00  3.2532057114393165e+03 3.8342780953896167e+03 0.0000000000000000e+00 3.8342780953896181e+03 4.5879303576494131e+03 0.0000000000000000e+00 0.0000000000000000e+00 0.0000000000000000e+00 0.0000000000000000e+00  3.0097091639983928e+03 4.3874646675686627e+03 0.0000000000000000e+00 4.3874646675686590e+03 1.2762976782156895e+04 0.0000000000000000e+00 0.0000000000000000e+00 0.0000000000000000e+00 0.0000000000000000e+00  2.9803308158173550e+03 -4.3730908191275112e+03 0.0000000000000000e+00 -4.3730908191275103e+03 1.2708600331128482e+04 0.0000000000000000e+00 0.0000000000000000e+00 0.0000000000000000e+00 0.0000000000000000e+00  3.2374634202969332e+03 -3.7721030897056594e+03 0.0000000000000000e+00 -3.7721030897056617e+03 4.9000634454122128e+03 0.0000000000000000e+00 0.0000000000000000e+00 0.0000000000000000e+00 0.0000000000000000e+00  9.0301453963223878e+02 -8.4041948882444933e+02 0.0000000000000000e+00 -8.4041948882445263e+02 6.1328548071175317e+02 0.0000000000000000e+00 0.0000000000000000e+00 0.0000000000000000e+00 0.0000000000000000e+00  1.1798820159669121e-01 -2.1975518082475370e-01 0.0000000000000000e+00 -2.1975518082475476e-01 6.0757311882056647e+03 0.0000000000000000e+00 0.0000000000000000e+00 0.0000000000000000e+00 0.0000000000000000e+00  -5.1044829408596934e-02 -7.9072242380043123e-01 0.0000000000000000e+00 -7.9072242380042634e-01 6.0707627875198987e+03 0.0000000000000000e+00 0.0000000000000000e+00 0.0000000000000000e+00 0.0000000000000000e+00  5.6988674536582451e-01 -9.3132792871275616e-01 0.0000000000000000e+00 -9.3132792871275449e-01 6.0628209291009207e+03 0.0000000000000000e+00 0.0000000000000000e+00 0.0000000000000000e+00 0.0000000000000000e+00  -4.1369254799711647e-01 -6.6567433292797162e-01 0.0000000000000000e+00 -6.6567433292797351e-01 6.0505684151805281e+03 0.0000000000000000e+00 0.0000000000000000e+00 0.0000000000000000e+00 0.0000000000000000e+00  3.9854302441770312e-01 -1.1775984427475161e+00 0.0000000000000000e+00 -1.1775984427475197e+00 6.0336357373608735e+03 0.0000000000000000e+00 0.0000000000000000e+00 0.0000000000000000e+00 0.0000000000000000e+00  1.0544981041053318e+00 -2.6291904932036627e+00 0.0000000000000000e+00 -2.6291904932036814e+00 6.0158626743055493e+03 0.0000000000000000e+00 0.0000000000000000e+00 0.0000000000000000e+00 0.0000000000000000e+00  -2.4925322814557577e-02 -2.0287019777717910e+00 0.0000000000000000e+00 -2.0287019777717967e+00 5.9849245553551245e+03 0.0000000000000000e+00 0.0000000000000000e+00 0.0000000000000000e+00 0.0000000000000000e+00  -3.3633219644839157e-01 -2.6282681081348884e+00 0.0000000000000000e+00 -2.6282681081348738e+00 5.9548275521794239e+03 0.0000000000000000e+00 0.0000000000000000e+00 0.0000000000000000e+00 0.0000000000000000e+00  1.7399769635569515e+00 -4.0217324800479508e+00 0.0000000000000000e+00 -4.0217324800479011e+00 5.9173840852567027e+03 0.0000000000000000e+00 0.0000000000000000e+00 0.0000000000000000e+00 0.0000000000000000e+00  1.1675504485770545e+00 -5.5468240563033993e+00 0.0000000000000000e+00 -5.5468240563034454e+00 5.8715373654638661e+03 0.0000000000000000e+00 0.0000000000000000e+00 0.0000000000000000e+00 0.0000000000000000e+00  1.6610098061369294e+00 -7.0385180256516922e+00 0.0000000000000000e+00 -7.0385180256517073e+00 5.7934112656268571e+03 0.0000000000000000e+00 0.0000000000000000e+00 0.0000000000000000e+00 0.0000000000000000e+00  9.9577988642507154e-01 -1.1364041757216187e+01 0.0000000000000000e+00 -1.1364041757216206e+01 5.7403663844875800e+03 0.0000000000000000e+00 0.0000000000000000e+00 0.0000000000000000e+00 0.0000000000000000e+00  8.9973182373556093e-01 -8.4685584684594399e+00 0.0000000000000000e+00 -8.4685584684595376e+00 5.6225364253308726e+03 0.0000000000000000e+00 0.0000000000000000e+00 0.0000000000000000e+00 0.0000000000000000e+00  5.1147981338531978e-01 -1.0921042541560841e+01 0.0000000000000000e+00 -1.0921042541560894e+01 5.5087468161666184e+03 0.0000000000000000e+00 0.0000000000000000e+00 0.0000000000000000e+00 0.0000000000000000e+00  1.1180541468711656e+01 -7.5788364953205445e+00 0.0000000000000000e+00 -7.5788364953205996e+00 5.3343696819535053e+03 0.0000000000000000e+00 0.0000000000000000e+00 0.0000000000000000e+00 0.0000000000000000e+00  -1.0374334802315754e+01 -1.2341718271207393e+01 0.0000000000000000e+00 -1.2341718271207228e+01 5.1097825951236964e+03 0.0000000000000000e+00 0.0000000000000000e+00 0.0000000000000000e+00 0.0000000000000000e+00  3.4220008613960104e+01 -4.9698833478861488e+01 0.0000000000000000e+00 -4.9698833478861374e+01 4.7592132411967677e+03 0.0000000000000000e+00 0.0000000000000000e+00 0.0000000000000000e+00 0.0000000000000000e+00  -1.7626113586432957e+01 -2.3866747658091857e+01 0.0000000000000000e+00 -2.3866747658092187e+01 4.2943944900531214e+03 0.0000000000000000e+00 0.0000000000000000e+00 0.0000000000000000e+00 0.0000000000000000e+00  2.8527812587285691e+01 -1.4658839312598869e+02 0.0000000000000000e+00 -1.4658839312598880e+02 3.5071465690333448e+03 0.0000000000000000e+00 0.0000000000000000e+00 0.0000000000000000e+00 0.0000000000000000e+00  -4.1000640525982050e+01 -1.6084958704028986e+02 0.0000000000000000e+00 -1.6084958704028836e+02 2.3777412543401133e+03 0.0000000000000000e+00 0.0000000000000000e+00 0.0000000000000000e+00 0.0000000000000000e+00  1.7837486776846791e+02 -1.7847602282673097e+02 0.0000000000000000e+00 -1.7847602282673134e+02 8.3153067322393474e+02 0.0000000000000000e+00 0.0000000000000000e+00 0.0000000000000000e+00 0.0000000000000000e+00  -5.1683924061957001e+00 3.0216623926726610e-01 0.0000000000000000e+00 3.0216623926726305e-01 5.9050735628575449e+03 0.0000000000000000e+00 0.0000000000000000e+00 0.0000000000000000e+00 0.0000000000000000e+00  -2.5840595875639700e+01 -4.3173583865724736e-02 0.0000000000000000e+00 -4.3173583865701290e-02 5.9452074416379219e+03 0.0000000000000000e+00 0.0000000000000000e+00 0.0000000000000000e+00 0.0000000000000000e+00  -5.7297044906965951e+01 1.6215876810524827e+00 0.0000000000000000e+00 1.6215876810524632e+00 6.0063226378393383e+03 0.0000000000000000e+00 0.0000000000000000e+00 0.0000000000000000e+00 0.0000000000000000e+00  -9.3876420816720568e+01 1.2251287562030444e-01 0.0000000000000000e+00 1.2251287562029231e-01 6.0758127391033322e+03 0.0000000000000000e+00 0.0000000000000000e+00 0.0000000000000000e+00 0.0000000000000000e+00  -1.2625613364437142e+02 2.0798069270353849e+00 0.0000000000000000e+00 2.0798069270353752e+00 6.1600087386045325e+03 0.0000000000000000e+00 0.0000000000000000e+00 0.0000000000000000e+00 0.0000000000000000e+00  -1.5944355312596360e+02 -1.4967655420639983e-01 0.0000000000000000e+00 -1.4967655420638767e-01 6.2423561515959527e+03 0.0000000000000000e+00 0.0000000000000000e+00 0.0000000000000000e+00 0.0000000000000000e+00  -1.9142669525559450e+02 1.0926446876191664e-01 0.0000000000000000e+00 1.0926446876193555e-01 6.3136498481332055e+03 0.0000000000000000e+00 0.0000000000000000e+00 0.0000000000000000e+00 0.0000000000000000e+00  -2.0781650874367605e+02 -5.1249002242462138e-01 0.0000000000000000e+00 -5.1249002242462949e-01 6.3900837662304812e+03 0.0000000000000000e+00 0.0000000000000000e+00 0.0000000000000000e+00 0.0000000000000000e+00  -2.2332730534184645e+02 2.1772026126628236e-01 0.0000000000000000e+00 2.1772026126628874e-01 6.4390571875479955e+03 0.0000000000000000e+00 0.0000000000000000e+00 0.0000000000000000e+00 0.0000000000000000e+00  -2.3273929603043661e+02 -6.7707806100457479e-01 0.0000000000000000e+00 -6.7707806100457579e-01 6.4870879760043053e+03 0.0000000000000000e+00 0.0000000000000000e+00 0.0000000000000000e+00 0.0000000000000000e+00  -2.3439392429535667e+02 -4.8135314274112595e-01 0.0000000000000000e+00 -4.8135314274112578e-01 6.5230875550295987e+03 0.0000000000000000e+00 0.0000000000000000e+00 0.0000000000000000e+00 0.0000000000000000e+00  -2.3204230481524351e+02 -1.0461935386723400e+00 0.0000000000000000e+00 -1.0461935386723404e+00 6.5479601406767233e+03 0.0000000000000000e+00 0.0000000000000000e+00 0.0000000000000000e+00 0.0000000000000000e+00  -2.2646962524110560e+02 -6.2041467904412384e-01 0.0000000000000000e+00 -6.2041467904412817e-01 6.5655551781729582e+03 0.0000000000000000e+00 0.0000000000000000e+00 0.0000000000000000e+00 0.0000000000000000e+00  -2.1927416551334150e+02 -3.7410327422191714e-01 0.0000000000000000e+00 -3.7410327422192363e-01 6.5765754116567314e+03 0.0000000000000000e+00 0.0000000000000000e+00 0.0000000000000000e+00 0.0000000000000000e+00  -2.1006289829257364e+02 -5.1815418575257821e-01 0.0000000000000000e+00 -5.1815418575257532e-01 6.5811710637089309e+03 0.0000000000000000e+00 0.0000000000000000e+00 0.0000000000000000e+00 0.0000000000000000e+00  -2.0055282299817333e+02 -6.6178109232636673e-01 0.0000000000000000e+00 -6.6178109232636795e-01 6.5815071010900801e+03 0.0000000000000000e+00 0.0000000000000000e+00 0.0000000000000000e+00 0.0000000000000000e+00  -1.9145205938907904e+02 -3.3467168158049621e-01 0.0000000000000000e+00 -3.3467168158049193e-01 6.5775364376507787e+03 0.0000000000000000e+00 0.0000000000000000e+00 0.0000000000000000e+00 0.0000000000000000e+00  -1.8246694950090537e+02 -4.3439746569433474e-01 0.0000000000000000e+00 -4.3439746569433718e-01 6.5711351934747909e+03 0.0000000000000000e+00 0.0000000000000000e+00 0.0000000000000000e+00 0.0000000000000000e+00  -1.7427789240779521e+02 -2.0891063053630066e-01 0.0000000000000000e+00 -2.0891063053630535e-01 6.5620961629529920e+03 0.0000000000000000e+00 0.0000000000000000e+00 0.0000000000000000e+00 0.0000000000000000e+00  -1.6655343818698458e+02 -1.9068519682406138e-01 0.0000000000000000e+00 -1.9068519682406276e-01 6.5505756631375380e+03 0.0000000000000000e+00 0.0000000000000000e+00 0.0000000000000000e+00 0.0000000000000000e+00  -1.5970598982192115e+02 -9.4558529358696547e-02 0.0000000000000000e+00 -9.4558529358695811e-02 6.5373706036356698e+03 0.0000000000000000e+00 0.0000000000000000e+00 0.0000000000000000e+00 0.0000000000000000e+00  -1.5297082881373908e+02 -4.8597660364668428e-02 0.0000000000000000e+00 -4.8597660364664133e-02 6.5225472036895590e+03 0.0000000000000000e+00 0.0000000000000000e+00 0.0000000000000000e+00 0.0000000000000000e+00  -1.4708279222600081e+02 -2.5223148538471844e-02 0.0000000000000000e+00 -2.5223148538467837e-02 6.5054744568932192e+03 0.0000000000000000e+00 0.0000000000000000e+00 0.0000000000000000e+00 0.0000000000000000e+00  -1.4059816127052861e+02 -2.5248535331016765e-02 0.0000000000000000e+00 -2.5248535331019797e-02 6.4867248201799175e+03 0.0000000000000000e+00 0.0000000000000000e+00 0.0000000000000000e+00 0.0000000000000000e+00  -1.3467656612645027e+02 -8.2549714347427805e-02 0.0000000000000000e+00 -8.2549714347432440e-02 6.4662029778496681e+03 0.0000000000000000e+00 0.0000000000000000e+00 0.0000000000000000e+00 0.0000000000000000e+00  -1.2776852522920221e+02 1.1966269858752400e-01 0.0000000000000000e+00 1.1966269858753308e-01 6.4436600340058249e+03 0.0000000000000000e+00 0.0000000000000000e+00 0.0000000000000000e+00 0.0000000000000000e+00  -1.2041839864301376e+02 -7.1209044532947713e-02 0.0000000000000000e+00 -7.1209044532939594e-02 6.4183583077238973e+03 0.0000000000000000e+00 0.0000000000000000e+00 0.0000000000000000e+00 0.0000000000000000e+00  -1.1242715803565113e+02 1.5047241093887373e-01 0.0000000000000000e+00 1.5047241093887373e-01 6.3916532182096025e+03 0.0000000000000000e+00 0.0000000000000000e+00 0.0000000000000000e+00 0.0000000000000000e+00  -1.0316633664973278e+02 1.6323239030397241e-01 0.0000000000000000e+00 1.6323239030396577e-01 6.3635347621340479e+03 0.0000000000000000e+00 0.0000000000000000e+00 0.0000000000000000e+00 0.0000000000000000e+00  -9.3490548022991931e+01 3.0680751740459256e-02 0.0000000000000000e+00 3.0680751740460442e-02 6.3320586667579737e+03 0.0000000000000000e+00 0.0000000000000000e+00 0.0000000000000000e+00 0.0000000000000000e+00  -8.2079948392455407e+01 -1.3687237673384492e-01 0.0000000000000000e+00 -1.3687237673384980e-01 6.3011019955729353e+03 0.0000000000000000e+00 0.0000000000000000e+00 0.0000000000000000e+00 0.0000000000000000e+00  -7.1019542753123190e+01 -1.7014769712944600e-01 0.0000000000000000e+00 -1.7014769712944172e-01 6.2673974722863786e+03 0.0000000000000000e+00 0.0000000000000000e+00 0.0000000000000000e+00 0.0000000000000000e+00  -5.8136688548322660e+01 -3.8455985033789171e-02 0.0000000000000000e+00 -3.8455985033809495e-02 6.2347368745411186e+03 0.0000000000000000e+00 0.0000000000000000e+00 0.0000000000000000e+00 0.0000000000000000e+00  -4.5859751560786712e+01 -2.5556254159912023e-01 0.0000000000000000e+00 -2.5556254159912617e-01 6.2039521364942420e+03 0.0000000000000000e+00 0.0000000000000000e+00 0.0000000000000000e+00 0.0000000000000000e+00  -3.3644031023924185e+01 -7.5669641343557942e-02 0.0000000000000000e+00 -7.5669641343553251e-02 6.1735932742537789e+03 0.0000000000000000e+00 0.0000000000000000e+00 0.0000000000000000e+00 0.0000000000000000e+00  -2.2703186251086212e+01 -5.2569609481235999e-02 0.0000000000000000e+00 -5.2569609481236401e-02 6.1446899509810164e+03 0.0000000000000000e+00 0.0000000000000000e+00 0.0000000000000000e+00 0.0000000000000000e+00  -1.3275114020805788e+01 -1.0209800812542562e-01 0.0000000000000000e+00 -1.0209800812542504e-01 6.1204659927889670e+03 0.0000000000000000e+00 0.0000000000000000e+00 0.0000000000000000e+00 0.0000000000000000e+00  -6.0210121775835823e+00 9.3890645843140774e-02 0.0000000000000000e+00 9.3890645843142551e-02 6.1003324262053211e+03 0.0000000000000000e+00 0.0000000000000000e+00 0.0000000000000000e+00 0.0000000000000000e+00  -8.3145992073706509e-01 1.7286974718723208e-01 0.0000000000000000e+00 1.7286974718722956e-01 6.0860965176710370e+03 0.0000000000000000e+00 0.0000000000000000e+00 0.0000000000000000e+00 0.0000000000000000e+00  1.1895862732934054e+02 1.3155866499511676e+01 0.0000000000000000e+00 1.3155866499511367e+01 5.7255673675271532e+02 0.0000000000000000e+00 0.0000000000000000e+00 0.0000000000000000e+00 0.0000000000000000e+00  1.6284964890246937e+02 1.6131315830568730e+02 0.0000000000000000e+00 1.6131315830568792e+02 2.5412090601671489e+03 0.0000000000000000e+00 0.0000000000000000e+00 0.0000000000000000e+00 0.0000000000000000e+00  -7.4794786412857974e+01 9.2122529414017240e+00 0.0000000000000000e+00 9.2122529414016725e+00 3.5123149141751032e+03 0.0000000000000000e+00 0.0000000000000000e+00 0.0000000000000000e+00 0.0000000000000000e+00  8.8145565207114288e+01 7.9190857648717724e+01 0.0000000000000000e+00 7.9190857648718378e+01 4.4195359653290197e+03 0.0000000000000000e+00 0.0000000000000000e+00 0.0000000000000000e+00 0.0000000000000000e+00  -2.9911361105292002e+01 -1.9406339269118607e+01 0.0000000000000000e+00 -1.9406339269118266e+01 4.8016743721411694e+03 0.0000000000000000e+00 0.0000000000000000e+00 0.0000000000000000e+00 0.0000000000000000e+00  3.6025919491620591e+01 3.5345134261325327e+01 0.0000000000000000e+00 3.5345134261325363e+01 5.1859873885675961e+03 0.0000000000000000e+00 0.0000000000000000e+00 0.0000000000000000e+00 0.0000000000000000e+00  -9.7826229233787050e+00 1.0060689079068203e+01 0.0000000000000000e+00 1.0060689079068267e+01 5.3956840802425713e+03 0.0000000000000000e+00 0.0000000000000000e+00 0.0000000000000000e+00 0.0000000000000000e+00  6.7503148419259826e+00 1.7126664453551804e+01 0.0000000000000000e+00 1.7126664453551797e+01 5.5395800008517517e+03 0.0000000000000000e+00 0.0000000000000000e+00 0.0000000000000000e+00 0.0000000000000000e+00  2.2202142945518548e+00 8.6880394888615768e+00 0.0000000000000000e+00 8.6880394888616319e+00 5.6809579276498544e+03 0.0000000000000000e+00 0.0000000000000000e+00 0.0000000000000000e+00 0.0000000000000000e+00  3.7920250934068367e+00 6.1312007297334148e+00 0.0000000000000000e+00 6.1312007297334130e+00 5.7598599516117129e+03 0.0000000000000000e+00 0.0000000000000000e+00 0.0000000000000000e+00 0.0000000000000000e+00  -2.1739773907814266e+00 6.6290215751632187e-01 0.0000000000000000e+00 6.6290215751633674e-01 5.8260217739183781e+03 0.0000000000000000e+00 0.0000000000000000e+00 0.0000000000000000e+00 0.0000000000000000e+00  3.6512738428476181e+00 3.0609670295121054e+00 0.0000000000000000e+00 3.0609670295121210e+00 5.8576983470642508e+03 0.0000000000000000e+00 0.0000000000000000e+00 0.0000000000000000e+00 0.0000000000000000e+00  -1.0856520054809440e+00 5.3626456278909629e-01 0.0000000000000000e+00 5.3626456278908974e-01 5.8882704764698747e+03 0.0000000000000000e+00 0.0000000000000000e+00 0.0000000000000000e+00 0.0000000000000000e+00  1.3004304384343195e+03 9.0358115659244754e+02 0.0000000000000000e+00 9.0358115659244868e+02 6.3794238822687305e+02 0.0000000000000000e+00 0.0000000000000000e+00 0.0000000000000000e+00 0.0000000000000000e+00  3.5048249956851478e+03 5.0936494479500579e+03 0.0000000000000000e+00 5.0936494479500543e+03 7.9579828475399754e+03 0.0000000000000000e+00 0.0000000000000000e+00 0.0000000000000000e+00 0.0000000000000000e+00  2.7075818934694348e+03 2.8944704564763365e+03 0.0000000000000000e+00 2.8944704564763360e+03 1.4714559521040883e+04 0.0000000000000000e+00 0.0000000000000000e+00 0.0000000000000000e+00 0.0000000000000000e+00  2.8815728791459064e+03 -2.3535669479581375e+03 0.0000000000000000e+00 -2.3535669479581397e+03 1.5110296210883780e+04 0.0000000000000000e+00 0.0000000000000000e+00 0.0000000000000000e+00 0.0000000000000000e+00  2.3140000998212950e+03 -4.8290618333556640e+03 0.0000000000000000e+00 -4.8290618333556604e+03 7.6836900487791545e+03 0.0000000000000000e+00 0.0000000000000000e+00 0.0000000000000000e+00 0.0000000000000000e+00  1.4546422081250919e+03 -1.2782571260407462e+03 0.0000000000000000e+00 -1.2782571260407444e+03 9.5911684715585454e+02 0.0000000000000000e+00 0.0000000000000000e+00 0.0000000000000000e+00 0.0000000000000000e+00  5.7099432035393034e-02 -3.0182926060796911e-01 0.0000000000000000e+00 -3.0182926060797055e-01 6.0818880003404693e+03 0.0000000000000000e+00 0.0000000000000000e