<?xml version="1.0"?>
<VTKFile type="UnstructuredGrid"  version="0.1"  >
<UnstructuredGrid>
<Piece  NumberOfPoints="2165" NumberOfCells="4161">
<Points>
<DataArray  type="Float64"  NumberOfComponents="3"  format="ascii">-3.598637933768527e-16 0.3500000000000001 0  0.05 0.4 0  -3.537405593811159e-16 0.45 0  0 1 0  1 1 0  0.9999999999999997 0.65 0  0.9999999999999997 0.5499999999999999 0  1 0 0  0 0 0  0.0191341716182545 0.3538060233744357 0  0.03535533905932737 0.3646446609406727 0  0.04619397662556433 0.3808658283817455 0  0.04619397662556434 0.4191341716182545 0  0.03535533905932738 0.4353553390593274 0  0.01913417161825449 0.4461939766255644 0  0 0.975 0  0 0.95 0  0 0.9249999999999999 0  0 0.8999999999999998 0  0 0.8749999999999998 0  0 0.8499999999999998 0  0 0.8249999999999997 0  0 0.7999999999999996 0  0 0.7749999999999996 0  0 0.7499999999999996 0  0 0.7249999999999996 0  0 0.6999999999999997 0  0 0.6749999999999998 0  0 0.6499999999999999 0  0 0.6249999999999999 0  0 0.6 0  0 0.575 0  0 0.5499999999999998 0  0 0.5249999999999999 0  0 0.4999999999999998 0  0 0.4749999999999999 0  0.975 1 0  0.95 1 0  0.925 1 0  0.9 1 0  0.875 1 0  0.85 1 0  0.825 1 0  0.8 1 0  0.775 1 0  0.75 1 0  0.725 1 0  0.7 1 0  0.675 1 0  0.65 1 0  0.625 1 0  0.6 1 0  0.575 1 0  0.55 1 0  0.525 1 0  0.5 1 0  0.475 1 0  0.45 1 0  0.425 1 0  0.4 1 0  0.375 1 0  0.35 1 0  0.325 1 0  0.3 1 0  0.275 1 0  0.25 1 0  0.225 1 0  0.2 1 0  0.175 1 0  0.15 1 0  0.125 1 0  0.09999999999999998 1 0  0.07499999999999996 1 0  0.05000000000000004 1 0  0.02500000000000002 1 0  1 0.675 0  1 0.7000000000000001 0  1 0.7250000000000001 0  1 0.7500000000000001 0  1 0.7750000000000001 0  1 0.8000000000000002 0  1 0.8250000000000002 0  1 0.8500000000000002 0  1 0.8750000000000003 0  1 0.9000000000000001 0  1 0.9250000000000002 0  1 0.9500000000000001 0  1 0.9750000000000001 0  0.9783058130441221 0.6450484433951209 0  0.9609084258765985 0.6311744900929367 0  0.9512536043909088 0.6111260466978157 0  0.9512536043909088 0.5888739533021843 0  0.9609084258765985 0.5688255099070633 0  0.9783058130441221 0.554951556604879 0  1 0.02500000000000002 0  1 0.05000000000000004 0  1 0.07500000000000008 0  1 0.1000000000000001 0  1 0.1250000000000001 0  1 0.1500000000000002 0  1 0.1750000000000002 0  1 0.2000000000000003 0  1 0.2250000000000003 0  1 0.2500000000000004 0  1 0.2750000000000004 0  1 0.3000000000000003 0  1 0.3250000000000002 0  1 0.3500000000000001 0  1 0.3750000000000001 0  1 0.3999999999999999 0  1 0.425 0  1 0.45 0  1 0.475 0  1 0.5000000000000001 0  1 0.5249999999999999 0  0.025 0 0  0.05 0 0  0.075 0 0  0.1 0 0  0.125 0 0  0.15 0 0  0.175 0 0  0.2 0 0  0.225 0 0  0.25 0 0  0.275 0 0  0.3 0 0  0.325 0 0  0.35 0 0  0.375 0 0  0.4 0 0  0.425 0 0  0.45 0 0  0.475 0 0  0.5 0 0  0.525 0 0  0.55 0 0  0.575 0 0  0.6 0 0  0.625 0 0  0.65 0 0  0.675 0 0  0.7 0 0  0.725 0 0  0.75 0 0  0.775 0 0  0.8 0 0  0.825 0 0  0.85 0 0  0.875 0 0  0.9 0 0  0.925 0 0  0.95 0 0  0.975 0 0  0 0.3250000000000001 0  0 0.3 0  0 0.275 0  0 0.2499999999999999 0  0 0.2249999999999999 0  0 0.1999999999999998 0  0 0.1749999999999998 0  0 0.1499999999999998 0  0 0.1249999999999998 0  0 0.09999999999999987 0  0 0.07499999999999984 0  0 0.04999999999999993 0  0 0.02500000000000002 0  0.06453325334544308 0.4134708543086404 0  0.5146839915088474 0.02134387884913819 0  0.4875871001393628 0.9784117024331356 0  0.9386300160094723 0.5701776715936071 0  0.0216506350946109 0.6124999999999999 0  0.9764205887290853 0.3596067946540696 0  0.3876261045932067 0.02156097490657183 0  0.6125 0.978349364905389 0  0.3612127461797463 0.9792371404802113 0  0.6374786650398092 0.02079982608537345 0  0.9387185538472446 0.6295115890709873 0  0.05482260092545593 0.3633687091864355 0  0.02445354803948679 0.7343198207875321 0  0.2624888813627476 0.02091671348578122 0  0.7375212991274043 0.9794996488945376 0  0.9793010831723812 0.2648509348664836 0  0.2625026480689301 0.9795699185263282 0  0.7362840788105066 0.02225211062275217 0  0.02159327910297104 0.2128861809896528 0  0.9786837570973538 0.7867241244631172 0  0.02419728000065929 0.8365600234152764 0  0.980043283615984 0.1624097203408714 0  0.1645857434226354 0.0205513501962844 0  0.8339481359352011 0.9784483546369231 0  0.1637584777222821 0.9774556328160621 0  0.8374916614314967 0.02165097219510076 0  0.02171915379676059 0.5370700005916152 0  0.9795335762511281 0.4365726939225819 0  0.02319480745007968 0.1370197632171214 0  0.9774462976085161 0.8592616917551974 0  0.9786941241076723 0.7122511101067891 0  0.9797883857882621 0.08781864217752949 0  0.01966314788989931 0.9125801876811624 0  0.02051815350151098 0.2882126194470174 0  0.09063226699593246 0.0214884092697174 0  0.9124408843562394 0.9818463395009377 0  0.03872465516591678 0.452731089005145 0  0.08969424365256845 0.978412979507602 0  0.9124999999999999 0.02165063509461096 0  0.02158104789437187 0.6619299176372371 0  0.9796602354625652 0.4859004208706154 0  0.3127517983598529 0.02417963694738812 0  0.4375629605000894 0.02158039900821679 0  0.5643674594196073 0.01968996000301126 0  0.5368361594956101 0.9790428840407062 0  0.4376176251051295 0.9783667484208922 0  0.6874072695660477 0.978435143102373 0  0.310604317388614 0.979558305560928 0  0.2125577044121564 0.02066685543111635 0  0.6875 0.0216506350946109 0  0.02224009810917643 0.08811420611559456 0  0.790876428529276 0.978633065284896 0  0.2125 0.978349364905389 0  0.9788033534786624 0.2116925349935155 0  0.9769441169344462 0.3150381335760689 0  0.9804648376981185 0.9123186437266726 0  0.7874999988222203 0.02127957051165741 0  0.02109233852270731 0.786866823287435 0  0.9483709287873718 0.5504073206521916 0  0.9259842326464427 0.5519702047534598 0  0.9163209045278007 0.5719292915927929 0  0.9035374059862284 0.5537291796040291 0  0.8938951918780048 0.5738949757882954 0  0.8807940177559743 0.5546750869516996 0  0.8712661812741653 0.5757142549099102 0  0.8580668865514332 0.5563902430113601 0  0.848508161986991 0.5779004013072002 0  0.8354274200119249 0.5591176379057713 0  0.8256349826905482 0.5800610629400762 0  0.8124123591208572 0.5604454546391737 0  0.802603410938817 0.5819653950592523 0  0.7892876429890218 0.562234610648543 0  0.7794355871850538 0.583896242519796 0  0.7661469824381839 0.5648243426306435 0  0.7562387679604726 0.5860005456930413 0  0.7429651600512166 0.5669367633461588 0  0.7330846968880171 0.5879590907760761 0  0.7198577999459205 0.5688986880627463 0  0.7297050500533544 0.5479561801187277 0  0.7066243396993471 0.5499068108517552 0  0.6968285086900206 0.5707989520567972 0  0.6836266810714333 0.5519088927359967 0  0.6738604685766018 0.5727655091567184 0  0.6607284761452521 0.5538781923028128 0  0.6697149783704412 0.5321140554135094 0  0.6473436039782401 0.5350050604671006 0  0.6378867365666199 0.5557804038095817 0  0.6246915360243652 0.5362124690568238 0  0.6151175309583405 0.5575933164645619 0  0.6019784180102355 0.5380659376543677 0  0.5924099113505394 0.5593739656462906 0  0.5794110962027638 0.541110021814312 0  0.5697985396917309 0.5614600003719357 0  0.5568468707330213 0.5433212932327446 0  0.5472634011377896 0.5635652141280936 0  0.5343236363495072 0.5451361960661517 0  0.5247877773262166 0.565493591892781 0  0.5118927934227436 0.5470665328397559 0  0.5023398230005425 0.5674381114577953 0  0.5213991904098014 0.5267047787870831 0  0.4990390504096661 0.528649139287786 0  0.6328887517229864 0.5131744321062524 0  0.5085133205790763 0.5083322037773296 0  0.4861972978925295 0.5102540920324363 0  0.4956914791804768 0.4899605513008993 0  0.4734139980312694 0.4918582759645476 0  0.4826986629698439 0.4717164019717278 0  0.460570567761715 0.473509155475794 0  0.4699344541058981 0.4533140529328089 0  0.4477087341565655 0.4550973130597117 0  0.4381733274019614 0.4752901381741884 0  0.4570222843287571 0.4349938694701042 0  0.4348599018247688 0.436728068420533 0  0.5604623134382263 0.581815997002507 0  0.4443612964408632 0.416499823314016 0  0.422056299386984 0.4183730429856528 0  0.4688721528228815 0.4135009841763965 0  0.4315584877924544 0.398120546824229 0  0.4092288692044618 0.3999974286008185 0  0.7463210599443056 0.6070829843371945 0  0.4187270626688335 0.3797365044773463 0  0.3964262302393312 0.3817184136470017 0  0.3869780036193907 0.4018498778543814 0  0.3742423843122406 0.3837055716372927 0  0.3648701490102072 0.4037049758807119 0  0.3518115403926748 0.3858985036587403 0  0.3426146276710081 0.4056777495658291 0  0.3614541441355358 0.3656396497906528 0  0.339026673715919 0.3678724679736439 0  0.3485566370135618 0.3476560889674916 0  0.3264681821394378 0.3496422822523857 0  0.8219942777991693 0.5379143061758643 0  0.3358297439968608 0.3295117748868035 0  0.3137050884585635 0.3314921667582986 0  0.3229980644152205 0.3113561769498422 0  0.3007986024336577 0.3133063832007756 0  0.3441851868720173 0.3085211458266175 0  0.3101966551534752 0.2930273704914169 0  0.287793053707373 0.2950088132226583 0  0.2914417217227097 0.3337427541189321 0  0.2975120686695638 0.2743682539701985 0  0.274864585256681 0.2764253296978281 0  0.816026571618698 0.6006851919544112 0  0.2844672854128698 0.2557011565880619 0  0.2617267434509338 0.2577713002235077 0  0.3072711221189672 0.2536790056475094 0  0.2521588568690318 0.2785072139143895 0  0.2389277409161178 0.2598761196336353 0  0.248448076747058 0.2389478879785275 0  0.5053822153261678 0.4716915524631118 0  0.229548765875869 0.2806542761043101 0  0.2254561407802683 0.2411354049374563 0  0.2350621310805047 0.2199181955146378 0  0.2117782450160163 0.222165061041625 0  0.2214249125635323 0.2008136877065064 0  0.2448758256083499 0.1985732693215908 0  0.197966291680556 0.2031211006951591 0  0.1883147493074436 0.2245564097761413 0  0.8910637266939049 0.5322898364209732 0  0.1748136087708587 0.2051141748992724 0  0.1842088801696792 0.1837087814679069 0  0.1656574100807746 0.2269812054689968 0  0.3554582346764377 0.4236292557112198 0  0.3328979939923831 0.425459320867588 0  0.3460368767112177 0.4435398346083328 0  0.3238464003
[...]
<PointData  Tensors="$\sigma$"> 
<DataArray  type="Float64"  Name="$\sigma$"  NumberOfComponents="9" format="ascii">-2.0526696037433661e+02 -2.6858805083871721e+02 0.0000000000000000e+00 -2.6858805083871721e+02 -6.4987104469473240e+02 0.0000000000000000e+00 0.0000000000000000e+00 0.0000000000000000e+00 0.0000000000000000e+00  7.8538896149064931e+02 3.4876093844233353e+01 0.0000000000000000e+00 3.4876093844233196e+01 1.2585081666604276e+04 0.0000000000000000e+00 0.0000000000000000e+00 0.0000000000000000e+00 0.0000000000000000e+00  -1.7229800511655367e+02 3.2366491523757128e+02 0.0000000000000000e+00 3.2366491523757094e+02 -6.7875381633644361e+02 0.0000000000000000e+00 0.0000000000000000e+00 0.0000000000000000e+00 0.0000000000000000e+00  6.5296703781154583e-02 5.1991185150489583e-01 0.0000000000000000e+00 5.1991185150489572e-01 3.9849464247086958e+03 0.0000000000000000e+00 0.0000000000000000e+00 0.0000000000000000e+00 0.0000000000000000e+00  8.8989943365495938e-01 -2.1305532190979792e-03 0.0000000000000000e+00 -2.1305532190982698e-03 3.8643656998177275e+03 0.0000000000000000e+00 0.0000000000000000e+00 0.0000000000000000e+00 0.0000000000000000e+00  -2.3446114711842904e+02 -2.7754592411313041e+02 0.0000000000000000e+00 -2.7754592411312933e+02 -7.7059093635113229e+01 0.0000000000000000e+00 0.0000000000000000e+00 0.0000000000000000e+00 0.0000000000000000e+00  1.3390690576041249e+02 -8.6424495138513322e+01 0.0000000000000000e+00 -8.6424495138512981e+01 1.2101271865331226e+02 0.0000000000000000e+00 0.0000000000000000e+00 0.0000000000000000e+00 0.0000000000000000e+00  -3.1072878958432658e-02 9.3301092790195134e-02 0.0000000000000000e+00 9.3301092790196466e-02 3.9861703324405607e+03 0.0000000000000000e+00 0.0000000000000000e+00 0.0000000000000000e+00 0.0000000000000000e+00  1.1570614700148558e+03 4.7485415795796717e+02 0.0000000000000000e+00 4.7485415795796735e+02 4.1810089905414807e+03 0.0000000000000000e+00 0.0000000000000000e+00 0.0000000000000000e+00 0.0000000000000000e+00  6.4321435470753659e+02 5.5100114715962081e+02 0.0000000000000000e+00 5.5100114715962150e+02 4.9055377831443235e+02 0.0000000000000000e+00 0.0000000000000000e+00 0.0000000000000000e+00 0.0000000000000000e+00  2.1460133007860686e+03 2.4985143569244751e+03 0.0000000000000000e+00 2.4985143569244742e+03 3.2878434426196363e+03 0.0000000000000000e+00 0.0000000000000000e+00 0.0000000000000000e+00 0.0000000000000000e+00  1.7094508554470794e+03 3.0828958661590732e+03 0.0000000000000000e+00 3.0828958661590727e+03 9.4457784845805982e+03 0.0000000000000000e+00 0.0000000000000000e+00 0.0000000000000000e+00 0.0000000000000000e+00  1.6859271084531536e+03 -3.1062043823768831e+03 0.0000000000000000e+00 -3.1062043823768850e+03 9.4042211477682977e+03 0.0000000000000000e+00 0.0000000000000000e+00 0.0000000000000000e+00 0.0000000000000000e+00  2.1204889368029485e+03 -2.4537785648261051e+03 0.0000000000000000e+00 -2.4537785648261056e+03 3.5006512651657963e+03 0.0000000000000000e+00 0.0000000000000000e+00 0.0000000000000000e+00 0.0000000000000000e+00  6.2461125057382299e+02 -5.9868889783752445e+02 0.0000000000000000e+00 -5.9868889783752547e+02 4.7224986562087156e+02 0.0000000000000000e+00 0.0000000000000000e+00 0.0000000000000000e+00 0.0000000000000000e+00  3.6066921989143838e-02 -1.4545577650953742e-01 0.0000000000000000e+00 -1.4545577650953717e-01 3.9832260228893470e+03 0.0000000000000000e+00 0.0000000000000000e+00 0.0000000000000000e+00 0.0000000000000000e+00  -2.0163923125070950e-03 -5.6227792329837789e-01 0.0000000000000000e+00 -5.6227792329837700e-01 3.9801915959215876e+03 0.0000000000000000e+00 0.0000000000000000e+00 0.0000000000000000e+00 0.0000000000000000e+00  3.2645645081572883e-01 -6.1147653622095144e-01 0.0000000000000000e+00 -6.1147653622094722e-01 3.9750982389036212e+03 0.0000000000000000e+00 0.0000000000000000e+00 0.0000000000000000e+00 0.0000000000000000e+00  -2.4697046378416102e-01 -4.9447280890728296e-01 0.0000000000000000e+00 -4.9447280890727957e-01 3.9673260853387633e+03 0.0000000000000000e+00 0.0000000000000000e+00 0.0000000000000000e+00 0.0000000000000000e+00  2.0533763285537138e-01 -8.9843729310792519e-01 0.0000000000000000e+00 -8.9843729310793219e-01 3.9567270221282106e+03 0.0000000000000000e+00 0.0000000000000000e+00 0.0000000000000000e+00 0.0000000000000000e+00  7.0438377995221835e-01 -1.8303084971649688e+00 0.0000000000000000e+00 -1.8303084971649712e+00 3.9454969692554905e+03 0.0000000000000000e+00 0.0000000000000000e+00 0.0000000000000000e+00 0.0000000000000000e+00  -8.6580144918516205e-02 -1.4206982832709056e+00 0.0000000000000000e+00 -1.4206982832709039e+00 3.9258803809180076e+03 0.0000000000000000e+00 0.0000000000000000e+00 0.0000000000000000e+00 0.0000000000000000e+00  -9.3807351062187197e-02 -2.0157877317974426e+00 0.0000000000000000e+00 -2.0157877317974466e+00 3.9070426992511307e+03 0.0000000000000000e+00 0.0000000000000000e+00 0.0000000000000000e+00 0.0000000000000000e+00  1.0079036606726903e+00 -2.8651143715342133e+00 0.0000000000000000e+00 -2.8651143715342151e+00 3.8831071615085948e+03 0.0000000000000000e+00 0.0000000000000000e+00 0.0000000000000000e+00 0.0000000000000000e+00  8.3779961183091700e-01 -3.6810386974130282e+00 0.0000000000000000e+00 -3.6810386974130243e+00 3.8545268766125746e+03 0.0000000000000000e+00 0.0000000000000000e+00 0.0000000000000000e+00 0.0000000000000000e+00  6.7109932464449840e-01 -4.7088940464690978e+00 0.0000000000000000e+00 -4.7088940464691076e+00 3.8044235850289288e+03 0.0000000000000000e+00 0.0000000000000000e+00 0.0000000000000000e+00 0.0000000000000000e+00  5.1284980699933447e-01 -7.7632883830280104e+00 0.0000000000000000e+00 -7.7632883830279802e+00 3.7716178166553741e+03 0.0000000000000000e+00 0.0000000000000000e+00 0.0000000000000000e+00 0.0000000000000000e+00  2.0859943353739269e-01 -5.8184407543937136e+00 0.0000000000000000e+00 -5.8184407543937429e+00 3.6960021513177426e+03 0.0000000000000000e+00 0.0000000000000000e+00 0.0000000000000000e+00 0.0000000000000000e+00  1.3089817020436165e+00 -8.5194808044582953e+00 0.0000000000000000e+00 -8.5194808044583024e+00 3.6250530520127768e+03 0.0000000000000000e+00 0.0000000000000000e+00 0.0000000000000000e+00 0.0000000000000000e+00  5.4040276798837921e+00 -4.8855013191139411e+00 0.0000000000000000e+00 -4.8855013191139145e+00 3.5116138860985984e+03 0.0000000000000000e+00 0.0000000000000000e+00 0.0000000000000000e+00 0.0000000000000000e+00  -3.8074432464798917e+00 -1.0686353667476427e+01 0.0000000000000000e+00 -1.0686353667476283e+01 3.3706609841275795e+03 0.0000000000000000e+00 0.0000000000000000e+00 0.0000000000000000e+00 0.0000000000000000e+00  1.7298157782742813e+01 -3.3679774363099384e+01 0.0000000000000000e+00 -3.3679774363099398e+01 3.1446234508789021e+03 0.0000000000000000e+00 0.0000000000000000e+00 0.0000000000000000e+00 0.0000000000000000e+00  -8.4335005186790593e+00 -2.2224790612301046e+01 0.0000000000000000e+00 -2.2224790612301103e+01 2.8427445123658163e+03 0.0000000000000000e+00 0.0000000000000000e+00 0.0000000000000000e+00 0.0000000000000000e+00  1.8693749036909743e+01 -1.0123418947428675e+02 0.0000000000000000e+00 -1.0123418947428698e+02 2.3358683575877967e+03 0.0000000000000000e+00 0.0000000000000000e+00 0.0000000000000000e+00 0.0000000000000000e+00  -3.4855845216751163e+01 -1.1543195366489026e+02 0.0000000000000000e+00 -1.1543195366488975e+02 1.5863181122736339e+03 0.0000000000000000e+00 0.0000000000000000e+00 0.0000000000000000e+00 0.0000000000000000e+00  1.2968937886341737e+02 -1.3659777167357689e+02 0.0000000000000000e+00 -1.3659777167357649e+02 5.7165533239755166e+02 0.0000000000000000e+00 0.0000000000000000e+00 0.0000000000000000e+00 0.0000000000000000e+00  -3.2327010583937166e+00 1.8049866443607962e-01 0.0000000000000000e+00 1.8049866443607640e-01 3.8729593852496969e+03 0.0000000000000000e+00 0.0000000000000000e+00 0.0000000000000000e+00 0.0000000000000000e+00  -1.6508518051535724e+01 5.1276278002732531e-02 0.0000000000000000e+00 5.1276278002740087e-02 3.8984308289939845e+03 0.0000000000000000e+00 0.0000000000000000e+00 0.0000000000000000e+00 0.0000000000000000e+00  -3.6465061183465515e+01 1.0420350317238976e+00 0.0000000000000000e+00 1.0420350317239095e+00 3.9367918597028365e+03 0.0000000000000000e+00 0.0000000000000000e+00 0.0000000000000000e+00 0.0000000000000000e+00  -5.9929292634755889e+01 1.6932240051934688e-01 0.0000000000000000e+00 1.6932240051935224e-01 3.9806906277661078e+03 0.0000000000000000e+00 0.0000000000000000e+00 0.0000000000000000e+00 0.0000000000000000e+00  -8.0288909572676673e+01 1.5079441104510611e+00 0.0000000000000000e+00 1.5079441104510627e+00 4.0345578476419932e+03 0.0000000000000000e+00 0.0000000000000000e+00 0.0000000000000000e+00 0.0000000000000000e+00  -1.0125710548953973e+02 -7.9553803460310032e-02 0.0000000000000000e+00 -7.9553803460290090e-02 4.0869094126722803e+03 0.0000000000000000e+00 0.0000000000000000e+00 0.0000000000000000e+00 0.0000000000000000e+00  -1.2182789059675858e+02 1.8947647430690384e-02 0.0000000000000000e+00 1.8947647430700296e-02 4.1318778267758744e+03 0.0000000000000000e+00 0.0000000000000000e+00 0.0000000000000000e+00 0.0000000000000000e+00  -1.3192199101988456e+02 -3.6119793333451089e-01 0.0000000000000000e+00 -3.6119793333450328e-01 4.1806541138795337e+03 0.0000000000000000e+00 0.0000000000000000e+00 0.0000000000000000e+00 0.0000000000000000e+00  -1.4178144341428140e+02 1.4963910667434860e-01 0.0000000000000000e+00 1.4963910667434779e-01 4.2115281687532834e+03 0.0000000000000000e+00 0.0000000000000000e+00 0.0000000000000000e+00 0.0000000000000000e+00  -1.4777827730041113e+02 -4.6046961066450215e-01 0.0000000000000000e+00 -4.6046961066450381e-01 4.2418414233945259e+03 0.0000000000000000e+00 0.0000000000000000e+00 0.0000000000000000e+00 0.0000000000000000e+00  -1.4874930424748518e+02 -4.2300430285648144e-01 0.0000000000000000e+00 -4.2300430285648138e-01 4.2647927716081203e+03 0.0000000000000000e+00 0.0000000000000000e+00 0.0000000000000000e+00 0.0000000000000000e+00  -1.4719408112535814e+02 -6.9558860477992901e-01 0.0000000000000000e+00 -6.9558860477993023e-01 4.2804790441431705e+03 0.0000000000000000e+00 0.0000000000000000e+00 0.0000000000000000e+00 0.0000000000000000e+00  -1.4361531985268186e+02 -4.4317528507421350e-01 0.0000000000000000e+00 -4.4317528507421611e-01 4.2916635345598543e+03 0.0000000000000000e+00 0.0000000000000000e+00 0.0000000000000000e+00 0.0000000000000000e+00  -1.3900607074984754e+02 -3.3912368114416158e-01 0.0000000000000000e+00 -3.3912368114416480e-01 4.2986401745213398e+03 0.0000000000000000e+00 0.0000000000000000e+00 0.0000000000000000e+00 0.0000000000000000e+00  -1.3311318868985518e+02 -3.9248944114863693e-01 0.0000000000000000e+00 -3.9248944114863610e-01 4.3015216986907681e+03 0.0000000000000000e+00 0.0000000000000000e+00 0.0000000000000000e+00 0.0000000000000000e+00  -1.2708588552357817e+02 -4.5901869445252619e-01 0.0000000000000000e+00 -4.5901869445252602e-01 4.3017219677158319e+03 0.0000000000000000e+00 0.0000000000000000e+00 0.0000000000000000e+00 0.0000000000000000e+00  -1.2123146055790731e+02 -2.8715933410307565e-01 0.0000000000000000e+00 -2.8715933410307226e-01 4.2992486172531108e+03 0.0000000000000000e+00 0.0000000000000000e+00 0.0000000000000000e+00 0.0000000000000000e+00  -1.1554920139111179e+02 -3.1261694372609716e-01 0.0000000000000000e+00 -3.1261694372609933e-01 4.2951947672958877e+03 0.0000000000000000e+00 0.0000000000000000e+00 0.0000000000000000e+00 0.0000000000000000e+00  -1.1029842323354573e+02 -1.7561895126562663e-01 0.0000000000000000e+00 -1.7561895126563240e-01 4.2894892632034844e+03 0.0000000000000000e+00 0.0000000000000000e+00 0.0000000000000000e+00 0.0000000000000000e+00  -1.0539880333081368e+02 -1.4114414969321093e-01 0.0000000000000000e+00 -1.4114414969320890e-01 4.2822356973535661e+03 0.0000000000000000e+00 0.0000000000000000e+00 0.0000000000000000e+00 0.0000000000000000e+00  -1.0103264032496178e+02 -7.8033025305635231e-02 0.0000000000000000e+00 -7.8033025305635509e-02 4.2739178699247605e+03 0.0000000000000000e+00 0.0000000000000000e+00 0.0000000000000000e+00 0.0000000000000000e+00  -9.6754297412694584e+01 -4.1245805022505917e-02 0.0000000000000000e+00 -4.1245805022505001e-02 4.2645326426345346e+03 0.0000000000000000e+00 0.0000000000000000e+00 0.0000000000000000e+00 0.0000000000000000e+00  -9.3009277411073896e+01 -8.6247483571152243e-03 0.0000000000000000e+00 -8.6247483571136214e-03 4.2537891908976499e+03 0.0000000000000000e+00 0.0000000000000000e+00 0.0000000000000000e+00 0.0000000000000000e+00  -8.8891335454573152e+01 -2.9889529254595627e-02 0.0000000000000000e+00 -2.9889529254593570e-02 4.2419630313112239e+03 0.0000000000000000e+00 0.0000000000000000e+00 0.0000000000000000e+00 0.0000000000000000e+00  -8.5128723383942514e+01 -5.6179759557459914e-02 0.0000000000000000e+00 -5.6179759557460837e-02 4.2290824857846846e+03 0.0000000000000000e+00 0.0000000000000000e+00 0.0000000000000000e+00 0.0000000000000000e+00  -8.0746860936476381e+01 6.9268835283422370e-02 0.0000000000000000e+00 6.9268835283423244e-02 4.2148338504521407e+03 0.0000000000000000e+00 0.0000000000000000e+00 0.0000000000000000e+00 0.0000000000000000e+00  -7.6101167574079895e+01 -2.8496919478146147e-02 0.0000000000000000e+00 -2.8496919478146643e-02 4.1988804054871207e+03 0.0000000000000000e+00 0.0000000000000000e+00 0.0000000000000000e+00 0.0000000000000000e+00  -7.1044164788726945e+01 8.4601458964519802e-02 0.0000000000000000e+00 8.4601458964518955e-02 4.1820798990463172e+03 0.0000000000000000e+00 0.0000000000000000e+00 0.0000000000000000e+00 0.0000000000000000e+00  -6.5166232893973387e+01 1.1443566264686410e-01 0.0000000000000000e+00 1.1443566264686149e-01 4.1643556791413002e+03 0.0000000000000000e+00 0.0000000000000000e+00 0.0000000000000000e+00 0.0000000000000000e+00  -5.9102757635324423e+01 8.2586424530759640e-03 0.0000000000000000e+00 8.2586424530732162e-03 4.1445063214588126e+03 0.0000000000000000e+00 0.0000000000000000e+00 0.0000000000000000e+00 0.0000000000000000e+00  -5.1836324800792724e+01 -6.2203207676628375e-02 0.0000000000000000e+00 -6.2203207676632455e-02 4.1250107977846501e+03 0.0000000000000000e+00 0.0000000000000000e+00 0.0000000000000000e+00 0.0000000000000000e+00  -4.4877750097420055e+01 -1.2495043230348309e-01 0.0000000000000000e+00 -1.2495043230348220e-01 4.1037937325275498e+03 0.0000000000000000e+00 0.0000000000000000e+00 0.0000000000000000e+00 0.0000000000000000e+00  -3.6741881719788360e+01 -4.9249671442848662e-02 0.0000000000000000e+00 -4.9249671442852277e-02 4.0831742636458571e+03 0.0000000000000000e+00 0.0000000000000000e+00 0.0000000000000000e+00 0.0000000000000000e+00  -2.8946635641476053e+01 -1.8516436760532473e-01 0.0000000000000000e+00 -1.8516436760532484e-01 4.0638794096308470e+03 0.0000000000000000e+00 0.0000000000000000e+00 0.0000000000000000e+00 0.0000000000000000e+00  -2.1263096155505789e+01 -6.6667024551289658e-02 0.0000000000000000e+00 -6.6667024551294696e-02 4.0447539970952089e+03 0.0000000000000000e+00 0.0000000000000000e+00 0.0000000000000000e+00 0.0000000000000000e+00  -1.4322042017508386e+01 -2.7741030918259118e-02 0.0000000000000000e+00 -2.7741030918257505e-02 4.0265915210723938e+03 0.0000000000000000e+00 0.0000000000000000e+00 0.0000000000000000e+00 0.0000000000000000e+00  -8.3841267726109798e+00 -7.2378248190821906e-02 0.0000000000000000e+00 -7.2378248190821642e-02 4.0113456429573384e+03 0.0000000000000000e+00 0.0000000000000000e+00 0.0000000000000000e+00 0.0000000000000000e+00  -3.8114157255886951e+00 5.2928750287238889e-02 0.0000000000000000e+00 5.2928750287244246e-02 3.9986106694475829e+03 0.0000000000000000e+00 0.0000000000000000e+00 0.0000000000000000e+00 0.0000000000000000e+00  -5.3413889044828289e-01 1.1535338416154661e-01 0.0000000000000000e+00 1.1535338416154547e-01 3.9897621929835614e+03 0.0000000000000000e+00 0.0000000000000000e+00 0.0000000000000000e+00 0.0000000000000000e+00  1.1675278738421703e+02 5.6104689810159634e+01 0.0000000000000000e+00 5.6104689810160409e+01 4.4805286368016596e+02 0.0000000000000000e+00 0.0000000000000000e+00 0.0000000000000000e+00 0.0000000000000000e+00  7.8368239551923722e+01 1.0033419400910873e+02 0.0000000000000000e+00 1.0033419400910842e+02 1.6642441048404689e+03 0.0000000000000000e+00 0.0000000000000000e+00 0.0000000000000000e+00 0.0000000000000000e+00  -2.2470999487907065e+01 2.6200504778488003e+01 0.0000000000000000e+00 2.6200504778487979e+01 2.3519028315663572e+03 0.0000000000000000e+00 0.0000000000000000e+00 0.0000000000000000e+00 0.0000000000000000e+00  4.4160145956852439e+01 4.5911763248338382e+01 0.0000000000000000e+00 4.5911763248338609e+01 2.9089019352550995e+03 0.0000000000000000e+00 0.0000000000000000e+00 0.0000000000000000e+00 0.0000000000000000e+00  -9.5215323114594597e+00 -1.5904432238175812e+00 0.0000000000000000e+00 -1.5904432238174340e+00 3.1784961940571670e+03 0.0000000000000000e+00 0.0000000000000000e+00 0.0000000000000000e+00 0.0000000000000000e+00  1.6203483441755498e+01 1.8449174982343795e+01 0.0000000000000000e+00 1.8449174982343767e+01 3.4075558417961461e+03 0.0000000000000000e+00 0.0000000000000000e+00 0.0000000000000000e+00 0.0000000000000000e+00  -3.0427629482973546e+00 1.0300946368486407e+01 0.0000000000000000e+00 1.0300946368486391e+01 3.5521333933330752e+03 0.0000000000000000e+00 0.0000000000000000e+00 0.0000000000000000e+00 0.0000000000000000e+00  1.8321614467917973e+00 1.1237199665995556e+01 0.0000000000000000e+00 1.1237199665995563e+01 3.6400126748161797e+03 0.0000000000000000e+00 0.0000000000000000e+00 0.0000000000000000e+00 0.0000000000000000e+00  1.4664082106618641e+00 6.1419667874867105e+00 0.0000000000000000e+00 6.1419667874867265e+00 3.7300694146723258e+03 0.0000000000000000e+00 0.0000000000000000e+00 0.0000000000000000e+00 0.0000000000000000e+00  2.2064246039106683e+00 4.7154575661926597e+00 0.0000000000000000e+00 4.7154575661926845e+00 3.7818693114289008e+03 0.0000000000000000e+00 0.0000000000000000e+00 0.0000000000000000e+00 0.0000000000000000e+00  -1.2700790222203056e+00 5.1159581582962865e-01 0.0000000000000000e+00 5.1159581582965097e-01 3.8220235961626622e+03 0.0000000000000000e+00 0.0000000000000000e+00 0.0000000000000000e+00 0.0000000000000000e+00  2.1830621710962945e+00 1.9815989891939680e+00 0.0000000000000000e+00 1.9815989891939634e+00 3.8436068514341514e+03 0.0000000000000000e+00 0.0000000000000000e+00 0.0000000000000000e+00 0.0000000000000000e+00  -5.6744517205287992e-01 4.5813076755484261e-01 0.0000000000000000e+00 4.5813076755485094e-01 3.8622479939220411e+03 0.0000000000000000e+00 0.0000000000000000e+00 0.0000000000000000e+00 0.0000000000000000e+00  8.5738988297524190e+02 7.0771156954190599e+02 0.0000000000000000e+00 7.0771156954190599e+02 5.1811930313449261e+02 0.0000000000000000e+00 0.0000000000000000e+00 0.0000000000000000e+00 0.0000000000000000e+00  2.4112444389353427e+03 3.1270092919226249e+03 0.0000000000000000e+00 3.1270092919226208e+03 5.3720526814554996e+03 0.0000000000000000e+00 0.0000000000000000e+00 0.0000000000000000e+00 0.0000000000000000e+00  9.2188087891529983e+02 2.2429046817273161e+03 0.0000000000000000e+00 2.2429046817273156e+03 1.1247442527568790e+04 0.0000000000000000e+00 0.0000000000000000e+00 0.0000000000000000e+00 0.0000000000000000e+00  1.5206242666399194e+03 -1.5254826042687348e+03 0.0000000000000000e+00 -1.5254826042687355e+03 1.0651320722709590e+04 0.0000000000000000e+00 0.0000000000000000e+00 0.0000000000000000e+00 0.0000000000000000e+00  1.6092391968823463e+03 -3.1459216103147091e+03 0.0000000000000000e+00 -3.1459216103147105e+03 5.3935631139798143e+03 0.0000000000000000e+00 0.0000000000000000e+00 0.0000000000000000e+00 0.0000000000000000e+00  8.8031673439175643e+02 -8.8260241699217784e+02 0.0000000000000000e+00 -8.8260241699217613e+02 7.6904007480020493e+02 0.0000000000000000e+00 0.0000000000000000e+00 0.0000000000000000e+00 0.0000000000000000e+00  4.8897425358167212e-02 -2.3647097371942694e-01 0.0000000000000000e+00 -2.3647097371942719e-01 3.9853730905043917e+03 0.0000000000000000e+00 0.0000000000000000