<?xml version="1.0"?>
<VTKFile type="UnstructuredGrid"  version="0.1"  >
<UnstructuredGrid>
<Piece  NumberOfPoints="2165" NumberOfCells="4161">
<Points>
<DataArray  type="Float64"  NumberOfComponents="3"  format="ascii">-3.598637933768527e-16 0.3500000000000001 0  0.05 0.4 0  -3.537405593811159e-16 0.45 0  0 1 0  1 1 0  0.9999999999999997 0.65 0  0.9999999999999997 0.5499999999999999 0  1 0 0  0 0 0  0.0191341716182545 0.3538060233744357 0  0.03535533905932737 0.3646446609406727 0  0.04619397662556433 0.3808658283817455 0  0.04619397662556434 0.4191341716182545 0  0.03535533905932738 0.4353553390593274 0  0.01913417161825449 0.4461939766255644 0  0 0.975 0  0 0.95 0  0 0.9249999999999999 0  0 0.8999999999999998 0  0 0.8749999999999998 0  0 0.8499999999999998 0  0 0.8249999999999997 0  0 0.7999999999999996 0  0 0.7749999999999996 0  0 0.7499999999999996 0  0 0.7249999999999996 0  0 0.6999999999999997 0  0 0.6749999999999998 0  0 0.6499999999999999 0  0 0.6249999999999999 0  0 0.6 0  0 0.575 0  0 0.5499999999999998 0  0 0.5249999999999999 0  0 0.4999999999999998 0  0 0.4749999999999999 0  0.975 1 0  0.95 1 0  0.925 1 0  0.9 1 0  0.875 1 0  0.85 1 0  0.825 1 0  0.8 1 0  0.775 1 0  0.75 1 0  0.725 1 0  0.7 1 0  0.675 1 0  0.65 1 0  0.625 1 0  0.6 1 0  0.575 1 0  0.55 1 0  0.525 1 0  0.5 1 0  0.475 1 0  0.45 1 0  0.425 1 0  0.4 1 0  0.375 1 0  0.35 1 0  0.325 1 0  0.3 1 0  0.275 1 0  0.25 1 0  0.225 1 0  0.2 1 0  0.175 1 0  0.15 1 0  0.125 1 0  0.09999999999999998 1 0  0.07499999999999996 1 0  0.05000000000000004 1 0  0.02500000000000002 1 0  1 0.675 0  1 0.7000000000000001 0  1 0.7250000000000001 0  1 0.7500000000000001 0  1 0.7750000000000001 0  1 0.8000000000000002 0  1 0.8250000000000002 0  1 0.8500000000000002 0  1 0.8750000000000003 0  1 0.9000000000000001 0  1 0.9250000000000002 0  1 0.9500000000000001 0  1 0.9750000000000001 0  0.9783058130441221 0.6450484433951209 0  0.9609084258765985 0.6311744900929367 0  0.9512536043909088 0.6111260466978157 0  0.9512536043909088 0.5888739533021843 0  0.9609084258765985 0.5688255099070633 0  0.9783058130441221 0.554951556604879 0  1 0.02500000000000002 0  1 0.05000000000000004 0  1 0.07500000000000008 0  1 0.1000000000000001 0  1 0.1250000000000001 0  1 0.1500000000000002 0  1 0.1750000000000002 0  1 0.2000000000000003 0  1 0.2250000000000003 0  1 0.2500000000000004 0  1 0.2750000000000004 0  1 0.3000000000000003 0  1 0.3250000000000002 0  1 0.3500000000000001 0  1 0.3750000000000001 0  1 0.3999999999999999 0  1 0.425 0  1 0.45 0  1 0.475 0  1 0.5000000000000001 0  1 0.5249999999999999 0  0.025 0 0  0.05 0 0  0.075 0 0  0.1 0 0  0.125 0 0  0.15 0 0  0.175 0 0  0.2 0 0  0.225 0 0  0.25 0 0  0.275 0 0  0.3 0 0  0.325 0 0  0.35 0 0  0.375 0 0  0.4 0 0  0.425 0 0  0.45 0 0  0.475 0 0  0.5 0 0  0.525 0 0  0.55 0 0  0.575 0 0  0.6 0 0  0.625 0 0  0.65 0 0  0.675 0 0  0.7 0 0  0.725 0 0  0.75 0 0  0.775 0 0  0.8 0 0  0.825 0 0  0.85 0 0  0.875 0 0  0.9 0 0  0.925 0 0  0.95 0 0  0.975 0 0  0 0.3250000000000001 0  0 0.3 0  0 0.275 0  0 0.2499999999999999 0  0 0.2249999999999999 0  0 0.1999999999999998 0  0 0.1749999999999998 0  0 0.1499999999999998 0  0 0.1249999999999998 0  0 0.09999999999999987 0  0 0.07499999999999984 0  0 0.04999999999999993 0  0 0.02500000000000002 0  0.06453325334544308 0.4134708543086404 0  0.5146839915088474 0.02134387884913819 0  0.4875871001393628 0.9784117024331356 0  0.9386300160094723 0.5701776715936071 0  0.0216506350946109 0.6124999999999999 0  0.9764205887290853 0.3596067946540696 0  0.3876261045932067 0.02156097490657183 0  0.6125 0.978349364905389 0  0.3612127461797463 0.9792371404802113 0  0.6374786650398092 0.02079982608537345 0  0.9387185538472446 0.6295115890709873 0  0.05482260092545593 0.3633687091864355 0  0.02445354803948679 0.7343198207875321 0  0.2624888813627476 0.02091671348578122 0  0.7375212991274043 0.9794996488945376 0  0.9793010831723812 0.2648509348664836 0  0.2625026480689301 0.9795699185263282 0  0.7362840788105066 0.02225211062275217 0  0.02159327910297104 0.2128861809896528 0  0.9786837570973538 0.7867241244631172 0  0.02419728000065929 0.8365600234152764 0  0.980043283615984 0.1624097203408714 0  0.1645857434226354 0.0205513501962844 0  0.8339481359352011 0.9784483546369231 0  0.1637584777222821 0.9774556328160621 0  0.8374916614314967 0.02165097219510076 0  0.02171915379676059 0.5370700005916152 0  0.9795335762511281 0.4365726939225819 0  0.02319480745007968 0.1370197632171214 0  0.9774462976085161 0.8592616917551974 0  0.9786941241076723 0.7122511101067891 0  0.9797883857882621 0.08781864217752949 0  0.01966314788989931 0.9125801876811624 0  0.02051815350151098 0.2882126194470174 0  0.09063226699593246 0.0214884092697174 0  0.9124408843562394 0.9818463395009377 0  0.03872465516591678 0.452731089005145 0  0.08969424365256845 0.978412979507602 0  0.9124999999999999 0.02165063509461096 0  0.02158104789437187 0.6619299176372371 0  0.9796602354625652 0.4859004208706154 0  0.3127517983598529 0.02417963694738812 0  0.4375629605000894 0.02158039900821679 0  0.5643674594196073 0.01968996000301126 0  0.5368361594956101 0.9790428840407062 0  0.4376176251051295 0.9783667484208922 0  0.6874072695660477 0.978435143102373 0  0.310604317388614 0.979558305560928 0  0.2125577044121564 0.02066685543111635 0  0.6875 0.0216506350946109 0  0.02224009810917643 0.08811420611559456 0  0.790876428529276 0.978633065284896 0  0.2125 0.978349364905389 0  0.9788033534786624 0.2116925349935155 0  0.9769441169344462 0.3150381335760689 0  0.9804648376981185 0.9123186437266726 0  0.7874999988222203 0.02127957051165741 0  0.02109233852270731 0.786866823287435 0  0.9483709287873718 0.5504073206521916 0  0.9259842326464427 0.5519702047534598 0  0.9163209045278007 0.5719292915927929 0  0.9035374059862284 0.5537291796040291 0  0.8938951918780048 0.5738949757882954 0  0.8807940177559743 0.5546750869516996 0  0.8712661812741653 0.5757142549099102 0  0.8580668865514332 0.5563902430113601 0  0.848508161986991 0.5779004013072002 0  0.8354274200119249 0.5591176379057713 0  0.8256349826905482 0.5800610629400762 0  0.8124123591208572 0.5604454546391737 0  0.802603410938817 0.5819653950592523 0  0.7892876429890218 0.562234610648543 0  0.7794355871850538 0.583896242519796 0  0.7661469824381839 0.5648243426306435 0  0.7562387679604726 0.5860005456930413 0  0.7429651600512166 0.5669367633461588 0  0.7330846968880171 0.5879590907760761 0  0.7198577999459205 0.5688986880627463 0  0.7297050500533544 0.5479561801187277 0  0.7066243396993471 0.5499068108517552 0  0.6968285086900206 0.5707989520567972 0  0.6836266810714333 0.5519088927359967 0  0.6738604685766018 0.5727655091567184 0  0.6607284761452521 0.5538781923028128 0  0.6697149783704412 0.5321140554135094 0  0.6473436039782401 0.5350050604671006 0  0.6378867365666199 0.5557804038095817 0  0.6246915360243652 0.5362124690568238 0  0.6151175309583405 0.5575933164645619 0  0.6019784180102355 0.5380659376543677 0  0.5924099113505394 0.5593739656462906 0  0.5794110962027638 0.541110021814312 0  0.5697985396917309 0.5614600003719357 0  0.5568468707330213 0.5433212932327446 0  0.5472634011377896 0.5635652141280936 0  0.5343236363495072 0.5451361960661517 0  0.5247877773262166 0.565493591892781 0  0.5118927934227436 0.5470665328397559 0  0.5023398230005425 0.5674381114577953 0  0.5213991904098014 0.5267047787870831 0  0.4990390504096661 0.528649139287786 0  0.6328887517229864 0.5131744321062524 0  0.5085133205790763 0.5083322037773296 0  0.4861972978925295 0.5102540920324363 0  0.4956914791804768 0.4899605513008993 0  0.4734139980312694 0.4918582759645476 0  0.4826986629698439 0.4717164019717278 0  0.460570567761715 0.473509155475794 0  0.4699344541058981 0.4533140529328089 0  0.4477087341565655 0.4550973130597117 0  0.4381733274019614 0.4752901381741884 0  0.4570222843287571 0.4349938694701042 0  0.4348599018247688 0.436728068420533 0  0.5604623134382263 0.581815997002507 0  0.4443612964408632 0.416499823314016 0  0.422056299386984 0.4183730429856528 0  0.4688721528228815 0.4135009841763965 0  0.4315584877924544 0.398120546824229 0  0.4092288692044618 0.3999974286008185 0  0.7463210599443056 0.6070829843371945 0  0.4187270626688335 0.3797365044773463 0  0.3964262302393312 0.3817184136470017 0  0.3869780036193907 0.4018498778543814 0  0.3742423843122406 0.3837055716372927 0  0.3648701490102072 0.4037049758807119 0  0.3518115403926748 0.3858985036587403 0  0.3426146276710081 0.4056777495658291 0  0.3614541441355358 0.3656396497906528 0  0.339026673715919 0.3678724679736439 0  0.3485566370135618 0.3476560889674916 0  0.3264681821394378 0.3496422822523857 0  0.8219942777991693 0.5379143061758643 0  0.3358297439968608 0.3295117748868035 0  0.3137050884585635 0.3314921667582986 0  0.3229980644152205 0.3113561769498422 0  0.3007986024336577 0.3133063832007756 0  0.3441851868720173 0.3085211458266175 0  0.3101966551534752 0.2930273704914169 0  0.287793053707373 0.2950088132226583 0  0.2914417217227097 0.3337427541189321 0  0.2975120686695638 0.2743682539701985 0  0.274864585256681 0.2764253296978281 0  0.816026571618698 0.6006851919544112 0  0.2844672854128698 0.2557011565880619 0  0.2617267434509338 0.2577713002235077 0  0.3072711221189672 0.2536790056475094 0  0.2521588568690318 0.2785072139143895 0  0.2389277409161178 0.2598761196336353 0  0.248448076747058 0.2389478879785275 0  0.5053822153261678 0.4716915524631118 0  0.229548765875869 0.2806542761043101 0  0.2254561407802683 0.2411354049374563 0  0.2350621310805047 0.2199181955146378 0  0.2117782450160163 0.222165061041625 0  0.2214249125635323 0.2008136877065064 0  0.2448758256083499 0.1985732693215908 0  0.197966291680556 0.2031211006951591 0  0.1883147493074436 0.2245564097761413 0  0.8910637266939049 0.5322898364209732 0  0.1748136087708587 0.2051141748992724 0  0.1842088801696792 0.1837087814679069 0  0.1656574100807746 0.2269812054689968 0  0.3554582346764377 0.4236292557112198 0  0.3328979939923831 0.425459320867588 0  0.3460368767112177 0.4435398346083328 0  0.3238464003
[...]
<PointData  Tensors="$\sigma$"> 
<DataArray  type="Float64"  Name="$\sigma$"  NumberOfComponents="9" format="ascii">-1.8894894290101701e+02 -2.5250469764937645e+02 0.0000000000000000e+00 -2.5250469764937654e+02 -6.0847418454045282e+02 0.0000000000000000e+00 0.0000000000000000e+00 0.0000000000000000e+00 0.0000000000000000e+00  7.5197368233860800e+02 3.1444780085479003e+01 0.0000000000000000e+00 3.1444780085478843e+01 1.1842114952512098e+04 0.0000000000000000e+00 0.0000000000000000e+00 0.0000000000000000e+00 0.0000000000000000e+00  -1.5813342716419078e+02 3.0297136290273590e+02 0.0000000000000000e+00 3.0297136290273562e+02 -6.3514559277846013e+02 0.0000000000000000e+00 0.0000000000000000e+00 0.0000000000000000e+00 0.0000000000000000e+00  6.1150312393895019e-02 4.8497628176760027e-01 0.0000000000000000e+00 4.8497628176759999e-01 3.7506301471720631e+03 0.0000000000000000e+00 0.0000000000000000e+00 0.0000000000000000e+00 0.0000000000000000e+00  7.9192847569666980e-01 -9.9661822707774409e-03 0.0000000000000000e+00 -9.9661822707784696e-03 3.6372720964025389e+03 0.0000000000000000e+00 0.0000000000000000e+00 0.0000000000000000e+00 0.0000000000000000e+00  -2.1544262088430773e+02 -2.6593206562876588e+02 0.0000000000000000e+00 -2.6593206562876520e+02 -7.2368735620334760e+01 0.0000000000000000e+00 0.0000000000000000e+00 0.0000000000000000e+00 0.0000000000000000e+00  1.2470788566551951e+02 -7.8832949146755226e+01 0.0000000000000000e+00 -7.8832949146754984e+01 1.1066777895086082e+02 0.0000000000000000e+00 0.0000000000000000e+00 0.0000000000000000e+00 0.0000000000000000e+00  -4.6718264047600398e-02 8.7047864504949668e-02 0.0000000000000000e+00 8.7047864504950820e-02 3.7518373657195434e+03 0.0000000000000000e+00 0.0000000000000000e+00 0.0000000000000000e+00 0.0000000000000000e+00  1.0861676352331269e+03 4.4673459929867880e+02 0.0000000000000000e+00 4.4673459929867897e+02 3.9342300568918076e+03 0.0000000000000000e+00 0.0000000000000000e+00 0.0000000000000000e+00 0.0000000000000000e+00  6.0502229818868364e+02 5.2217057986067744e+02 0.0000000000000000e+00 5.2217057986067834e+02 4.6705961532509929e+02 0.0000000000000000e+00 0.0000000000000000e+00 0.0000000000000000e+00 0.0000000000000000e+00  2.0113273542090374e+03 2.3493456327746785e+03 0.0000000000000000e+00 2.3493456327746776e+03 3.1113855422533520e+03 0.0000000000000000e+00 0.0000000000000000e+00 0.0000000000000000e+00 0.0000000000000000e+00  1.6127261050986983e+03 2.8909412695795950e+03 0.0000000000000000e+00 2.8909412695795941e+03 8.8960567173722957e+03 0.0000000000000000e+00 0.0000000000000000e+00 0.0000000000000000e+00 0.0000000000000000e+00  1.5904520968513480e+03 -2.9139021112397431e+03 0.0000000000000000e+00 -2.9139021112397454e+03 8.8588287503220181e+03 0.0000000000000000e+00 0.0000000000000000e+00 0.0000000000000000e+00 0.0000000000000000e+00  1.9888634591426128e+03 -2.3066871900311198e+03 0.0000000000000000e+00 -2.3066871900311198e+03 3.3108550746416154e+03 0.0000000000000000e+00 0.0000000000000000e+00 0.0000000000000000e+00 0.0000000000000000e+00  5.8703460197590005e+02 -5.6626551996090598e+02 0.0000000000000000e+00 -5.6626551996090723e+02 4.5003598592669761e+02 0.0000000000000000e+00 0.0000000000000000e+00 0.0000000000000000e+00 0.0000000000000000e+00  2.8375055962727370e-02 -1.4111863288190890e-01 0.0000000000000000e+00 -1.4111863288190782e-01 3.7490009385205312e+03 0.0000000000000000e+00 0.0000000000000000e+00 0.0000000000000000e+00 0.0000000000000000e+00  2.2103245643656007e-03 -5.4013939903260455e-01 0.0000000000000000e+00 -5.4013939903260422e-01 3.7461604874091831e+03 0.0000000000000000e+00 0.0000000000000000e+00 0.0000000000000000e+00 0.0000000000000000e+00  3.0015705414904392e-01 -5.8025542663495178e-01 0.0000000000000000e+00 -5.8025542663494889e-01 3.7413580701699525e+03 0.0000000000000000e+00 0.0000000000000000e+00 0.0000000000000000e+00 0.0000000000000000e+00  -2.2822027380567370e-01 -4.8164205269480059e-01 0.0000000000000000e+00 -4.8164205269480070e-01 3.7340336203733973e+03 0.0000000000000000e+00 0.0000000000000000e+00 0.0000000000000000e+00 0.0000000000000000e+00  1.8658453828019117e-01 -8.7305494960913721e-01 0.0000000000000000e+00 -8.7305494960914076e-01 3.7240822354587922e+03 0.0000000000000000e+00 0.0000000000000000e+00 0.0000000000000000e+00 0.0000000000000000e+00  6.6162971128235704e-01 -1.7525527265546215e+00 0.0000000000000000e+00 -1.7525527265546228e+00 3.7135149379280770e+03 0.0000000000000000e+00 0.0000000000000000e+00 0.0000000000000000e+00 0.0000000000000000e+00  -8.6791739045079433e-02 -1.3655122423964132e+00 0.0000000000000000e+00 -1.3655122423964114e+00 3.6950408594102278e+03 0.0000000000000000e+00 0.0000000000000000e+00 0.0000000000000000e+00 0.0000000000000000e+00  -7.0835948924920428e-02 -1.9584432717735119e+00 0.0000000000000000e+00 -1.9584432717735112e+00 3.6773501107399375e+03 0.0000000000000000e+00 0.0000000000000000e+00 0.0000000000000000e+00 0.0000000000000000e+00  9.2837372914499050e-01 -2.7584430842092837e+00 0.0000000000000000e+00 -2.7584430842092877e+00 3.6547758458450967e+03 0.0000000000000000e+00 0.0000000000000000e+00 0.0000000000000000e+00 0.0000000000000000e+00  8.0207978085820009e-01 -3.4971324455817947e+00 0.0000000000000000e+00 -3.4971324455817889e+00 3.6279648576681498e+03 0.0000000000000000e+00 0.0000000000000000e+00 0.0000000000000000e+00 0.0000000000000000e+00  5.7885890308136168e-01 -4.4860151838047138e+00 0.0000000000000000e+00 -4.4860151838047209e+00 3.5807040255221355e+03 0.0000000000000000e+00 0.0000000000000000e+00 0.0000000000000000e+00 0.0000000000000000e+00  4.5719070305135340e-01 -7.4086501947169987e+00 0.0000000000000000e+00 -7.4086501947169809e+00 3.5499623574711432e+03 0.0000000000000000e+00 0.0000000000000000e+00 0.0000000000000000e+00 0.0000000000000000e+00  1.6231499391758930e-01 -5.5715082395784066e+00 0.0000000000000000e+00 -5.5715082395784306e+00 3.4787233299423742e+03 0.0000000000000000e+00 0.0000000000000000e+00 0.0000000000000000e+00 0.0000000000000000e+00  1.3270585979765426e+00 -8.2348521469562463e+00 0.0000000000000000e+00 -8.2348521469562499e+00 3.4120378261479268e+03 0.0000000000000000e+00 0.0000000000000000e+00 0.0000000000000000e+00 0.0000000000000000e+00  4.8873976339853344e+00 -4.7161777606539799e+00 0.0000000000000000e+00 -4.7161777606539790e+00 3.3051460477670653e+03 0.0000000000000000e+00 0.0000000000000000e+00 0.0000000000000000e+00 0.0000000000000000e+00  -3.2799794364955703e+00 -1.0470008577384684e+01 0.0000000000000000e+00 -1.0470008577384537e+01 3.1725822879514581e+03 0.0000000000000000e+00 0.0000000000000000e+00 0.0000000000000000e+00 0.0000000000000000e+00  1.5678206525619441e+01 -3.2058823235242983e+01 0.0000000000000000e+00 -3.2058823235242976e+01 2.9601073137539261e+03 0.0000000000000000e+00 0.0000000000000000e+00 0.0000000000000000e+00 0.0000000000000000e+00  -7.5429261915983536e+00 -2.1958758956170328e+01 0.0000000000000000e+00 -2.1958758956170335e+01 2.6752482523490380e+03 0.0000000000000000e+00 0.0000000000000000e+00 0.0000000000000000e+00 0.0000000000000000e+00  1.7377562616693947e+01 -9.5976091129459661e+01 0.0000000000000000e+00 -9.5976091129459931e+01 2.1994563669761483e+03 0.0000000000000000e+00 0.0000000000000000e+00 0.0000000000000000e+00 0.0000000000000000e+00  -3.3566832962655226e+01 -1.1028968319526172e+02 0.0000000000000000e+00 -1.1028968319526133e+02 1.4925852773399770e+03 0.0000000000000000e+00 0.0000000000000000e+00 0.0000000000000000e+00 0.0000000000000000e+00  1.2249554428802166e+02 -1.3018553582083382e+02 0.0000000000000000e+00 -1.3018553582083354e+02 5.3957620013327994e+02 0.0000000000000000e+00 0.0000000000000000e+00 0.0000000000000000e+00 0.0000000000000000e+00  -3.0316452843823085e+00 1.6780214249226810e-01 0.0000000000000000e+00 1.6780214249226483e-01 3.6453454051644217e+03 0.0000000000000000e+00 0.0000000000000000e+00 0.0000000000000000e+00 0.0000000000000000e+00  -1.5540004042023670e+01 6.2797015320260621e-02 0.0000000000000000e+00 6.2797015320268976e-02 3.6693085017228273e+03 0.0000000000000000e+00 0.0000000000000000e+00 0.0000000000000000e+00 0.0000000000000000e+00  -3.4308093332340576e+01 9.8330868977688490e-01 0.0000000000000000e+00 9.8330868977689134e-01 3.7053464099079756e+03 0.0000000000000000e+00 0.0000000000000000e+00 0.0000000000000000e+00 0.0000000000000000e+00  -5.6419923063055364e+01 1.8349351910286255e-01 0.0000000000000000e+00 1.8349351910286490e-01 3.7465936178597899e+03 0.0000000000000000e+00 0.0000000000000000e+00 0.0000000000000000e+00 0.0000000000000000e+00  -7.5535684351607060e+01 1.4536225996928371e+00 0.0000000000000000e+00 1.4536225996928362e+00 3.7973380791700642e+03 0.0000000000000000e+00 0.0000000000000000e+00 0.0000000000000000e+00 0.0000000000000000e+00  -9.5256268609546424e+01 -6.7986644692083098e-02 0.0000000000000000e+00 -6.7986644692064030e-02 3.8466177552424961e+03 0.0000000000000000e+00 0.0000000000000000e+00 0.0000000000000000e+00 0.0000000000000000e+00  -1.1463959786414065e+02 6.9105568168915778e-03 0.0000000000000000e+00 6.9105568168964671e-03 3.8888768341344712e+03 0.0000000000000000e+00 0.0000000000000000e+00 0.0000000000000000e+00 0.0000000000000000e+00  -1.2408560806568249e+02 -3.4295519940075619e-01 0.0000000000000000e+00 -3.4295519940075142e-01 3.9348047305938976e+03 0.0000000000000000e+00 0.0000000000000000e+00 0.0000000000000000e+00 0.0000000000000000e+00  -1.3337318106483835e+02 1.4228670503429758e-01 0.0000000000000000e+00 1.4228670503429677e-01 3.9638197314670897e+03 0.0000000000000000e+00 0.0000000000000000e+00 0.0000000000000000e+00 0.0000000000000000e+00  -1.3902476233250164e+02 -4.3864119237973059e-01 0.0000000000000000e+00 -4.3864119237973198e-01 3.9923169464125058e+03 0.0000000000000000e+00 0.0000000000000000e+00 0.0000000000000000e+00 0.0000000000000000e+00  -1.3993481255799230e+02 -4.1841009802845591e-01 0.0000000000000000e+00 -4.1841009802845575e-01 4.0139305738731937e+03 0.0000000000000000e+00 0.0000000000000000e+00 0.0000000000000000e+00 0.0000000000000000e+00  -1.3846722717092339e+02 -6.6085515890385738e-01 0.0000000000000000e+00 -6.6085515890385949e-01 4.0286771089705508e+03 0.0000000000000000e+00 0.0000000000000000e+00 0.0000000000000000e+00 0.0000000000000000e+00  -1.3510085902341601e+02 -4.2709460120747961e-01 0.0000000000000000e+00 -4.2709460120748322e-01 4.0392044866277588e+03 0.0000000000000000e+00 0.0000000000000000e+00 0.0000000000000000e+00 0.0000000000000000e+00  -1.3076526249587639e+02 -3.3579600696424655e-01 0.0000000000000000e+00 -3.3579600696425094e-01 4.0457651086153414e+03 0.0000000000000000e+00 0.0000000000000000e+00 0.0000000000000000e+00 0.0000000000000000e+00  -1.2522035993629365e+02 -3.8176156577767878e-01 0.0000000000000000e+00 -3.8176156577767778e-01 4.0484709072936262e+03 0.0000000000000000e+00 0.0000000000000000e+00 0.0000000000000000e+00 0.0000000000000000e+00  -1.1955690147952019e+02 -4.3897832181643992e-01 0.0000000000000000e+00 -4.3897832181643948e-01 4.0486548426144627e+03 0.0000000000000000e+00 0.0000000000000000e+00 0.0000000000000000e+00 0.0000000000000000e+00  -1.1404294428664416e+02 -2.8215753403404453e-01 0.0000000000000000e+00 -2.8215753403404259e-01 4.0463323926957405e+03 0.0000000000000000e+00 0.0000000000000000e+00 0.0000000000000000e+00 0.0000000000000000e+00  -1.0870421925114515e+02 -3.0031161784820876e-01 0.0000000000000000e+00 -3.0031161784821092e-01 4.0425156996740957e+03 0.0000000000000000e+00 0.0000000000000000e+00 0.0000000000000000e+00 0.0000000000000000e+00  -1.0376069918296979e+02 -1.7215193855427732e-01 0.0000000000000000e+00 -1.7215193855428229e-01 4.0371472815339180e+03 0.0000000000000000e+00 0.0000000000000000e+00 0.0000000000000000e+00 0.0000000000000000e+00  -9.9155861264323420e+01 -1.3582181486804165e-01 0.0000000000000000e+00 -1.3582181486804049e-01 4.0303249109348480e+03 0.0000000000000000e+00 0.0000000000000000e+00 0.0000000000000000e+00 0.0000000000000000e+00  -9.5047828728219343e+01 -7.5879882522964334e-02 0.0000000000000000e+00 -7.5879882522964376e-02 4.0225007429197121e+03 0.0000000000000000e+00 0.0000000000000000e+00 0.0000000000000000e+00 0.0000000000000000e+00  -9.1026171428338486e+01 -3.9635981963897900e-02 0.0000000000000000e+00 -3.9635981963896387e-02 4.0136655955294304e+03 0.0000000000000000e+00 0.0000000000000000e+00 0.0000000000000000e+00 0.0000000000000000e+00  -8.7502068500149321e+01 -6.5302421848579661e-03 0.0000000000000000e+00 -6.5302421848567648e-03 4.0035615633104762e+03 0.0000000000000000e+00 0.0000000000000000e+00 0.0000000000000000e+00 0.0000000000000000e+00  -8.3630815073338823e+01 -2.9641692322892540e-02 0.0000000000000000e+00 -2.9641692322891815e-02 3.9924328951177376e+03 0.0000000000000000e+00 0.0000000000000000e+00 0.0000000000000000e+00 0.0000000000000000e+00  -8.0089345897403206e+01 -5.2265492662496270e-02 0.0000000000000000e+00 -5.2265492662497082e-02 3.9803232014853907e+03 0.0000000000000000e+00 0.0000000000000000e+00 0.0000000000000000e+00 0.0000000000000000e+00  -7.5966955276523635e+01 6.4493356068980906e-02 0.0000000000000000e+00 6.4493356068981531e-02 3.9669092019865830e+03 0.0000000000000000e+00 0.0000000000000000e+00 0.0000000000000000e+00 0.0000000000000000e+00  -7.1598421162871531e+01 -2.2577458792658857e-02 0.0000000000000000e+00 -2.2577458792659294e-02 3.9518977973782321e+03 0.0000000000000000e+00 0.0000000000000000e+00 0.0000000000000000e+00 0.0000000000000000e+00  -6.6839918938554661e+01 7.8264086306731276e-02 0.0000000000000000e+00 7.8264086306730429e-02 3.9360961861897163e+03 0.0000000000000000e+00 0.0000000000000000e+00 0.0000000000000000e+00 0.0000000000000000e+00  -6.1308316149599904e+01 1.0934340571090331e-01 0.0000000000000000e+00 1.0934340571090123e-01 3.9194182466996594e+03 0.0000000000000000e+00 0.0000000000000000e+00 0.0000000000000000e+00 0.0000000000000000e+00  -5.5610895894449605e+01 7.6145136022213863e-03 0.0000000000000000e+00 7.6145136022167780e-03 3.9007440201294808e+03 0.0000000000000000e+00 0.0000000000000000e+00 0.0000000000000000e+00 0.0000000000000000e+00  -4.8766468915302681e+01 -5.3878294199077352e-02 0.0000000000000000e+00 -5.3878294199081835e-02 3.8824015835256896e+03 0.0000000000000000e+00 0.0000000000000000e+00 0.0000000000000000e+00 0.0000000000000000e+00  -4.2225112884155969e+01 -1.1909766281705010e-01 0.0000000000000000e+00 -1.1909766281704808e-01 3.8624432652802207e+03 0.0000000000000000e+00 0.0000000000000000e+00 0.0000000000000000e+00 0.0000000000000000e+00  -3.4570232312262974e+01 -5.0496938312727647e-02 0.0000000000000000e+00 -5.0496938312732838e-02 3.8430380353741966e+03 0.0000000000000000e+00 0.0000000000000000e+00 0.0000000000000000e+00 0.0000000000000000e+00  -2.7232271838867742e+01 -1.7790236859839209e-01 0.0000000000000000e+00 -1.7790236859839115e-01 3.8248939717889607e+03 0.0000000000000000e+00 0.0000000000000000e+00 0.0000000000000000e+00 0.0000000000000000e+00  -2.0006620039921433e+01 -6.4479140754686123e-02 0.0000000000000000e+00 -6.4479140754689010e-02 3.8069021783727308e+03 0.0000000000000000e+00 0.0000000000000000e+00 0.0000000000000000e+00 0.0000000000000000e+00  -1.3472776702527424e+01 -2.4996545162412672e-02 0.0000000000000000e+00 -2.4996545162414285e-02 3.7898171133265055e+03 0.0000000000000000e+00 0.0000000000000000e+00 0.0000000000000000e+00 0.0000000000000000e+00  -7.8892453577298349e+00 -6.8299768654979970e-02 0.0000000000000000e+00 -6.8299768654979137e-02 3.7754683046282453e+03 0.0000000000000000e+00 0.0000000000000000e+00 0.0000000000000000e+00 0.0000000000000000e+00  -3.5878398072645874e+00 4.8751316164867740e-02 0.0000000000000000e+00 4.8751316164871702e-02 3.7634735706335355e+03 0.0000000000000000e+00 0.0000000000000000e+00 0.0000000000000000e+00 0.0000000000000000e+00  -5.0410045880158705e-01 1.1092798325807822e-01 0.0000000000000000e+00 1.1092798325807697e-01 3.7551624118816862e+03 0.0000000000000000e+00 0.0000000000000000e+00 0.0000000000000000e+00 0.0000000000000000e+00  1.1402064809166146e+02 5.7102049292899835e+01 0.0000000000000000e+00 5.7102049292900666e+01 4.2625834163359946e+02 0.0000000000000000e+00 0.0000000000000000e+00 0.0000000000000000e+00 0.0000000000000000e+00  7.0581122888346286e+01 9.4683746214891968e+01 0.0000000000000000e+00 9.4683746214891855e+01 1.5646762708329973e+03 0.0000000000000000e+00 0.0000000000000000e+00 0.0000000000000000e+00 0.0000000000000000e+00  -1.8387724368780606e+01 2.7138884543648423e+01 0.0000000000000000e+00 2.7138884543648398e+01 2.2156422594896294e+03 0.0000000000000000e+00 0.0000000000000000e+00 0.0000000000000000e+00 0.0000000000000000e+00  3.9962249430140197e+01 4.2788054320597730e+01 0.0000000000000000e+00 4.2788054320597993e+01 2.7369435782268247e+03 0.0000000000000000e+00 0.0000000000000000e+00 0.0000000000000000e+00 0.0000000000000000e+00  -7.8354236224504650e+00 -1.0658127023926731e-01 0.0000000000000000e+00 -1.0658127023914601e-01 2.9931357113953700e+03 0.0000000000000000e+00 0.0000000000000000e+00 0.0000000000000000e+00 0.0000000000000000e+00  1.4502653795235460e+01 1.7026282672208517e+01 0.0000000000000000e+00 1.7026282672208467e+01 3.2066652910220782e+03 0.0000000000000000e+00 0.0000000000000000e+00 0.0000000000000000e+00 0.0000000000000000e+00  -2.5011330155690108e+00 1.0237927190141818e+01 0.0000000000000000e+00 1.0237927190141789e+01 3.3439205826179546e+03 0.0000000000000000e+00 0.0000000000000000e+00 0.0000000000000000e+00 0.0000000000000000e+00  1.4073600284551246e+00 1.0637516913798580e+01 0.0000000000000000e+00 1.0637516913798574e+01 3.4260306799419209e+03 0.0000000000000000e+00 0.0000000000000000e+00 0.0000000000000000e+00 0.0000000000000000e+00  1.3946680019718483e+00 5.9053364706623093e+00 0.0000000000000000e+00 5.9053364706623332e+00 3.5109090584128985e+03 0.0000000000000000e+00 0.0000000000000000e+00 0.0000000000000000e+00 0.0000000000000000e+00  2.0289715797598964e+00 4.5555589630302125e+00 0.0000000000000000e+00 4.5555589630302231e+00 3.5597248489327103e+03 0.0000000000000000e+00 0.0000000000000000e+00 0.0000000000000000e+00 0.0000000000000000e+00  -1.1671534275031925e+00 5.2577710633996955e-01 0.0000000000000000e+00 5.2577710633998531e-01 3.5973068241214032e+03 0.0000000000000000e+00 0.0000000000000000e+00 0.0000000000000000e+00 0.0000000000000000e+00  2.0263719289937239e+00 1.8682962812274446e+00 0.0000000000000000e+00 1.8682962812274440e+00 3.6177823779181863e+03 0.0000000000000000e+00 0.0000000000000000e+00 0.0000000000000000e+00 0.0000000000000000e+00  -5.1588003018234341e-01 4.5605437936986809e-01 0.0000000000000000e+00 4.5605437936987364e-01 3.6352242569420378e+03 0.0000000000000000e+00 0.0000000000000000e+00 0.0000000000000000e+00 0.0000000000000000e+00  8.0593571837242234e+02 6.7519227265553900e+02 0.0000000000000000e+00 6.7519227265553991e+02 4.9781302123845467e+02 0.0000000000000000e+00 0.0000000000000000e+00 0.0000000000000000e+00 0.0000000000000000e+00  2.2605719576779220e+03 2.9308739719278069e+03 0.0000000000000000e+00 2.9308739719278033e+03 5.0749406683142342e+03 0.0000000000000000e+00 0.0000000000000000e+00 0.0000000000000000e+00 0.0000000000000000e+00  8.7292712957958065e+02 2.1026236965317371e+03 0.0000000000000000e+00 2.1026236965317366e+03 1.0595944980981780e+04 0.0000000000000000e+00 0.0000000000000000e+00 0.0000000000000000e+00 0.0000000000000000e+00  1.4419823568371094e+03 -1.4241436010715540e+03 0.0000000000000000e+00 -1.4241436010715540e+03 1.0021571755799767e+04 0.0000000000000000e+00 0.0000000000000000e+00 0.0000000000000000e+00 0.0000000000000000e+00  1.5117074005392515e+03 -2.9545384224893874e+03 0.0000000000000000e+00 -2.9545384224893887e+03 5.0998481925310907e+03 0.0000000000000000e+00 0.0000000000000000e+00 0.0000000000000000e+00 0.0000000000000000e+00  8.1927041740267396e+02 -8.3509925414440045e+02 0.0000000000000000e+00 -8.3509925414439931e+02 7.4120653370733635e+02 0.0000000000000000e+00 0.0000000000000000e+00 0.0000000000000000e+00 0.0000000000000000e+00  4.7810490893585793e-02 -2.3215431920328355e-01 0.0000000000000000e+00 -2.3215431920328403e-01 3.7510730861387624e+03 0.0000000000000000e+00 0.0000000000000000e