<?xml version="1.0"?>
<VTKFile type="UnstructuredGrid"  version="0.1"  >
<UnstructuredGrid>
<Piece  NumberOfPoints="2165" NumberOfCells="4161">
<Points>
<DataArray  type="Float64"  NumberOfComponents="3"  format="ascii">-3.598637933768527e-16 0.3500000000000001 0  0.05 0.4 0  -3.537405593811159e-16 0.45 0  0 1 0  1 1 0  0.9999999999999997 0.65 0  0.9999999999999997 0.5499999999999999 0  1 0 0  0 0 0  0.0191341716182545 0.3538060233744357 0  0.03535533905932737 0.3646446609406727 0  0.04619397662556433 0.3808658283817455 0  0.04619397662556434 0.4191341716182545 0  0.03535533905932738 0.4353553390593274 0  0.01913417161825449 0.4461939766255644 0  0 0.975 0  0 0.95 0  0 0.9249999999999999 0  0 0.8999999999999998 0  0 0.8749999999999998 0  0 0.8499999999999998 0  0 0.8249999999999997 0  0 0.7999999999999996 0  0 0.7749999999999996 0  0 0.7499999999999996 0  0 0.7249999999999996 0  0 0.6999999999999997 0  0 0.6749999999999998 0  0 0.6499999999999999 0  0 0.6249999999999999 0  0 0.6 0  0 0.575 0  0 0.5499999999999998 0  0 0.5249999999999999 0  0 0.4999999999999998 0  0 0.4749999999999999 0  0.975 1 0  0.95 1 0  0.925 1 0  0.9 1 0  0.875 1 0  0.85 1 0  0.825 1 0  0.8 1 0  0.775 1 0  0.75 1 0  0.725 1 0  0.7 1 0  0.675 1 0  0.65 1 0  0.625 1 0  0.6 1 0  0.575 1 0  0.55 1 0  0.525 1 0  0.5 1 0  0.475 1 0  0.45 1 0  0.425 1 0  0.4 1 0  0.375 1 0  0.35 1 0  0.325 1 0  0.3 1 0  0.275 1 0  0.25 1 0  0.225 1 0  0.2 1 0  0.175 1 0  0.15 1 0  0.125 1 0  0.09999999999999998 1 0  0.07499999999999996 1 0  0.05000000000000004 1 0  0.02500000000000002 1 0  1 0.675 0  1 0.7000000000000001 0  1 0.7250000000000001 0  1 0.7500000000000001 0  1 0.7750000000000001 0  1 0.8000000000000002 0  1 0.8250000000000002 0  1 0.8500000000000002 0  1 0.8750000000000003 0  1 0.9000000000000001 0  1 0.9250000000000002 0  1 0.9500000000000001 0  1 0.9750000000000001 0  0.9783058130441221 0.6450484433951209 0  0.9609084258765985 0.6311744900929367 0  0.9512536043909088 0.6111260466978157 0  0.9512536043909088 0.5888739533021843 0  0.9609084258765985 0.5688255099070633 0  0.9783058130441221 0.554951556604879 0  1 0.02500000000000002 0  1 0.05000000000000004 0  1 0.07500000000000008 0  1 0.1000000000000001 0  1 0.1250000000000001 0  1 0.1500000000000002 0  1 0.1750000000000002 0  1 0.2000000000000003 0  1 0.2250000000000003 0  1 0.2500000000000004 0  1 0.2750000000000004 0  1 0.3000000000000003 0  1 0.3250000000000002 0  1 0.3500000000000001 0  1 0.3750000000000001 0  1 0.3999999999999999 0  1 0.425 0  1 0.45 0  1 0.475 0  1 0.5000000000000001 0  1 0.5249999999999999 0  0.025 0 0  0.05 0 0  0.075 0 0  0.1 0 0  0.125 0 0  0.15 0 0  0.175 0 0  0.2 0 0  0.225 0 0  0.25 0 0  0.275 0 0  0.3 0 0  0.325 0 0  0.35 0 0  0.375 0 0  0.4 0 0  0.425 0 0  0.45 0 0  0.475 0 0  0.5 0 0  0.525 0 0  0.55 0 0  0.575 0 0  0.6 0 0  0.625 0 0  0.65 0 0  0.675 0 0  0.7 0 0  0.725 0 0  0.75 0 0  0.775 0 0  0.8 0 0  0.825 0 0  0.85 0 0  0.875 0 0  0.9 0 0  0.925 0 0  0.95 0 0  0.975 0 0  0 0.3250000000000001 0  0 0.3 0  0 0.275 0  0 0.2499999999999999 0  0 0.2249999999999999 0  0 0.1999999999999998 0  0 0.1749999999999998 0  0 0.1499999999999998 0  0 0.1249999999999998 0  0 0.09999999999999987 0  0 0.07499999999999984 0  0 0.04999999999999993 0  0 0.02500000000000002 0  0.06453325334544308 0.4134708543086404 0  0.5146839915088474 0.02134387884913819 0  0.4875871001393628 0.9784117024331356 0  0.9386300160094723 0.5701776715936071 0  0.0216506350946109 0.6124999999999999 0  0.9764205887290853 0.3596067946540696 0  0.3876261045932067 0.02156097490657183 0  0.6125 0.978349364905389 0  0.3612127461797463 0.9792371404802113 0  0.6374786650398092 0.02079982608537345 0  0.9387185538472446 0.6295115890709873 0  0.05482260092545593 0.3633687091864355 0  0.02445354803948679 0.7343198207875321 0  0.2624888813627476 0.02091671348578122 0  0.7375212991274043 0.9794996488945376 0  0.9793010831723812 0.2648509348664836 0  0.2625026480689301 0.9795699185263282 0  0.7362840788105066 0.02225211062275217 0  0.02159327910297104 0.2128861809896528 0  0.9786837570973538 0.7867241244631172 0  0.02419728000065929 0.8365600234152764 0  0.980043283615984 0.1624097203408714 0  0.1645857434226354 0.0205513501962844 0  0.8339481359352011 0.9784483546369231 0  0.1637584777222821 0.9774556328160621 0  0.8374916614314967 0.02165097219510076 0  0.02171915379676059 0.5370700005916152 0  0.9795335762511281 0.4365726939225819 0  0.02319480745007968 0.1370197632171214 0  0.9774462976085161 0.8592616917551974 0  0.9786941241076723 0.7122511101067891 0  0.9797883857882621 0.08781864217752949 0  0.01966314788989931 0.9125801876811624 0  0.02051815350151098 0.2882126194470174 0  0.09063226699593246 0.0214884092697174 0  0.9124408843562394 0.9818463395009377 0  0.03872465516591678 0.452731089005145 0  0.08969424365256845 0.978412979507602 0  0.9124999999999999 0.02165063509461096 0  0.02158104789437187 0.6619299176372371 0  0.9796602354625652 0.4859004208706154 0  0.3127517983598529 0.02417963694738812 0  0.4375629605000894 0.02158039900821679 0  0.5643674594196073 0.01968996000301126 0  0.5368361594956101 0.9790428840407062 0  0.4376176251051295 0.9783667484208922 0  0.6874072695660477 0.978435143102373 0  0.310604317388614 0.979558305560928 0  0.2125577044121564 0.02066685543111635 0  0.6875 0.0216506350946109 0  0.02224009810917643 0.08811420611559456 0  0.790876428529276 0.978633065284896 0  0.2125 0.978349364905389 0  0.9788033534786624 0.2116925349935155 0  0.9769441169344462 0.3150381335760689 0  0.9804648376981185 0.9123186437266726 0  0.7874999988222203 0.02127957051165741 0  0.02109233852270731 0.786866823287435 0  0.9483709287873718 0.5504073206521916 0  0.9259842326464427 0.5519702047534598 0  0.9163209045278007 0.5719292915927929 0  0.9035374059862284 0.5537291796040291 0  0.8938951918780048 0.5738949757882954 0  0.8807940177559743 0.5546750869516996 0  0.8712661812741653 0.5757142549099102 0  0.8580668865514332 0.5563902430113601 0  0.848508161986991 0.5779004013072002 0  0.8354274200119249 0.5591176379057713 0  0.8256349826905482 0.5800610629400762 0  0.8124123591208572 0.5604454546391737 0  0.802603410938817 0.5819653950592523 0  0.7892876429890218 0.562234610648543 0  0.7794355871850538 0.583896242519796 0  0.7661469824381839 0.5648243426306435 0  0.7562387679604726 0.5860005456930413 0  0.7429651600512166 0.5669367633461588 0  0.7330846968880171 0.5879590907760761 0  0.7198577999459205 0.5688986880627463 0  0.7297050500533544 0.5479561801187277 0  0.7066243396993471 0.5499068108517552 0  0.6968285086900206 0.5707989520567972 0  0.6836266810714333 0.5519088927359967 0  0.6738604685766018 0.5727655091567184 0  0.6607284761452521 0.5538781923028128 0  0.6697149783704412 0.5321140554135094 0  0.6473436039782401 0.5350050604671006 0  0.6378867365666199 0.5557804038095817 0  0.6246915360243652 0.5362124690568238 0  0.6151175309583405 0.5575933164645619 0  0.6019784180102355 0.5380659376543677 0  0.5924099113505394 0.5593739656462906 0  0.5794110962027638 0.541110021814312 0  0.5697985396917309 0.5614600003719357 0  0.5568468707330213 0.5433212932327446 0  0.5472634011377896 0.5635652141280936 0  0.5343236363495072 0.5451361960661517 0  0.5247877773262166 0.565493591892781 0  0.5118927934227436 0.5470665328397559 0  0.5023398230005425 0.5674381114577953 0  0.5213991904098014 0.5267047787870831 0  0.4990390504096661 0.528649139287786 0  0.6328887517229864 0.5131744321062524 0  0.5085133205790763 0.5083322037773296 0  0.4861972978925295 0.5102540920324363 0  0.4956914791804768 0.4899605513008993 0  0.4734139980312694 0.4918582759645476 0  0.4826986629698439 0.4717164019717278 0  0.460570567761715 0.473509155475794 0  0.4699344541058981 0.4533140529328089 0  0.4477087341565655 0.4550973130597117 0  0.4381733274019614 0.4752901381741884 0  0.4570222843287571 0.4349938694701042 0  0.4348599018247688 0.436728068420533 0  0.5604623134382263 0.581815997002507 0  0.4443612964408632 0.416499823314016 0  0.422056299386984 0.4183730429856528 0  0.4688721528228815 0.4135009841763965 0  0.4315584877924544 0.398120546824229 0  0.4092288692044618 0.3999974286008185 0  0.7463210599443056 0.6070829843371945 0  0.4187270626688335 0.3797365044773463 0  0.3964262302393312 0.3817184136470017 0  0.3869780036193907 0.4018498778543814 0  0.3742423843122406 0.3837055716372927 0  0.3648701490102072 0.4037049758807119 0  0.3518115403926748 0.3858985036587403 0  0.3426146276710081 0.4056777495658291 0  0.3614541441355358 0.3656396497906528 0  0.339026673715919 0.3678724679736439 0  0.3485566370135618 0.3476560889674916 0  0.3264681821394378 0.3496422822523857 0  0.8219942777991693 0.5379143061758643 0  0.3358297439968608 0.3295117748868035 0  0.3137050884585635 0.3314921667582986 0  0.3229980644152205 0.3113561769498422 0  0.3007986024336577 0.3133063832007756 0  0.3441851868720173 0.3085211458266175 0  0.3101966551534752 0.2930273704914169 0  0.287793053707373 0.2950088132226583 0  0.2914417217227097 0.3337427541189321 0  0.2975120686695638 0.2743682539701985 0  0.274864585256681 0.2764253296978281 0  0.816026571618698 0.6006851919544112 0  0.2844672854128698 0.2557011565880619 0  0.2617267434509338 0.2577713002235077 0  0.3072711221189672 0.2536790056475094 0  0.2521588568690318 0.2785072139143895 0  0.2389277409161178 0.2598761196336353 0  0.248448076747058 0.2389478879785275 0  0.5053822153261678 0.4716915524631118 0  0.229548765875869 0.2806542761043101 0  0.2254561407802683 0.2411354049374563 0  0.2350621310805047 0.2199181955146378 0  0.2117782450160163 0.222165061041625 0  0.2214249125635323 0.2008136877065064 0  0.2448758256083499 0.1985732693215908 0  0.197966291680556 0.2031211006951591 0  0.1883147493074436 0.2245564097761413 0  0.8910637266939049 0.5322898364209732 0  0.1748136087708587 0.2051141748992724 0  0.1842088801696792 0.1837087814679069 0  0.1656574100807746 0.2269812054689968 0  0.3554582346764377 0.4236292557112198 0  0.3328979939923831 0.425459320867588 0  0.3460368767112177 0.4435398346083328 0  0.3238464003
[...]
<PointData  Tensors="$\sigma$"> 
<DataArray  type="Float64"  Name="$\sigma$"  NumberOfComponents="9" format="ascii">-3.5202743979540867e+02 -4.0894205711000654e+02 0.0000000000000000e+00 -4.0894205711000706e+02 -1.0243196742050213e+03 0.0000000000000000e+00 0.0000000000000000e+00 0.0000000000000000e+00 0.0000000000000000e+00  3.4103277944672395e+03 3.6238023168133601e+01 0.0000000000000000e+00 3.6238023168131548e+01 1.5539020612341354e+04 0.0000000000000000e+00 0.0000000000000000e+00 0.0000000000000000e+00 0.0000000000000000e+00  -2.8929496718391425e+02 5.1472364664513304e+02 0.0000000000000000e+00 5.1472364664513248e+02 -1.0767787834607223e+03 0.0000000000000000e+00 0.0000000000000000e+00 0.0000000000000000e+00 0.0000000000000000e+00  8.2817144927926453e-02 9.2156184684283160e-01 0.0000000000000000e+00 9.2156184684283249e-01 6.3071890911717937e+03 0.0000000000000000e+00 0.0000000000000000e+00 0.0000000000000000e+00 0.0000000000000000e+00  1.8590769375452318e+00 6.6864343917317368e-02 0.0000000000000000e+00 6.6864343917319158e-02 6.1119472356832421e+03 0.0000000000000000e+00 0.0000000000000000e+00 0.0000000000000000e+00 0.0000000000000000e+00  -4.2644662165488273e+02 -3.7803609011033683e+02 0.0000000000000000e+00 -3.7803609011033626e+02 -1.3900716773389948e+02 0.0000000000000000e+00 0.0000000000000000e+00 0.0000000000000000e+00 0.0000000000000000e+00  2.2361100318826411e+02 -1.7170200210882516e+02 0.0000000000000000e+00 -1.7170200210882442e+02 2.3332491027743927e+02 0.0000000000000000e+00 0.0000000000000000e+00 0.0000000000000000e+00 0.0000000000000000e+00  1.3319221693763619e-01 1.3867057829520602e-01 0.0000000000000000e+00 1.3867057829520982e-01 6.3129893020120389e+03 0.0000000000000000e+00 0.0000000000000000e+00 0.0000000000000000e+00 0.0000000000000000e+00  1.8621399007122509e+03 7.5311338166445375e+02 0.0000000000000000e+00 7.5311338166445466e+02 6.6186507815809864e+03 0.0000000000000000e+00 0.0000000000000000e+00 0.0000000000000000e+00 0.0000000000000000e+00  9.6111419193143752e+02 7.5790377953371353e+02 0.0000000000000000e+00 7.5790377953371490e+02 6.7497079356554832e+02 0.0000000000000000e+00 0.0000000000000000e+00 0.0000000000000000e+00 0.0000000000000000e+00  3.3474176789422781e+03 3.9810975821317879e+03 0.0000000000000000e+00 3.9810975821317879e+03 4.6853708943570009e+03 0.0000000000000000e+00 0.0000000000000000e+00 0.0000000000000000e+00 0.0000000000000000e+00  3.2291777142791930e+03 4.4490138826577995e+03 0.0000000000000000e+00 4.4490138826577977e+03 1.2801269725344795e+04 0.0000000000000000e+00 0.0000000000000000e+00 0.0000000000000000e+00 0.0000000000000000e+00  3.2049066354975544e+03 -4.4241830309883444e+03 0.0000000000000000e+00 -4.4241830309883426e+03 1.2759555090542133e+04 0.0000000000000000e+00 0.0000000000000000e+00 0.0000000000000000e+00 0.0000000000000000e+00  3.3403840196371534e+03 -3.9151006865186278e+03 0.0000000000000000e+00 -3.9151006865186291e+03 5.0022380211324671e+03 0.0000000000000000e+00 0.0000000000000000e+00 0.0000000000000000e+00 0.0000000000000000e+00  9.2304020996510417e+02 -8.5782974124684836e+02 0.0000000000000000e+00 -8.5782974124685200e+02 6.2061515677416571e+02 0.0000000000000000e+00 0.0000000000000000e+00 0.0000000000000000e+00 0.0000000000000000e+00  1.2806894321127232e-01 -2.3361615984828060e-01 0.0000000000000000e+00 -2.3361615984828180e-01 6.3044794822247977e+03 0.0000000000000000e+00 0.0000000000000000e+00 0.0000000000000000e+00 0.0000000000000000e+00  -5.7508431974197263e-02 -8.2538506327224714e-01 0.0000000000000000e+00 -8.2538506327224115e-01 6.2992559422752774e+03 0.0000000000000000e+00 0.0000000000000000e+00 0.0000000000000000e+00 0.0000000000000000e+00  5.9912307960586031e-01 -9.7597101029455202e-01 0.0000000000000000e+00 -9.7597101029455058e-01 6.2909378373461177e+03 0.0000000000000000e+00 0.0000000000000000e+00 0.0000000000000000e+00 0.0000000000000000e+00  -4.3362182542998035e-01 -6.9650980017788333e-01 0.0000000000000000e+00 -6.9650980017788078e-01 6.2780813346715267e+03 0.0000000000000000e+00 0.0000000000000000e+00 0.0000000000000000e+00 0.0000000000000000e+00  4.2355431366627572e-01 -1.2242770685932536e+00 0.0000000000000000e+00 -1.2242770685932622e+00 6.2603198381088177e+03 0.0000000000000000e+00 0.0000000000000000e+00 0.0000000000000000e+00 0.0000000000000000e+00  1.0935792938006155e+00 -2.7463043801122522e+00 0.0000000000000000e+00 -2.7463043801122704e+00 6.2416773526628913e+03 0.0000000000000000e+00 0.0000000000000000e+00 0.0000000000000000e+00 0.0000000000000000e+00  -1.2776211315721700e-02 -2.1224672762251546e+00 0.0000000000000000e+00 -2.1224672762251604e+00 6.2092343920587964e+03 0.0000000000000000e+00 0.0000000000000000e+00 0.0000000000000000e+00 0.0000000000000000e+00  -3.6575136305733164e-01 -2.7295537084202151e+00 0.0000000000000000e+00 -2.7295537084202088e+00 6.1776585131647307e+03 0.0000000000000000e+00 0.0000000000000000e+00 0.0000000000000000e+00 0.0000000000000000e+00  1.8271015867476521e+00 -4.1994768880021081e+00 0.0000000000000000e+00 -4.1994768880020485e+00 6.1384070669972471e+03 0.0000000000000000e+00 0.0000000000000000e+00 0.0000000000000000e+00 0.0000000000000000e+00  1.2117117857928843e+00 -5.8115265425382052e+00 0.0000000000000000e+00 -5.8115265425382638e+00 6.0903276804031002e+03 0.0000000000000000e+00 0.0000000000000000e+00 0.0000000000000000e+00 0.0000000000000000e+00  1.7934983375376652e+00 -7.3678724501024400e+00 0.0000000000000000e+00 -7.3678724501024586e+00 6.0084763697939024e+03 0.0000000000000000e+00 0.0000000000000000e+00 0.0000000000000000e+00 0.0000000000000000e+00  1.0468335787824818e+00 -1.1877763595807995e+01 0.0000000000000000e+00 -1.1877763595808000e+01 5.9528239223367746e+03 0.0000000000000000e+00 0.0000000000000000e+00 0.0000000000000000e+00 0.0000000000000000e+00  1.0044799974651157e+00 -8.8546540107369989e+00 0.0000000000000000e+00 -8.8546540107371285e+00 5.8295315236666120e+03 0.0000000000000000e+00 0.0000000000000000e+00 0.0000000000000000e+00 0.0000000000000000e+00  3.6468765942882791e-01 -1.1234562481248830e+01 0.0000000000000000e+00 -1.1234562481248908e+01 5.7101040823988724e+03 0.0000000000000000e+00 0.0000000000000000e+00 0.0000000000000000e+00 0.0000000000000000e+00  1.1944380072723837e+01 -8.0527124568609683e+00 0.0000000000000000e+00 -8.0527124568609363e+00 5.5281857489090644e+03 0.0000000000000000e+00 0.0000000000000000e+00 0.0000000000000000e+00 0.0000000000000000e+00  -1.1290097605617499e+01 -1.2573465350133896e+01 0.0000000000000000e+00 -1.2573465350133761e+01 5.2927428476776504e+03 0.0000000000000000e+00 0.0000000000000000e+00 0.0000000000000000e+00 0.0000000000000000e+00  3.6313477340841906e+01 -5.1722041927915328e+01 0.0000000000000000e+00 -5.1722041927915221e+01 4.9273126938493715e+03 0.0000000000000000e+00 0.0000000000000000e+00 0.0000000000000000e+00 0.0000000000000000e+00  -1.8646794794605789e+01 -2.4191624948789119e+01 0.0000000000000000e+00 -2.4191624948789499e+01 4.4426700646301997e+03 0.0000000000000000e+00 0.0000000000000000e+00 0.0000000000000000e+00 0.0000000000000000e+00  2.8757012875459001e+01 -1.5086786244841670e+02 0.0000000000000000e+00 -1.5086786244841679e+02 3.6229011363664276e+03 0.0000000000000000e+00 0.0000000000000000e+00 0.0000000000000000e+00 0.0000000000000000e+00  -3.9254189024156751e+01 -1.6687295709385708e+02 0.0000000000000000e+00 -1.6687295709385526e+02 2.4547486553452259e+03 0.0000000000000000e+00 0.0000000000000000e+00 0.0000000000000000e+00 0.0000000000000000e+00  1.8065849243544150e+02 -1.7944203985708950e+02 0.0000000000000000e+00 -1.7944203985708998e+02 8.5224384281899370e+02 0.0000000000000000e+00 0.0000000000000000e+00 0.0000000000000000e+00 0.0000000000000000e+00  -5.4127978225827169e+00 3.1594913038670652e-01 0.0000000000000000e+00 3.1594913038669714e-01 6.1268749254205804e+03 0.0000000000000000e+00 0.0000000000000000e+00 0.0000000000000000e+00 0.0000000000000000e+00  -2.7028117044736913e+01 -5.5382567587112144e-02 0.0000000000000000e+00 -5.5382567587088989e-02 6.1689113706289536e+03 0.0000000000000000e+00 0.0000000000000000e+00 0.0000000000000000e+00 0.0000000000000000e+00  -5.9948065600273431e+01 1.6924926336193864e+00 0.0000000000000000e+00 1.6924926336193744e+00 6.2329712711425045e+03 0.0000000000000000e+00 0.0000000000000000e+00 0.0000000000000000e+00 0.0000000000000000e+00  -9.8209276332604048e+01 1.2402048998587095e-01 0.0000000000000000e+00 1.2402048998585265e-01 6.3057327723461212e+03 0.0000000000000000e+00 0.0000000000000000e+00 0.0000000000000000e+00 0.0000000000000000e+00  -1.3211351998200382e+02 2.1628277141223617e+00 0.0000000000000000e+00 2.1628277141223546e+00 6.3938437409630696e+03 0.0000000000000000e+00 0.0000000000000000e+00 0.0000000000000000e+00 0.0000000000000000e+00  -1.6687497004870374e+02 -1.5258728621351353e-01 0.0000000000000000e+00 -1.5258728621350312e-01 6.4800664564839926e+03 0.0000000000000000e+00 0.0000000000000000e+00 0.0000000000000000e+00 0.0000000000000000e+00  -2.0032236896805026e+02 1.1701386611697959e-01 0.0000000000000000e+00 1.1701386611699484e-01 6.5547419365514415e+03 0.0000000000000000e+00 0.0000000000000000e+00 0.0000000000000000e+00 0.0000000000000000e+00  -2.1752436551634426e+02 -5.2875600668041811e-01 0.0000000000000000e+00 -5.2875600668042622e-01 6.6347515440757788e+03 0.0000000000000000e+00 0.0000000000000000e+00 0.0000000000000000e+00 0.0000000000000000e+00  -2.3378171366976315e+02 2.2893944671554464e-01 0.0000000000000000e+00 2.2893944671555103e-01 6.6860636060776424e+03 0.0000000000000000e+00 0.0000000000000000e+00 0.0000000000000000e+00 0.0000000000000000e+00  -2.4365211377921068e+02 -7.0329394281041546e-01 0.0000000000000000e+00 -7.0329394281041469e-01 6.7363885366509458e+03 0.0000000000000000e+00 0.0000000000000000e+00 0.0000000000000000e+00 0.0000000000000000e+00  -2.4541621069861841e+02 -4.9035042794238859e-01 0.0000000000000000e+00 -4.9035042794238898e-01 6.7740877677739481e+03 0.0000000000000000e+00 0.0000000000000000e+00 0.0000000000000000e+00 0.0000000000000000e+00  -2.4298217373976470e+02 -1.0900530855795856e+00 0.0000000000000000e+00 -1.0900530855795847e+00 6.8001581212693436e+03 0.0000000000000000e+00 0.0000000000000000e+00 0.0000000000000000e+00 0.0000000000000000e+00  -2.3717212717379184e+02 -6.4429549786728668e-01 0.0000000000000000e+00 -6.4429549786728812e-01 6.8185920543271213e+03 0.0000000000000000e+00 0.0000000000000000e+00 0.0000000000000000e+00 0.0000000000000000e+00  -2.2966286013189730e+02 -3.7881792187910784e-01 0.0000000000000000e+00 -3.7881792187911367e-01 6.8301412837619446e+03 0.0000000000000000e+00 0.0000000000000000e+00 0.0000000000000000e+00 0.0000000000000000e+00  -2.2004106424992978e+02 -5.3580685617635582e-01 0.0000000000000000e+00 -5.3580685617635260e-01 6.8349630715280846e+03 0.0000000000000000e+00 0.0000000000000000e+00 0.0000000000000000e+00 0.0000000000000000e+00  -2.1009869759433136e+02 -6.8692728085929133e-01 0.0000000000000000e+00 -6.8692728085929333e-01 6.8353163681675605e+03 0.0000000000000000e+00 0.0000000000000000e+00 0.0000000000000000e+00 0.0000000000000000e+00  -2.0059223477104982e+02 -3.4051462341984162e-01 0.0000000000000000e+00 -3.4051462341983679e-01 6.8311518898926724e+03 0.0000000000000000e+00 0.0000000000000000e+00 0.0000000000000000e+00 0.0000000000000000e+00  -1.9119359918489081e+02 -4.4899300068134729e-01 0.0000000000000000e+00 -4.4899300068135167e-01 6.8244417211399041e+03 0.0000000000000000e+00 0.0000000000000000e+00 0.0000000000000000e+00 0.0000000000000000e+00  -1.8263543427139209e+02 -2.1230966410480215e-01 0.0000000000000000e+00 -2.1230966410480651e-01 6.8149632362122211e+03 0.0000000000000000e+00 0.0000000000000000e+00 0.0000000000000000e+00 0.0000000000000000e+00  -1.7455634236649894e+02 -1.9526505563993599e-01 0.0000000000000000e+00 -1.9526505563994004e-01 6.8028791497898510e+03 0.0000000000000000e+00 0.0000000000000000e+00 0.0000000000000000e+00 0.0000000000000000e+00  -1.6739552501219174e+02 -9.4844622860284250e-02 0.0000000000000000e+00 -9.4844622860283223e-02 6.7890265550203412e+03 0.0000000000000000e+00 0.0000000000000000e+00 0.0000000000000000e+00 0.0000000000000000e+00  -1.6035032795089751e+02 -4.7106504627190883e-02 0.0000000000000000e+00 -4.7106504627185727e-02 6.7734808207922297e+03 0.0000000000000000e+00 0.0000000000000000e+00 0.0000000000000000e+00 0.0000000000000000e+00  -1.5418833660197586e+02 -2.5099657063086561e-02 0.0000000000000000e+00 -2.5099657063080951e-02 6.7555682155781578e+03 0.0000000000000000e+00 0.0000000000000000e+00 0.0000000000000000e+00 0.0000000000000000e+00  -1.4740226034305525e+02 -2.2935954418840103e-02 0.0000000000000000e+00 -2.2935954418842459e-02 6.7358954946336135e+03 0.0000000000000000e+00 0.0000000000000000e+00 0.0000000000000000e+00 0.0000000000000000e+00  -1.4120107161894384e+02 -8.3769907846524896e-02 0.0000000000000000e+00 -8.3769907846530461e-02 6.7143573541425585e+03 0.0000000000000000e+00 0.0000000000000000e+00 0.0000000000000000e+00 0.0000000000000000e+00  -1.3396468151922835e+02 1.2740318945225779e-01 0.0000000000000000e+00 1.2740318945226747e-01 6.6907049088525437e+03 0.0000000000000000e+00 0.0000000000000000e+00 0.0000000000000000e+00 0.0000000000000000e+00  -1.2626248281826690e+02 -7.3720365847546196e-02 0.0000000000000000e+00 -7.3720365847535926e-02 6.6641554701866962e+03 0.0000000000000000e+00 0.0000000000000000e+00 0.0000000000000000e+00 0.0000000000000000e+00  -1.1788594051377761e+02 1.5996186074349303e-01 0.0000000000000000e+00 1.5996186074349644e-01 6.6361298603855894e+03 0.0000000000000000e+00 0.0000000000000000e+00 0.0000000000000000e+00 0.0000000000000000e+00  -1.0818183810733174e+02 1.7064934230652193e-01 0.0000000000000000e+00 1.7064934230651274e-01 6.6066217356112038e+03 0.0000000000000000e+00 0.0000000000000000e+00 0.0000000000000000e+00 0.0000000000000000e+00  -9.8031080341261898e+01 3.5720175870522494e-02 0.0000000000000000e+00 3.5720175870522904e-02 6.5735964488477648e+03 0.0000000000000000e+00 0.0000000000000000e+00 0.0000000000000000e+00 0.0000000000000000e+00  -8.6073474875479775e+01 -1.4442587568766568e-01 0.0000000000000000e+00 -1.4442587568767140e-01 6.5411068252901405e+03 0.0000000000000000e+00 0.0000000000000000e+00 0.0000000000000000e+00 0.0000000000000000e+00  -7.4474373065601071e+01 -1.7482837201725909e-01 0.0000000000000000e+00 -1.7482837201725501e-01 6.5057344798227359e+03 0.0000000000000000e+00 0.0000000000000000e+00 0.0000000000000000e+00 0.0000000000000000e+00  -6.0964116069677999e+01 -3.7279405920019354e-02 0.0000000000000000e+00 -3.7279405920042384e-02 6.4714635150538488e+03 0.0000000000000000e+00 0.0000000000000000e+00 0.0000000000000000e+00 0.0000000000000000e+00  -4.8096632665804862e+01 -2.6509704079495977e-01 0.0000000000000000e+00 -2.6509704079496271e-01 6.4391372282783295e+03 0.0000000000000000e+00 0.0000000000000000e+00 0.0000000000000000e+00 0.0000000000000000e+00  -3.5281606406853918e+01 -7.5560657104108378e-02 0.0000000000000000e+00 -7.5560657104105006e-02 6.4072759592309203e+03 0.0000000000000000e+00 0.0000000000000000e+00 0.0000000000000000e+00 0.0000000000000000e+00  -2.3812365731739426e+01 -5.4732769331350385e-02 0.0000000000000000e+00 -5.4732769331349580e-02 6.3769292422883773e+03 0.0000000000000000e+00 0.0000000000000000e+00 0.0000000000000000e+00 0.0000000000000000e+00  -1.3923978137478946e+01 -1.0453159412915540e-01 0.0000000000000000e+00 -1.0453159412915354e-01 6.3514901197382096e+03 0.0000000000000000e+00 0.0000000000000000e+00 0.0000000000000000e+00 0.0000000000000000e+00  -6.3145040831855148e+00 9.9528909340375935e-02 0.0000000000000000e+00 9.9528909340380903e-02 6.3303502685906296e+03 0.0000000000000000e+00 0.0000000000000000e+00 0.0000000000000000e+00 0.0000000000000000e+00  -8.7134123670438235e-01 1.8297173445017623e-01 0.0000000000000000e+00 1.8297173445017417e-01 6.3153839381485841e+03 0.0000000000000000e+00 0.0000000000000000e+00 0.0000000000000000e+00 0.0000000000000000e+00  1.1119768464634694e+02 -8.3002929549712090e-01 0.0000000000000000e+00 -8.3002929549699711e-01 5.7193149198960054e+02 0.0000000000000000e+00 0.0000000000000000e+00 0.0000000000000000e+00 0.0000000000000000e+00  1.7473225630984177e+02 1.7070224148364179e+02 0.0000000000000000e+00 1.7070224148364207e+02 2.6346979747807472e+03 0.0000000000000000e+00 0.0000000000000000e+00 0.0000000000000000e+00 0.0000000000000000e+00  -8.4288377859300297e+01 5.0263082444362857e+00 0.0000000000000000e+00 5.0263082444360281e+00 3.6240381399193493e+03 0.0000000000000000e+00 0.0000000000000000e+00 0.0000000000000000e+00 0.0000000000000000e+00  9.4978820340736348e+01 8.4171957606314280e+01 0.0000000000000000e+00 8.4171957606315075e+01 4.5793281018044527e+03 0.0000000000000000e+00 0.0000000000000000e+00 0.0000000000000000e+00 0.0000000000000000e+00  -3.3179344532869059e+01 -2.2035081316159012e+01 0.0000000000000000e+00 -2.2035081316158703e+01 4.9717448254630362e+03 0.0000000000000000e+00 0.0000000000000000e+00 0.0000000000000000e+00 0.0000000000000000e+00  3.8865651095942503e+01 3.7787318662529088e+01 0.0000000000000000e+00 3.7787318662529174e+01 5.3761040978554138e+03 0.0000000000000000e+00 0.0000000000000000e+00 0.0000000000000000e+00 0.0000000000000000e+00  -1.0738198307798731e+01 9.9930925358998444e+00 0.0000000000000000e+00 9.9930925358998568e+00 5.5935645115508187e+03 0.0000000000000000e+00 0.0000000000000000e+00 0.0000000000000000e+00 0.0000000000000000e+00  7.4047640350389106e+00 1.7866677428007318e+01 0.0000000000000000e+00 1.7866677428007325e+01 5.7444190456075285e+03 0.0000000000000000e+00 0.0000000000000000e+00 0.0000000000000000e+00 0.0000000000000000e+00  2.3381732300795020e+00 9.0647551256702616e+00 0.0000000000000000e+00 9.0647551256702990e+00 5.8924733965032283e+03 0.0000000000000000e+00 0.0000000000000000e+00 0.0000000000000000e+00 0.0000000000000000e+00  3.9708006330960082e+00 6.3057175538136727e+00 0.0000000000000000e+00 6.3057175538136647e+00 5.9746181477915234e+03 0.0000000000000000e+00 0.0000000000000000e+00 0.0000000000000000e+00 0.0000000000000000e+00  -2.2693356883089937e+00 7.1397542727895769e-01 0.0000000000000000e+00 7.1397542727896690e-01 6.0441860992094862e+03 0.0000000000000000e+00 0.0000000000000000e+00 0.0000000000000000e+00 0.0000000000000000e+00  3.8289819943641326e+00 3.1968649711723152e+00 0.0000000000000000e+00 3.1968649711723325e+00 6.0771124673806053e+03 0.0000000000000000e+00 0.0000000000000000e+00 0.0000000000000000e+00 0.0000000000000000e+00  -1.1503505957625979e+00 5.5561023057884018e-01 0.0000000000000000e+00 5.5561023057884018e-01 6.1092196165705082e+03 0.0000000000000000e+00 0.0000000000000000e+00 0.0000000000000000e+00 0.0000000000000000e+00  1.3217784487707249e+03 9.1499187913786875e+02 0.0000000000000000e+00 9.1499187913787080e+02 6.4251064636507999e+02 0.0000000000000000e+00 0.0000000000000000e+00 0.0000000000000000e+00 0.0000000000000000e+00  3.6317988457518022e+03 5.3138887928689110e+03 0.0000000000000000e+00 5.3138887928689073e+03 8.1954658436252848e+03 0.0000000000000000e+00 0.0000000000000000e+00 0.0000000000000000e+00 0.0000000000000000e+00  2.9523784763881486e+03 2.9149532736651176e+03 0.0000000000000000e+00 2.9149532736651167e+03 1.4748416211717386e+04 0.0000000000000000e+00 0.0000000000000000e+00 0.0000000000000000e+00 0.0000000000000000e+00  3.1793194719305029e+03 -2.4208573639330925e+03 0.0000000000000000e+00 -2.4208573639330943e+03 1.5272401227184781e+04 0.0000000000000000e+00 0.0000000000000000e+00 0.0000000000000000e+00 0.0000000000000000e+00  2.3469001171526993e+03 -4.9984607385914933e+03 0.0000000000000000e+00 -4.9984607385914906e+03 7.8616373352416476e+03 0.0000000000000000e+00 0.0000000000000000e+00 0.0000000000000000e+00 0.0000000000000000e+00  1.5230482812387127e+03 -1.3166121704916254e+03 0.0000000000000000e+00 -1.3166121704916234e+03 9.7516929513762318e+02 0.0000000000000000e+00 0.0000000000000000e+00 0.0000000000000000e+00 0.0000000000000000e+00  5.8526500559575478e-02 -3.1464127565547767e-01 0.0000000000000000e+00 -3.1464127565547867e-01 6.3118184594950917e+03 0.0000000000000000e+00 0.000000000000000