<?xml version="1.0"?>
<VTKFile type="UnstructuredGrid"  version="0.1"  >
<UnstructuredGrid>
<Piece  NumberOfPoints="2165" NumberOfCells="4161">
<Points>
<DataArray  type="Float64"  NumberOfComponents="3"  format="ascii">-3.598637933768527e-16 0.3500000000000001 0  0.05 0.4 0  -3.537405593811159e-16 0.45 0  0 1 0  1 1 0  0.9999999999999997 0.65 0  0.9999999999999997 0.5499999999999999 0  1 0 0  0 0 0  0.0191341716182545 0.3538060233744357 0  0.03535533905932737 0.3646446609406727 0  0.04619397662556433 0.3808658283817455 0  0.04619397662556434 0.4191341716182545 0  0.03535533905932738 0.4353553390593274 0  0.01913417161825449 0.4461939766255644 0  0 0.975 0  0 0.95 0  0 0.9249999999999999 0  0 0.8999999999999998 0  0 0.8749999999999998 0  0 0.8499999999999998 0  0 0.8249999999999997 0  0 0.7999999999999996 0  0 0.7749999999999996 0  0 0.7499999999999996 0  0 0.7249999999999996 0  0 0.6999999999999997 0  0 0.6749999999999998 0  0 0.6499999999999999 0  0 0.6249999999999999 0  0 0.6 0  0 0.575 0  0 0.5499999999999998 0  0 0.5249999999999999 0  0 0.4999999999999998 0  0 0.4749999999999999 0  0.975 1 0  0.95 1 0  0.925 1 0  0.9 1 0  0.875 1 0  0.85 1 0  0.825 1 0  0.8 1 0  0.775 1 0  0.75 1 0  0.725 1 0  0.7 1 0  0.675 1 0  0.65 1 0  0.625 1 0  0.6 1 0  0.575 1 0  0.55 1 0  0.525 1 0  0.5 1 0  0.475 1 0  0.45 1 0  0.425 1 0  0.4 1 0  0.375 1 0  0.35 1 0  0.325 1 0  0.3 1 0  0.275 1 0  0.25 1 0  0.225 1 0  0.2 1 0  0.175 1 0  0.15 1 0  0.125 1 0  0.09999999999999998 1 0  0.07499999999999996 1 0  0.05000000000000004 1 0  0.02500000000000002 1 0  1 0.675 0  1 0.7000000000000001 0  1 0.7250000000000001 0  1 0.7500000000000001 0  1 0.7750000000000001 0  1 0.8000000000000002 0  1 0.8250000000000002 0  1 0.8500000000000002 0  1 0.8750000000000003 0  1 0.9000000000000001 0  1 0.9250000000000002 0  1 0.9500000000000001 0  1 0.9750000000000001 0  0.9783058130441221 0.6450484433951209 0  0.9609084258765985 0.6311744900929367 0  0.9512536043909088 0.6111260466978157 0  0.9512536043909088 0.5888739533021843 0  0.9609084258765985 0.5688255099070633 0  0.9783058130441221 0.554951556604879 0  1 0.02500000000000002 0  1 0.05000000000000004 0  1 0.07500000000000008 0  1 0.1000000000000001 0  1 0.1250000000000001 0  1 0.1500000000000002 0  1 0.1750000000000002 0  1 0.2000000000000003 0  1 0.2250000000000003 0  1 0.2500000000000004 0  1 0.2750000000000004 0  1 0.3000000000000003 0  1 0.3250000000000002 0  1 0.3500000000000001 0  1 0.3750000000000001 0  1 0.3999999999999999 0  1 0.425 0  1 0.45 0  1 0.475 0  1 0.5000000000000001 0  1 0.5249999999999999 0  0.025 0 0  0.05 0 0  0.075 0 0  0.1 0 0  0.125 0 0  0.15 0 0  0.175 0 0  0.2 0 0  0.225 0 0  0.25 0 0  0.275 0 0  0.3 0 0  0.325 0 0  0.35 0 0  0.375 0 0  0.4 0 0  0.425 0 0  0.45 0 0  0.475 0 0  0.5 0 0  0.525 0 0  0.55 0 0  0.575 0 0  0.6 0 0  0.625 0 0  0.65 0 0  0.675 0 0  0.7 0 0  0.725 0 0  0.75 0 0  0.775 0 0  0.8 0 0  0.825 0 0  0.85 0 0  0.875 0 0  0.9 0 0  0.925 0 0  0.95 0 0  0.975 0 0  0 0.3250000000000001 0  0 0.3 0  0 0.275 0  0 0.2499999999999999 0  0 0.2249999999999999 0  0 0.1999999999999998 0  0 0.1749999999999998 0  0 0.1499999999999998 0  0 0.1249999999999998 0  0 0.09999999999999987 0  0 0.07499999999999984 0  0 0.04999999999999993 0  0 0.02500000000000002 0  0.06453325334544308 0.4134708543086404 0  0.5146839915088474 0.02134387884913819 0  0.4875871001393628 0.9784117024331356 0  0.9386300160094723 0.5701776715936071 0  0.0216506350946109 0.6124999999999999 0  0.9764205887290853 0.3596067946540696 0  0.3876261045932067 0.02156097490657183 0  0.6125 0.978349364905389 0  0.3612127461797463 0.9792371404802113 0  0.6374786650398092 0.02079982608537345 0  0.9387185538472446 0.6295115890709873 0  0.05482260092545593 0.3633687091864355 0  0.02445354803948679 0.7343198207875321 0  0.2624888813627476 0.02091671348578122 0  0.7375212991274043 0.9794996488945376 0  0.9793010831723812 0.2648509348664836 0  0.2625026480689301 0.9795699185263282 0  0.7362840788105066 0.02225211062275217 0  0.02159327910297104 0.2128861809896528 0  0.9786837570973538 0.7867241244631172 0  0.02419728000065929 0.8365600234152764 0  0.980043283615984 0.1624097203408714 0  0.1645857434226354 0.0205513501962844 0  0.8339481359352011 0.9784483546369231 0  0.1637584777222821 0.9774556328160621 0  0.8374916614314967 0.02165097219510076 0  0.02171915379676059 0.5370700005916152 0  0.9795335762511281 0.4365726939225819 0  0.02319480745007968 0.1370197632171214 0  0.9774462976085161 0.8592616917551974 0  0.9786941241076723 0.7122511101067891 0  0.9797883857882621 0.08781864217752949 0  0.01966314788989931 0.9125801876811624 0  0.02051815350151098 0.2882126194470174 0  0.09063226699593246 0.0214884092697174 0  0.9124408843562394 0.9818463395009377 0  0.03872465516591678 0.452731089005145 0  0.08969424365256845 0.978412979507602 0  0.9124999999999999 0.02165063509461096 0  0.02158104789437187 0.6619299176372371 0  0.9796602354625652 0.4859004208706154 0  0.3127517983598529 0.02417963694738812 0  0.4375629605000894 0.02158039900821679 0  0.5643674594196073 0.01968996000301126 0  0.5368361594956101 0.9790428840407062 0  0.4376176251051295 0.9783667484208922 0  0.6874072695660477 0.978435143102373 0  0.310604317388614 0.979558305560928 0  0.2125577044121564 0.02066685543111635 0  0.6875 0.0216506350946109 0  0.02224009810917643 0.08811420611559456 0  0.790876428529276 0.978633065284896 0  0.2125 0.978349364905389 0  0.9788033534786624 0.2116925349935155 0  0.9769441169344462 0.3150381335760689 0  0.9804648376981185 0.9123186437266726 0  0.7874999988222203 0.02127957051165741 0  0.02109233852270731 0.786866823287435 0  0.9483709287873718 0.5504073206521916 0  0.9259842326464427 0.5519702047534598 0  0.9163209045278007 0.5719292915927929 0  0.9035374059862284 0.5537291796040291 0  0.8938951918780048 0.5738949757882954 0  0.8807940177559743 0.5546750869516996 0  0.8712661812741653 0.5757142549099102 0  0.8580668865514332 0.5563902430113601 0  0.848508161986991 0.5779004013072002 0  0.8354274200119249 0.5591176379057713 0  0.8256349826905482 0.5800610629400762 0  0.8124123591208572 0.5604454546391737 0  0.802603410938817 0.5819653950592523 0  0.7892876429890218 0.562234610648543 0  0.7794355871850538 0.583896242519796 0  0.7661469824381839 0.5648243426306435 0  0.7562387679604726 0.5860005456930413 0  0.7429651600512166 0.5669367633461588 0  0.7330846968880171 0.5879590907760761 0  0.7198577999459205 0.5688986880627463 0  0.7297050500533544 0.5479561801187277 0  0.7066243396993471 0.5499068108517552 0  0.6968285086900206 0.5707989520567972 0  0.6836266810714333 0.5519088927359967 0  0.6738604685766018 0.5727655091567184 0  0.6607284761452521 0.5538781923028128 0  0.6697149783704412 0.5321140554135094 0  0.6473436039782401 0.5350050604671006 0  0.6378867365666199 0.5557804038095817 0  0.6246915360243652 0.5362124690568238 0  0.6151175309583405 0.5575933164645619 0  0.6019784180102355 0.5380659376543677 0  0.5924099113505394 0.5593739656462906 0  0.5794110962027638 0.541110021814312 0  0.5697985396917309 0.5614600003719357 0  0.5568468707330213 0.5433212932327446 0  0.5472634011377896 0.5635652141280936 0  0.5343236363495072 0.5451361960661517 0  0.5247877773262166 0.565493591892781 0  0.5118927934227436 0.5470665328397559 0  0.5023398230005425 0.5674381114577953 0  0.5213991904098014 0.5267047787870831 0  0.4990390504096661 0.528649139287786 0  0.6328887517229864 0.5131744321062524 0  0.5085133205790763 0.5083322037773296 0  0.4861972978925295 0.5102540920324363 0  0.4956914791804768 0.4899605513008993 0  0.4734139980312694 0.4918582759645476 0  0.4826986629698439 0.4717164019717278 0  0.460570567761715 0.473509155475794 0  0.4699344541058981 0.4533140529328089 0  0.4477087341565655 0.4550973130597117 0  0.4381733274019614 0.4752901381741884 0  0.4570222843287571 0.4349938694701042 0  0.4348599018247688 0.436728068420533 0  0.5604623134382263 0.581815997002507 0  0.4443612964408632 0.416499823314016 0  0.422056299386984 0.4183730429856528 0  0.4688721528228815 0.4135009841763965 0  0.4315584877924544 0.398120546824229 0  0.4092288692044618 0.3999974286008185 0  0.7463210599443056 0.6070829843371945 0  0.4187270626688335 0.3797365044773463 0  0.3964262302393312 0.3817184136470017 0  0.3869780036193907 0.4018498778543814 0  0.3742423843122406 0.3837055716372927 0  0.3648701490102072 0.4037049758807119 0  0.3518115403926748 0.3858985036587403 0  0.3426146276710081 0.4056777495658291 0  0.3614541441355358 0.3656396497906528 0  0.339026673715919 0.3678724679736439 0  0.3485566370135618 0.3476560889674916 0  0.3264681821394378 0.3496422822523857 0  0.8219942777991693 0.5379143061758643 0  0.3358297439968608 0.3295117748868035 0  0.3137050884585635 0.3314921667582986 0  0.3229980644152205 0.3113561769498422 0  0.3007986024336577 0.3133063832007756 0  0.3441851868720173 0.3085211458266175 0  0.3101966551534752 0.2930273704914169 0  0.287793053707373 0.2950088132226583 0  0.2914417217227097 0.3337427541189321 0  0.2975120686695638 0.2743682539701985 0  0.274864585256681 0.2764253296978281 0  0.816026571618698 0.6006851919544112 0  0.2844672854128698 0.2557011565880619 0  0.2617267434509338 0.2577713002235077 0  0.3072711221189672 0.2536790056475094 0  0.2521588568690318 0.2785072139143895 0  0.2389277409161178 0.2598761196336353 0  0.248448076747058 0.2389478879785275 0  0.5053822153261678 0.4716915524631118 0  0.229548765875869 0.2806542761043101 0  0.2254561407802683 0.2411354049374563 0  0.2350621310805047 0.2199181955146378 0  0.2117782450160163 0.222165061041625 0  0.2214249125635323 0.2008136877065064 0  0.2448758256083499 0.1985732693215908 0  0.197966291680556 0.2031211006951591 0  0.1883147493074436 0.2245564097761413 0  0.8910637266939049 0.5322898364209732 0  0.1748136087708587 0.2051141748992724 0  0.1842088801696792 0.1837087814679069 0  0.1656574100807746 0.2269812054689968 0  0.3554582346764377 0.4236292557112198 0  0.3328979939923831 0.425459320867588 0  0.3460368767112177 0.4435398346083328 0  0.3238464003
[...]
<PointData  Tensors="$\sigma$"> 
<DataArray  type="Float64"  Name="$\sigma$"  NumberOfComponents="9" format="ascii">-6.1960515825262263e+01 -1.1968287350562628e+02 0.0000000000000000e+00 -1.1968287350562628e+02 -2.7566789282325988e+02 0.0000000000000000e+00 0.0000000000000000e+00 0.0000000000000000e+00 0.0000000000000000e+00  4.6388049351532794e+02 7.2720903349001889e+00 0.0000000000000000e+00 7.2720903349002288e+00 5.8946602882918587e+03 0.0000000000000000e+00 0.0000000000000000e+00 0.0000000000000000e+00 0.0000000000000000e+00  -4.9905863096146611e+01 1.3792177896387057e+02 0.0000000000000000e+00 1.3792177896387062e+02 -2.8760356526631824e+02 0.0000000000000000e+00 0.0000000000000000e+00 0.0000000000000000e+00 0.0000000000000000e+00  1.3438557969092484e-02 2.1911543143176548e-01 0.0000000000000000e+00 2.1911543143176532e-01 1.8760085374505932e+03 0.0000000000000000e+00 0.0000000000000000e+00 0.0000000000000000e+00 0.0000000000000000e+00  6.8125744285871911e-02 -5.7467456830131623e-02 0.0000000000000000e+00 -5.7467456830131200e-02 1.8201831112704449e+03 0.0000000000000000e+00 0.0000000000000000e+00 0.0000000000000000e+00 0.0000000000000000e+00  -6.1058228901717023e+01 -1.4467124694319679e+02 0.0000000000000000e+00 -1.4467124694319668e+02 -2.9849165818911011e+01 0.0000000000000000e+00 0.0000000000000000e+00 0.0000000000000000e+00 0.0000000000000000e+00  6.6390725347738993e+01 -3.6190691068362632e+01 0.0000000000000000e+00 -3.6190691068362604e+01 4.7742622698994147e+01 0.0000000000000000e+00 0.0000000000000000e+00 0.0000000000000000e+00 0.0000000000000000e+00  -1.2494000898260539e-01 2.7110460647572575e-02 0.0000000000000000e+00 2.7110460647572561e-02 1.8769884100568008e+03 0.0000000000000000e+00 0.0000000000000000e+00 0.0000000000000000e+00 0.0000000000000000e+00  5.2535837546496293e+02 2.2198236478450360e+02 0.0000000000000000e+00 2.2198236478450363e+02 1.9629022128184979e+03 0.0000000000000000e+00 0.0000000000000000e+00 0.0000000000000000e+00 0.0000000000000000e+00  3.0032737735384063e+02 2.8780314432531446e+02 0.0000000000000000e+00 2.8780314432531446e+02 2.7669941310829989e+02 0.0000000000000000e+00 0.0000000000000000e+00 0.0000000000000000e+00 0.0000000000000000e+00  9.5067428309143293e+02 1.1580864248264581e+03 0.0000000000000000e+00 1.1580864248264581e+03 1.6775392653168540e+03 0.0000000000000000e+00 0.0000000000000000e+00 0.0000000000000000e+00 0.0000000000000000e+00  8.2642390265025813e+02 1.3700654755271578e+03 0.0000000000000000e+00 1.3700654755271576e+03 4.4824726764579500e+03 0.0000000000000000e+00 0.0000000000000000e+00 0.0000000000000000e+00 0.0000000000000000e+00  8.1592178094634926e+02 -1.3885040888660524e+03 0.0000000000000000e+00 -1.3885040888660517e+03 4.4729793623066980e+03 0.0000000000000000e+00 0.0000000000000000e+00 0.0000000000000000e+00 0.0000000000000000e+00  9.4768515256919272e+02 -1.1364584334270362e+03 0.0000000000000000e+00 -1.1364584334270364e+03 1.7704524298859458e+03 0.0000000000000000e+00 0.0000000000000000e+00 0.0000000000000000e+00 0.0000000000000000e+00  2.9051167350680799e+02 -3.0302842665511378e+02 0.0000000000000000e+00 -3.0302842665511378e+02 2.7163279022511631e+02 0.0000000000000000e+00 0.0000000000000000e+00 0.0000000000000000e+00 0.0000000000000000e+00  -1.4550178920694615e-02 -1.1449084123312833e-01 0.0000000000000000e+00 -1.1449084123312826e-01 1.8751716896739647e+03 0.0000000000000000e+00 0.0000000000000000e+00 0.0000000000000000e+00 0.0000000000000000e+00  1.9952758529350908e-02 -3.3632782532873817e-01 0.0000000000000000e+00 -3.3632782532873695e-01 1.8738383774605243e+03 0.0000000000000000e+00 0.0000000000000000e+00 0.0000000000000000e+00 0.0000000000000000e+00  9.7254660674090734e-02 -3.2552157664922804e-01 0.0000000000000000e+00 -3.2552157664922926e-01 1.8713836579207032e+03 0.0000000000000000e+00 0.0000000000000000e+00 0.0000000000000000e+00 0.0000000000000000e+00  -7.8056211088925950e-02 -3.6575221786537920e-01 0.0000000000000000e+00 -3.6575221786537787e-01 1.8676550949243276e+03 0.0000000000000000e+00 0.0000000000000000e+00 0.0000000000000000e+00 0.0000000000000000e+00  5.2869325116526006e-02 -6.1531007315725317e-01 0.0000000000000000e+00 -6.1531007315725372e-01 1.8628547873387352e+03 0.0000000000000000e+00 0.0000000000000000e+00 0.0000000000000000e+00 0.0000000000000000e+00  2.7897232772439773e-01 -1.0662486212479358e+00 0.0000000000000000e+00 -1.0662486212479383e+00 1.8575883261435993e+03 0.0000000000000000e+00 0.0000000000000000e+00 0.0000000000000000e+00 0.0000000000000000e+00  -4.0775605555566169e-02 -8.9110031322204786e-01 0.0000000000000000e+00 -8.9110031322204608e-01 1.8482672214288361e+03 0.0000000000000000e+00 0.0000000000000000e+00 0.0000000000000000e+00 0.0000000000000000e+00  5.0677463899963360e-02 -1.3578037990432958e+00 0.0000000000000000e+00 -1.3578037990432974e+00 1.8396829087973972e+03 0.0000000000000000e+00 0.0000000000000000e+00 0.0000000000000000e+00 0.0000000000000000e+00  3.0738591087794792e-01 -1.8074190518772608e+00 0.0000000000000000e+00 -1.8074190518772648e+00 1.8280954069719903e+03 0.0000000000000000e+00 0.0000000000000000e+00 0.0000000000000000e+00 0.0000000000000000e+00  4.5923939628457622e-01 -1.9588505766115849e+00 0.0000000000000000e+00 -1.9588505766115820e+00 1.8152426119605752e+03 0.0000000000000000e+00 0.0000000000000000e+00 0.0000000000000000e+00 0.0000000000000000e+00  -1.8177959626898624e-02 -2.6655887986084150e+00 0.0000000000000000e+00 -2.6655887986084075e+00 1.7910235501663353e+03 0.0000000000000000e+00 0.0000000000000000e+00 0.0000000000000000e+00 0.0000000000000000e+00  5.5581307622483908e-02 -4.3688039018163902e+00 0.0000000000000000e+00 -4.3688039018163991e+00 1.7763752971106144e+03 0.0000000000000000e+00 0.0000000000000000e+00 0.0000000000000000e+00 0.0000000000000000e+00  2.8244112651309530e-03 -3.5089785433002114e+00 0.0000000000000000e+00 -3.5089785433002101e+00 1.7407665237990529e+03 0.0000000000000000e+00 0.0000000000000000e+00 0.0000000000000000e+00 0.0000000000000000e+00  9.2065592210127700e-01 -5.3151448609141916e+00 0.0000000000000000e+00 -5.3151448609141880e+00 1.7072042486373350e+03 0.0000000000000000e+00 0.0000000000000000e+00 0.0000000000000000e+00 0.0000000000000000e+00  1.6216158603417168e+00 -3.6808943658408961e+00 0.0000000000000000e+00 -3.6808943658408970e+00 1.6539013194531840e+03 0.0000000000000000e+00 0.0000000000000000e+00 0.0000000000000000e+00 0.0000000000000000e+00  -5.1146263777194323e-01 -7.8585531569229561e+00 0.0000000000000000e+00 -7.8585531569229561e+00 1.5873106246384359e+03 0.0000000000000000e+00 0.0000000000000000e+00 0.0000000000000000e+00 0.0000000000000000e+00  4.8384809010612901e+00 -1.8904290436377295e+01 0.0000000000000000e+00 -1.8904290436377295e+01 1.4842319806680689e+03 0.0000000000000000e+00 0.0000000000000000e+00 0.0000000000000000e+00 0.0000000000000000e+00  -1.4475285292487043e+00 -1.7819779245486476e+01 0.0000000000000000e+00 -1.7819779245486476e+01 1.3353423140401151e+03 0.0000000000000000e+00 0.0000000000000000e+00 0.0000000000000000e+00 0.0000000000000000e+00  4.6762661928670495e+00 -5.2972309699700425e+01 0.0000000000000000e+00 -5.2972309699700425e+01 1.1063370616452955e+03 0.0000000000000000e+00 0.0000000000000000e+00 0.0000000000000000e+00 0.0000000000000000e+00  -2.0073838812857389e+01 -6.8324320608032693e+01 0.0000000000000000e+00 -6.8324320608032693e+01 7.4460193694870145e+02 0.0000000000000000e+00 0.0000000000000000e+00 0.0000000000000000e+00 0.0000000000000000e+00  6.0809488777125459e+01 -7.2661126780747495e+01 0.0000000000000000e+00 -7.2661126780747452e+01 2.8426451194662872e+02 0.0000000000000000e+00 0.0000000000000000e+00 0.0000000000000000e+00 0.0000000000000000e+00  -1.4482590179685042e+00 8.5296045127515013e-02 0.0000000000000000e+00 8.5296045127512418e-02 1.8243049497488721e+03 0.0000000000000000e+00 0.0000000000000000e+00 0.0000000000000000e+00 0.0000000000000000e+00  -7.7515360535208266e+00 1.4492660389133435e-01 0.0000000000000000e+00 1.4492660389133427e-01 1.8361469259681257e+03 0.0000000000000000e+00 0.0000000000000000e+00 0.0000000000000000e+00 0.0000000000000000e+00  -1.7043664356508017e+01 5.4124200093992270e-01 0.0000000000000000e+00 5.4124200093992780e-01 1.8537988179851516e+03 0.0000000000000000e+00 0.0000000000000000e+00 0.0000000000000000e+00 0.0000000000000000e+00  -2.8265672846622696e+01 3.0491619662061653e-01 0.0000000000000000e+00 3.0491619662062014e-01 1.8738682233835393e+03 0.0000000000000000e+00 0.0000000000000000e+00 0.0000000000000000e+00 0.0000000000000000e+00  -3.7526791622817804e+01 9.6041887676104687e-01 0.0000000000000000e+00 9.6041887676105164e-01 1.8994307814761496e+03 0.0000000000000000e+00 0.0000000000000000e+00 0.0000000000000000e+00 0.0000000000000000e+00  -4.7363872493962432e+01 2.7724924726728290e-02 0.0000000000000000e+00 2.7724924726726989e-02 1.9241548200463876e+03 0.0000000000000000e+00 0.0000000000000000e+00 0.0000000000000000e+00 0.0000000000000000e+00  -5.7107164140908509e+01 -6.7254816804925011e-02 0.0000000000000000e+00 -6.7254816804921680e-02 1.9448657463344050e+03 0.0000000000000000e+00 0.0000000000000000e+00 0.0000000000000000e+00 0.0000000000000000e+00  -6.1460781026634635e+01 -1.7797232936005924e-01 0.0000000000000000e+00 -1.7797232936005641e-01 1.9678775799048033e+03 0.0000000000000000e+00 0.0000000000000000e+00 0.0000000000000000e+00 0.0000000000000000e+00  -6.6187665249340100e+01 7.0712145870397591e-02 0.0000000000000000e+00 7.0712145870396995e-02 1.9820895087973267e+03 0.0000000000000000e+00 0.0000000000000000e+00 0.0000000000000000e+00 0.0000000000000000e+00  -6.9043456202881458e+01 -2.6151973307810683e-01 0.0000000000000000e+00 -2.6151973307810733e-01 1.9961387767804538e+03 0.0000000000000000e+00 0.0000000000000000e+00 0.0000000000000000e+00 0.0000000000000000e+00  -6.9496582463073594e+01 -3.4463559222581786e-01 0.0000000000000000e+00 -3.4463559222581791e-01 2.0070063678721356e+03 0.0000000000000000e+00 0.0000000000000000e+00 0.0000000000000000e+00 0.0000000000000000e+00  -6.8717670931325870e+01 -3.8731950415811861e-01 0.0000000000000000e+00 -3.8731950415811855e-01 2.0142751420626967e+03 0.0000000000000000e+00 0.0000000000000000e+00 0.0000000000000000e+00 0.0000000000000000e+00  -6.7056045868756129e+01 -2.8804558581259149e-01 0.0000000000000000e+00 -2.8804558581259165e-01 2.0195293276811267e+03 0.0000000000000000e+00 0.0000000000000000e+00 0.0000000000000000e+00 0.0000000000000000e+00  -6.4906685629131303e+01 -2.7530769215253709e-01 0.0000000000000000e+00 -2.7530769215253692e-01 2.0227663483020388e+03 0.0000000000000000e+00 0.0000000000000000e+00 0.0000000000000000e+00 0.0000000000000000e+00  -6.2150245667796725e+01 -2.7957346610894662e-01 0.0000000000000000e+00 -2.7957346610894662e-01 2.0240821654050594e+03 0.0000000000000000e+00 0.0000000000000000e+00 0.0000000000000000e+00 0.0000000000000000e+00  -5.9369946895238137e+01 -2.7387489033488549e-01 0.0000000000000000e+00 -2.7387489033488616e-01 2.0241489597788745e+03 0.0000000000000000e+00 0.0000000000000000e+00 0.0000000000000000e+00 0.0000000000000000e+00  -5.6606780589700740e+01 -2.1525563519322263e-01 0.0000000000000000e+00 -2.1525563519322288e-01 2.0230167708201625e+03 0.0000000000000000e+00 0.0000000000000000e+00 0.0000000000000000e+00 0.0000000000000000e+00  -5.3986015581732381e+01 -1.9337293810353109e-01 0.0000000000000000e+00 -1.9337293810353015e-01 2.0211043312565680e+03 0.0000000000000000e+00 0.0000000000000000e+00 0.0000000000000000e+00 0.0000000000000000e+00  -5.1514286551950853e+01 -1.3056500742005675e-01 0.0000000000000000e+00 -1.3056500742005761e-01 2.0184325712620298e+03 0.0000000000000000e+00 0.0000000000000000e+00 0.0000000000000000e+00 0.0000000000000000e+00  -4.9255778809953327e+01 -8.9966081504100764e-02 0.0000000000000000e+00 -8.9966081504098974e-02 2.0150514841406116e+03 0.0000000000000000e+00 0.0000000000000000e+00 0.0000000000000000e+00 0.0000000000000000e+00  -4.7209668417951995e+01 -5.4100203771516066e-02 0.0000000000000000e+00 -5.4100203771515899e-02 2.0111720140448024e+03 0.0000000000000000e+00 0.0000000000000000e+00 0.0000000000000000e+00 0.0000000000000000e+00  -4.5238833774987974e+01 -2.4773974869259772e-02 0.0000000000000000e+00 -2.4773974869259550e-02 2.0067559051880744e+03 0.0000000000000000e+00 0.0000000000000000e+00 0.0000000000000000e+00 0.0000000000000000e+00  -4.3474737312164478e+01 4.4493268885591273e-03 0.0000000000000000e+00 4.4493268885595280e-03 2.0017543339872623e+03 0.0000000000000000e+00 0.0000000000000000e+00 0.0000000000000000e+00 0.0000000000000000e+00  -4.1580157701435560e+01 -2.2476140110153926e-02 0.0000000000000000e+00 -2.2476140110154277e-02 1.9962045245197580e+03 0.0000000000000000e+00 0.0000000000000000e+00 0.0000000000000000e+00 0.0000000000000000e+00  -3.9802162094789246e+01 -1.7087697627309901e-02 0.0000000000000000e+00 -1.7087697627309960e-02 1.9902348798240091e+03 0.0000000000000000e+00 0.0000000000000000e+00 0.0000000000000000e+00 0.0000000000000000e+00  -3.7755398580442609e+01 2.9171700192008640e-02 0.0000000000000000e+00 2.9171700192008897e-02 1.9835091846408557e+03 0.0000000000000000e+00 0.0000000000000000e+00 0.0000000000000000e+00 0.0000000000000000e+00  -3.5599667460683548e+01 1.9547455178170407e-02 0.0000000000000000e+00 1.9547455178170171e-02 1.9760304591666456e+03 0.0000000000000000e+00 0.0000000000000000e+00 0.0000000000000000e+00 0.0000000000000000e+00  -3.3223701257513746e+01 3.0766397948110247e-02 0.0000000000000000e+00 3.0766397948109606e-02 1.9682084817608545e+03 0.0000000000000000e+00 0.0000000000000000e+00 0.0000000000000000e+00 0.0000000000000000e+00  -3.0475348439811803e+01 5.9639809487218032e-02 0.0000000000000000e+00 5.9639809487218316e-02 1.9598997613485019e+03 0.0000000000000000e+00 0.0000000000000000e+00 0.0000000000000000e+00 0.0000000000000000e+00  -2.7675414410026843e+01 1.0313532986247353e-02 0.0000000000000000e+00 1.0313532986247580e-02 1.9506386596983075e+03 0.0000000000000000e+00 0.0000000000000000e+00 0.0000000000000000e+00 0.0000000000000000e+00  -2.4229954857454743e+01 2.0741083033163341e-03 0.0000000000000000e+00 2.0741083033165380e-03 1.9415127862987761e+03 0.0000000000000000e+00 0.0000000000000000e+00 0.0000000000000000e+00 0.0000000000000000e+00  -2.1011162449057821e+01 -6.3347948539859603e-02 0.0000000000000000e+00 -6.3347948539858742e-02 1.9316142363287649e+03 0.0000000000000000e+00 0.0000000000000000e+00 0.0000000000000000e+00 0.0000000000000000e+00  -1.7196996290776895e+01 -5.4579207128326514e-02 0.0000000000000000e+00 -5.4579207128329338e-02 1.9219457180510426e+03 0.0000000000000000e+00 0.0000000000000000e+00 0.0000000000000000e+00 0.0000000000000000e+00  -1.3538501258095973e+01 -1.1147918445393348e-01 0.0000000000000000e+00 -1.1147918445393648e-01 1.9129517273774934e+03 0.0000000000000000e+00 0.0000000000000000e+00 0.0000000000000000e+00 0.0000000000000000e+00  -9.9497436795814291e+00 -3.8997832368833536e-02 0.0000000000000000e+00 -3.8997832368832641e-02 1.9040389412695715e+03 0.0000000000000000e+00 0.0000000000000000e+00 0.0000000000000000e+00 0.0000000000000000e+00  -6.6930875273728923e+00 -1.0654709697241256e-02 0.0000000000000000e+00 -1.0654709697239239e-02 1.8955522648892243e+03 0.0000000000000000e+00 0.0000000000000000e+00 0.0000000000000000e+00 0.0000000000000000e+00  -3.9329729250740524e+00 -3.3106503495672943e-02 0.0000000000000000e+00 -3.3106503495672644e-02 1.8883876626142958e+03 0.0000000000000000e+00 0.0000000000000000e+00 0.0000000000000000e+00 0.0000000000000000e+00  -1.7959030309968405e+00 1.7042409763858710e-02 0.0000000000000000e+00 1.7042409763858523e-02 1.8823604528703147e+03 0.0000000000000000e+00 0.0000000000000000e+00 0.0000000000000000e+00 0.0000000000000000e+00  -2.5941733078553425e-01 7.5441491381439948e-02 0.0000000000000000e+00 7.5441491381439491e-02 1.8783079516439075e+03 0.0000000000000000e+00 0.0000000000000000e+00 0.0000000000000000e+00 0.0000000000000000e+00  7.3621457373812945e+01 4.9936141107924087e+01 0.0000000000000000e+00 4.9936141107924030e+01 2.3540408558983165e+02 0.0000000000000000e+00 0.0000000000000000e+00 0.0000000000000000e+00 0.0000000000000000e+00  2.3177197302654804e+01 5.5473452052954606e+01 0.0000000000000000e+00 5.5473452052954642e+01 7.7868668279611734e+02 0.0000000000000000e+00 0.0000000000000000e+00 0.0000000000000000e+00 0.0000000000000000e+00  1.3345736346275818e+00 2.7613309256018702e+01 0.0000000000000000e+00 2.7613309256018717e+01 1.1199585731942434e+03 0.0000000000000000e+00 0.0000000000000000e+00 0.0000000000000000e+00 0.0000000000000000e+00  1.2036787051053924e+01 2.1494342895988623e+01 0.0000000000000000e+00 2.1494342895988673e+01 1.3656905886841821e+03 0.0000000000000000e+00 0.0000000000000000e+00 0.0000000000000000e+00 0.0000000000000000e+00  4.6763622953903217e-01 6.8924669795218119e+00 0.0000000000000000e+00 6.8924669795218474e+00 1.5043826076708524e+03 0.0000000000000000e+00 0.0000000000000000e+00 0.0000000000000000e+00 0.0000000000000000e+00  4.2775227652314856e+00 8.0435343997414765e+00 0.0000000000000000e+00 8.0435343997414819e+00 1.6026766240549757e+03 0.0000000000000000e+00 0.0000000000000000e+00 0.0000000000000000e+00 0.0000000000000000e+00  5.4124667995193089e-02 8.0217123841727567e+00 0.0000000000000000e+00 8.0217123841727638e+00 1.6761416403395162e+03 0.0000000000000000e+00 0.0000000000000000e+00 0.0000000000000000e+00 0.0000000000000000e+00  -7.3764744770074142e-01 5.9243364789357180e+00 0.0000000000000000e+00 5.9243364789356914e+00 1.7139920610068962e+03 0.0000000000000000e+00 0.0000000000000000e+00 0.0000000000000000e+00 0.0000000000000000e+00  7.0666073739698432e-01 3.7407475512611144e+00 0.0000000000000000e+00 3.7407475512611050e+00 1.7576558128631302e+03 0.0000000000000000e+00 0.0000000000000000e+00 0.0000000000000000e+00 0.0000000000000000e+00  6.7951491810387310e-01 2.9801709448063320e+00 0.0000000000000000e+00 2.9801709448063280e+00 1.7818309930476032e+03 0.0000000000000000e+00 0.0000000000000000e+00 0.0000000000000000e+00 0.0000000000000000e+00  -4.0261838680044348e-01 6.9108103213141447e-01 0.0000000000000000e+00 6.9108103213141669e-01 1.7997877676058472e+03 0.0000000000000000e+00 0.0000000000000000e+00 0.0000000000000000e+00 0.0000000000000000e+00  8.1037048190953720e-01 9.4706195126450876e-01 0.0000000000000000e+00 9.4706195126450865e-01 1.8106718694415654e+03 0.0000000000000000e+00 0.0000000000000000e+00 0.0000000000000000e+00 0.0000000000000000e+00  -1.5732388686249157e-01 4.0393148456533062e-01 0.0000000000000000e+00 4.0393148456533040e-01 1.8189708451558772e+03 0.0000000000000000e+00 0.0000000000000000e+00 0.0000000000000000e+00 0.0000000000000000e+00  3.9682871770822021e+02 3.9515668637241464e+02 0.0000000000000000e+00 3.9515668637241436e+02 3.3354327216175943e+02 0.0000000000000000e+00 0.0000000000000000e+00 0.0000000000000000e+00 0.0000000000000000e+00  1.0790049845732062e+03 1.3897797015507440e+03 0.0000000000000000e+00 1.3897797015507438e+03 2.6575320442733728e+03 0.0000000000000000e+00 0.0000000000000000e+00 0.0000000000000000e+00 0.0000000000000000e+00  4.6901060502987434e+02 9.8644452531892239e+02 0.0000000000000000e+00 9.8644452531892250e+02 5.3432494621050455e+03 0.0000000000000000e+00 0.0000000000000000e+00 0.0000000000000000e+00 0.0000000000000000e+00  7.7887540952881488e+02 -6.3778640875716849e+02 0.0000000000000000e+00 -6.3778640875716849e+02 4.9739278958349223e+03 0.0000000000000000e+00 0.0000000000000000e+00 0.0000000000000000e+00 0.0000000000000000e+00  7.3239007126809156e+02 -1.4281213543545075e+03 0.0000000000000000e+00 -1.4281213543545075e+03 2.7043694663210422e+03 0.0000000000000000e+00 0.0000000000000000e+00 0.0000000000000000e+00 0.0000000000000000e+00  3.6412961212431395e+02 -4.4418986417822464e+02 0.0000000000000000e+00 -4.4418986417822464e+02 4.8648052506000317e+02 0.0000000000000000e+00 0.0000000000000000e+00 0.0000000000000000e+00 0.0000000000000000e+00  2.9870501340804826e-02 -1.8189894198998921e-01 0.0000000000000000e+00 -1.8189894198998957e-01 1.8765223513582268e+03 0.0000000000000000e+00 0.0000000000000000e+00 0.000