<?xml version="1.0"?>
<VTKFile type="UnstructuredGrid"  version="0.1"  >
<UnstructuredGrid>
<Piece  NumberOfPoints="2165" NumberOfCells="4161">
<Points>
<DataArray  type="Float64"  NumberOfComponents="3"  format="ascii">-3.598637933768527e-16 0.3500000000000001 0  0.05 0.4 0  -3.537405593811159e-16 0.45 0  0 1 0  1 1 0  0.9999999999999997 0.65 0  0.9999999999999997 0.5499999999999999 0  1 0 0  0 0 0  0.0191341716182545 0.3538060233744357 0  0.03535533905932737 0.3646446609406727 0  0.04619397662556433 0.3808658283817455 0  0.04619397662556434 0.4191341716182545 0  0.03535533905932738 0.4353553390593274 0  0.01913417161825449 0.4461939766255644 0  0 0.975 0  0 0.95 0  0 0.9249999999999999 0  0 0.8999999999999998 0  0 0.8749999999999998 0  0 0.8499999999999998 0  0 0.8249999999999997 0  0 0.7999999999999996 0  0 0.7749999999999996 0  0 0.7499999999999996 0  0 0.7249999999999996 0  0 0.6999999999999997 0  0 0.6749999999999998 0  0 0.6499999999999999 0  0 0.6249999999999999 0  0 0.6 0  0 0.575 0  0 0.5499999999999998 0  0 0.5249999999999999 0  0 0.4999999999999998 0  0 0.4749999999999999 0  0.975 1 0  0.95 1 0  0.925 1 0  0.9 1 0  0.875 1 0  0.85 1 0  0.825 1 0  0.8 1 0  0.775 1 0  0.75 1 0  0.725 1 0  0.7 1 0  0.675 1 0  0.65 1 0  0.625 1 0  0.6 1 0  0.575 1 0  0.55 1 0  0.525 1 0  0.5 1 0  0.475 1 0  0.45 1 0  0.425 1 0  0.4 1 0  0.375 1 0  0.35 1 0  0.325 1 0  0.3 1 0  0.275 1 0  0.25 1 0  0.225 1 0  0.2 1 0  0.175 1 0  0.15 1 0  0.125 1 0  0.09999999999999998 1 0  0.07499999999999996 1 0  0.05000000000000004 1 0  0.02500000000000002 1 0  1 0.675 0  1 0.7000000000000001 0  1 0.7250000000000001 0  1 0.7500000000000001 0  1 0.7750000000000001 0  1 0.8000000000000002 0  1 0.8250000000000002 0  1 0.8500000000000002 0  1 0.8750000000000003 0  1 0.9000000000000001 0  1 0.9250000000000002 0  1 0.9500000000000001 0  1 0.9750000000000001 0  0.9783058130441221 0.6450484433951209 0  0.9609084258765985 0.6311744900929367 0  0.9512536043909088 0.6111260466978157 0  0.9512536043909088 0.5888739533021843 0  0.9609084258765985 0.5688255099070633 0  0.9783058130441221 0.554951556604879 0  1 0.02500000000000002 0  1 0.05000000000000004 0  1 0.07500000000000008 0  1 0.1000000000000001 0  1 0.1250000000000001 0  1 0.1500000000000002 0  1 0.1750000000000002 0  1 0.2000000000000003 0  1 0.2250000000000003 0  1 0.2500000000000004 0  1 0.2750000000000004 0  1 0.3000000000000003 0  1 0.3250000000000002 0  1 0.3500000000000001 0  1 0.3750000000000001 0  1 0.3999999999999999 0  1 0.425 0  1 0.45 0  1 0.475 0  1 0.5000000000000001 0  1 0.5249999999999999 0  0.025 0 0  0.05 0 0  0.075 0 0  0.1 0 0  0.125 0 0  0.15 0 0  0.175 0 0  0.2 0 0  0.225 0 0  0.25 0 0  0.275 0 0  0.3 0 0  0.325 0 0  0.35 0 0  0.375 0 0  0.4 0 0  0.425 0 0  0.45 0 0  0.475 0 0  0.5 0 0  0.525 0 0  0.55 0 0  0.575 0 0  0.6 0 0  0.625 0 0  0.65 0 0  0.675 0 0  0.7 0 0  0.725 0 0  0.75 0 0  0.775 0 0  0.8 0 0  0.825 0 0  0.85 0 0  0.875 0 0  0.9 0 0  0.925 0 0  0.95 0 0  0.975 0 0  0 0.3250000000000001 0  0 0.3 0  0 0.275 0  0 0.2499999999999999 0  0 0.2249999999999999 0  0 0.1999999999999998 0  0 0.1749999999999998 0  0 0.1499999999999998 0  0 0.1249999999999998 0  0 0.09999999999999987 0  0 0.07499999999999984 0  0 0.04999999999999993 0  0 0.02500000000000002 0  0.06453325334544308 0.4134708543086404 0  0.5146839915088474 0.02134387884913819 0  0.4875871001393628 0.9784117024331356 0  0.9386300160094723 0.5701776715936071 0  0.0216506350946109 0.6124999999999999 0  0.9764205887290853 0.3596067946540696 0  0.3876261045932067 0.02156097490657183 0  0.6125 0.978349364905389 0  0.3612127461797463 0.9792371404802113 0  0.6374786650398092 0.02079982608537345 0  0.9387185538472446 0.6295115890709873 0  0.05482260092545593 0.3633687091864355 0  0.02445354803948679 0.7343198207875321 0  0.2624888813627476 0.02091671348578122 0  0.7375212991274043 0.9794996488945376 0  0.9793010831723812 0.2648509348664836 0  0.2625026480689301 0.9795699185263282 0  0.7362840788105066 0.02225211062275217 0  0.02159327910297104 0.2128861809896528 0  0.9786837570973538 0.7867241244631172 0  0.02419728000065929 0.8365600234152764 0  0.980043283615984 0.1624097203408714 0  0.1645857434226354 0.0205513501962844 0  0.8339481359352011 0.9784483546369231 0  0.1637584777222821 0.9774556328160621 0  0.8374916614314967 0.02165097219510076 0  0.02171915379676059 0.5370700005916152 0  0.9795335762511281 0.4365726939225819 0  0.02319480745007968 0.1370197632171214 0  0.9774462976085161 0.8592616917551974 0  0.9786941241076723 0.7122511101067891 0  0.9797883857882621 0.08781864217752949 0  0.01966314788989931 0.9125801876811624 0  0.02051815350151098 0.2882126194470174 0  0.09063226699593246 0.0214884092697174 0  0.9124408843562394 0.9818463395009377 0  0.03872465516591678 0.452731089005145 0  0.08969424365256845 0.978412979507602 0  0.9124999999999999 0.02165063509461096 0  0.02158104789437187 0.6619299176372371 0  0.9796602354625652 0.4859004208706154 0  0.3127517983598529 0.02417963694738812 0  0.4375629605000894 0.02158039900821679 0  0.5643674594196073 0.01968996000301126 0  0.5368361594956101 0.9790428840407062 0  0.4376176251051295 0.9783667484208922 0  0.6874072695660477 0.978435143102373 0  0.310604317388614 0.979558305560928 0  0.2125577044121564 0.02066685543111635 0  0.6875 0.0216506350946109 0  0.02224009810917643 0.08811420611559456 0  0.790876428529276 0.978633065284896 0  0.2125 0.978349364905389 0  0.9788033534786624 0.2116925349935155 0  0.9769441169344462 0.3150381335760689 0  0.9804648376981185 0.9123186437266726 0  0.7874999988222203 0.02127957051165741 0  0.02109233852270731 0.786866823287435 0  0.9483709287873718 0.5504073206521916 0  0.9259842326464427 0.5519702047534598 0  0.9163209045278007 0.5719292915927929 0  0.9035374059862284 0.5537291796040291 0  0.8938951918780048 0.5738949757882954 0  0.8807940177559743 0.5546750869516996 0  0.8712661812741653 0.5757142549099102 0  0.8580668865514332 0.5563902430113601 0  0.848508161986991 0.5779004013072002 0  0.8354274200119249 0.5591176379057713 0  0.8256349826905482 0.5800610629400762 0  0.8124123591208572 0.5604454546391737 0  0.802603410938817 0.5819653950592523 0  0.7892876429890218 0.562234610648543 0  0.7794355871850538 0.583896242519796 0  0.7661469824381839 0.5648243426306435 0  0.7562387679604726 0.5860005456930413 0  0.7429651600512166 0.5669367633461588 0  0.7330846968880171 0.5879590907760761 0  0.7198577999459205 0.5688986880627463 0  0.7297050500533544 0.5479561801187277 0  0.7066243396993471 0.5499068108517552 0  0.6968285086900206 0.5707989520567972 0  0.6836266810714333 0.5519088927359967 0  0.6738604685766018 0.5727655091567184 0  0.6607284761452521 0.5538781923028128 0  0.6697149783704412 0.5321140554135094 0  0.6473436039782401 0.5350050604671006 0  0.6378867365666199 0.5557804038095817 0  0.6246915360243652 0.5362124690568238 0  0.6151175309583405 0.5575933164645619 0  0.6019784180102355 0.5380659376543677 0  0.5924099113505394 0.5593739656462906 0  0.5794110962027638 0.541110021814312 0  0.5697985396917309 0.5614600003719357 0  0.5568468707330213 0.5433212932327446 0  0.5472634011377896 0.5635652141280936 0  0.5343236363495072 0.5451361960661517 0  0.5247877773262166 0.565493591892781 0  0.5118927934227436 0.5470665328397559 0  0.5023398230005425 0.5674381114577953 0  0.5213991904098014 0.5267047787870831 0  0.4990390504096661 0.528649139287786 0  0.6328887517229864 0.5131744321062524 0  0.5085133205790763 0.5083322037773296 0  0.4861972978925295 0.5102540920324363 0  0.4956914791804768 0.4899605513008993 0  0.4734139980312694 0.4918582759645476 0  0.4826986629698439 0.4717164019717278 0  0.460570567761715 0.473509155475794 0  0.4699344541058981 0.4533140529328089 0  0.4477087341565655 0.4550973130597117 0  0.4381733274019614 0.4752901381741884 0  0.4570222843287571 0.4349938694701042 0  0.4348599018247688 0.436728068420533 0  0.5604623134382263 0.581815997002507 0  0.4443612964408632 0.416499823314016 0  0.422056299386984 0.4183730429856528 0  0.4688721528228815 0.4135009841763965 0  0.4315584877924544 0.398120546824229 0  0.4092288692044618 0.3999974286008185 0  0.7463210599443056 0.6070829843371945 0  0.4187270626688335 0.3797365044773463 0  0.3964262302393312 0.3817184136470017 0  0.3869780036193907 0.4018498778543814 0  0.3742423843122406 0.3837055716372927 0  0.3648701490102072 0.4037049758807119 0  0.3518115403926748 0.3858985036587403 0  0.3426146276710081 0.4056777495658291 0  0.3614541441355358 0.3656396497906528 0  0.339026673715919 0.3678724679736439 0  0.3485566370135618 0.3476560889674916 0  0.3264681821394378 0.3496422822523857 0  0.8219942777991693 0.5379143061758643 0  0.3358297439968608 0.3295117748868035 0  0.3137050884585635 0.3314921667582986 0  0.3229980644152205 0.3113561769498422 0  0.3007986024336577 0.3133063832007756 0  0.3441851868720173 0.3085211458266175 0  0.3101966551534752 0.2930273704914169 0  0.287793053707373 0.2950088132226583 0  0.2914417217227097 0.3337427541189321 0  0.2975120686695638 0.2743682539701985 0  0.274864585256681 0.2764253296978281 0  0.816026571618698 0.6006851919544112 0  0.2844672854128698 0.2557011565880619 0  0.2617267434509338 0.2577713002235077 0  0.3072711221189672 0.2536790056475094 0  0.2521588568690318 0.2785072139143895 0  0.2389277409161178 0.2598761196336353 0  0.248448076747058 0.2389478879785275 0  0.5053822153261678 0.4716915524631118 0  0.229548765875869 0.2806542761043101 0  0.2254561407802683 0.2411354049374563 0  0.2350621310805047 0.2199181955146378 0  0.2117782450160163 0.222165061041625 0  0.2214249125635323 0.2008136877065064 0  0.2448758256083499 0.1985732693215908 0  0.197966291680556 0.2031211006951591 0  0.1883147493074436 0.2245564097761413 0  0.8910637266939049 0.5322898364209732 0  0.1748136087708587 0.2051141748992724 0  0.1842088801696792 0.1837087814679069 0  0.1656574100807746 0.2269812054689968 0  0.3554582346764377 0.4236292557112198 0  0.3328979939923831 0.425459320867588 0  0.3460368767112177 0.4435398346083328 0  0.3238464003
[...]
<PointData  Tensors="$\sigma$"> 
<DataArray  type="Float64"  Name="$\sigma$"  NumberOfComponents="9" format="ascii">-3.7325682976519829e+02 -4.3416685307833137e+02 0.0000000000000000e+00 -4.3416685307833211e+02 -1.0806609757513934e+03 0.0000000000000000e+00 0.0000000000000000e+00 0.0000000000000000e+00 0.0000000000000000e+00  3.4438587615329002e+03 2.8111239896390412e+01 0.0000000000000000e+00 2.8111239896388440e+01 1.5146545708537054e+04 0.0000000000000000e+00 0.0000000000000000e+00 0.0000000000000000e+00 0.0000000000000000e+00  -2.9906768422398079e+02 5.4927985372696696e+02 0.0000000000000000e+00 5.4927985372696639e+02 -1.1361995128093736e+03 0.0000000000000000e+00 0.0000000000000000e+00 0.0000000000000000e+00 0.0000000000000000e+00  8.2801054136718080e-02 1.0257726740216695e+00 0.0000000000000000e+00 1.0257726740216697e+00 6.7608933007698997e+03 0.0000000000000000e+00 0.0000000000000000e+00 0.0000000000000000e+00 0.0000000000000000e+00  2.0591706353600521e+00 7.4113259496068687e-02 0.0000000000000000e+00 7.4113259496070075e-02 6.5498275333805395e+03 0.0000000000000000e+00 0.0000000000000000e+00 0.0000000000000000e+00 0.0000000000000000e+00  -4.3913057377768922e+02 -4.1451865909580306e+02 0.0000000000000000e+00 -4.1451865909580300e+02 -1.4553241608226918e+02 0.0000000000000000e+00 0.0000000000000000e+00 0.0000000000000000e+00 0.0000000000000000e+00  2.3203379218907514e+02 -1.8510718547588581e+02 0.0000000000000000e+00 -1.8510718547588516e+02 2.4752176808171822e+02 0.0000000000000000e+00 0.0000000000000000e+00 0.0000000000000000e+00 0.0000000000000000e+00  1.6225286854756438e-01 1.4638784484261011e-01 0.0000000000000000e+00 1.4638784484261513e-01 6.7699926192280163e+03 0.0000000000000000e+00 0.0000000000000000e+00 0.0000000000000000e+00 0.0000000000000000e+00  1.9993971665512825e+03 8.0705231529952096e+02 0.0000000000000000e+00 8.0705231529952152e+02 7.0897549280498433e+03 0.0000000000000000e+00 0.0000000000000000e+00 0.0000000000000000e+00 0.0000000000000000e+00  9.9091937162654824e+02 7.8011069614795588e+02 0.0000000000000000e+00 7.8011069614795679e+02 7.0659619790192266e+02 0.0000000000000000e+00 0.0000000000000000e+00 0.0000000000000000e+00 0.0000000000000000e+00  3.5462906591750079e+03 4.2546185914925900e+03 0.0000000000000000e+00 4.2546185914925900e+03 4.8734619091106397e+03 0.0000000000000000e+00 0.0000000000000000e+00 0.0000000000000000e+00 0.0000000000000000e+00  3.6149677596047854e+03 4.5566539088368172e+03 0.0000000000000000e+00 4.5566539088368172e+03 1.2787606549326776e+04 0.0000000000000000e+00 0.0000000000000000e+00 0.0000000000000000e+00 0.0000000000000000e+00  3.6064770088231667e+03 -4.5132319571984617e+03 0.0000000000000000e+00 -4.5132319571984590e+03 1.2784920834774297e+04 0.0000000000000000e+00 0.0000000000000000e+00 0.0000000000000000e+00 0.0000000000000000e+00  3.5603968662558536e+03 -4.1835385799347223e+03 0.0000000000000000e+00 -4.1835385799347232e+03 5.1918860287932112e+03 0.0000000000000000e+00 0.0000000000000000e+00 0.0000000000000000e+00 0.0000000000000000e+00  9.4509327018725662e+02 -8.9378435875595926e+02 0.0000000000000000e+00 -8.9378435875596278e+02 6.3532880440361726e+02 0.0000000000000000e+00 0.0000000000000000e+00 0.0000000000000000e+00 0.0000000000000000e+00  1.4923416312642662e-01 -2.6538709830610036e-01 0.0000000000000000e+00 -2.6538709830610097e-01 6.7579191885094888e+03 0.0000000000000000e+00 0.0000000000000000e+00 0.0000000000000000e+00 0.0000000000000000e+00  -7.0043107801361026e-02 -9.0367048780614734e-01 0.0000000000000000e+00 -9.0367048780614156e-01 6.7521455193505362e+03 0.0000000000000000e+00 0.0000000000000000e+00 0.0000000000000000e+00 0.0000000000000000e+00  6.6186660253397089e-01 -1.0716085985507915e+00 0.0000000000000000e+00 -1.0716085985507942e+00 6.7430125684412733e+03 0.0000000000000000e+00 0.0000000000000000e+00 0.0000000000000000e+00 0.0000000000000000e+00  -4.7483218888064482e-01 -7.6571298360513351e-01 0.0000000000000000e+00 -7.6571298360512718e-01 6.7288384065028677e+03 0.0000000000000000e+00 0.0000000000000000e+00 0.0000000000000000e+00 0.0000000000000000e+00  4.7836691862982833e-01 -1.3302483438871224e+00 0.0000000000000000e+00 -1.3302483438871340e+00 6.7092874924079197e+03 0.0000000000000000e+00 0.0000000000000000e+00 0.0000000000000000e+00 0.0000000000000000e+00  1.1774759901645240e+00 -3.0057632619365333e+00 0.0000000000000000e+00 -3.0057632619365653e+00 6.6887599259977260e+03 0.0000000000000000e+00 0.0000000000000000e+00 0.0000000000000000e+00 0.0000000000000000e+00  1.5003300273747683e-02 -2.3291210270016354e+00 0.0000000000000000e+00 -2.3291210270016185e+00 6.6530527321007421e+03 0.0000000000000000e+00 0.0000000000000000e+00 0.0000000000000000e+00 0.0000000000000000e+00  -4.2385344644323680e-01 -2.9601079353034279e+00 0.0000000000000000e+00 -2.9601079353034132e+00 6.6182841073033114e+03 0.0000000000000000e+00 0.0000000000000000e+00 0.0000000000000000e+00 0.0000000000000000e+00  2.0119511238367505e+00 -4.5942515306031062e+00 0.0000000000000000e+00 -4.5942515306030609e+00 6.5751048641431662e+03 0.0000000000000000e+00 0.0000000000000000e+00 0.0000000000000000e+00 0.0000000000000000e+00  1.3106557154954765e+00 -6.3899782468462432e+00 0.0000000000000000e+00 -6.3899782468462867e+00 6.5222338846060156e+03 0.0000000000000000e+00 0.0000000000000000e+00 0.0000000000000000e+00 0.0000000000000000e+00  2.0794902873371250e+00 -8.0782654623627419e+00 0.0000000000000000e+00 -8.0782654623627792e+00 6.4323035862248253e+03 0.0000000000000000e+00 0.0000000000000000e+00 0.0000000000000000e+00 0.0000000000000000e+00  1.1512608819762464e+00 -1.3003732835748972e+01 0.0000000000000000e+00 -1.3003732835748965e+01 6.3710804618374623e+03 0.0000000000000000e+00 0.0000000000000000e+00 0.0000000000000000e+00 0.0000000000000000e+00  1.2331853926700937e+00 -9.6900371711588242e+00 0.0000000000000000e+00 -9.6900371711589042e+00 6.2360532672280051e+03 0.0000000000000000e+00 0.0000000000000000e+00 0.0000000000000000e+00 0.0000000000000000e+00  4.4988819533578993e-02 -1.1910372250970987e+01 0.0000000000000000e+00 -1.1910372250971063e+01 6.1045375146824172e+03 0.0000000000000000e+00 0.0000000000000000e+00 0.0000000000000000e+00 0.0000000000000000e+00  1.3540208444452382e+01 -9.1054299978019362e+00 0.0000000000000000e+00 -9.1054299978019486e+00 5.9066870612649036e+03 0.0000000000000000e+00 0.0000000000000000e+00 0.0000000000000000e+00 0.0000000000000000e+00  -1.3227940546284096e+01 -1.3098783934541622e+01 0.0000000000000000e+00 -1.3098783934541537e+01 5.6481329402871934e+03 0.0000000000000000e+00 0.0000000000000000e+00 0.0000000000000000e+00 0.0000000000000000e+00  4.0515980809023631e+01 -5.5910157007454231e+01 0.0000000000000000e+00 -5.5910157007453911e+01 5.2519096118083144e+03 0.0000000000000000e+00 0.0000000000000000e+00 0.0000000000000000e+00 0.0000000000000000e+00  -2.0351762089378006e+01 -2.5150913362963053e+01 0.0000000000000000e+00 -2.5150913362963731e+01 4.7267433596222963e+03 0.0000000000000000e+00 0.0000000000000000e+00 0.0000000000000000e+00 0.0000000000000000e+00  2.7452889848623187e+01 -1.5806584524906563e+02 0.0000000000000000e+00 -1.5806584524906552e+02 3.8394957550250256e+03 0.0000000000000000e+00 0.0000000000000000e+00 0.0000000000000000e+00 0.0000000000000000e+00  -3.2057127950206734e+01 -1.8051907843502249e+02 0.0000000000000000e+00 -1.8051907843502036e+02 2.6004156655077950e+03 0.0000000000000000e+00 0.0000000000000000e+00 0.0000000000000000e+00 0.0000000000000000e+00  1.8360459578438673e+02 -1.7774634394759420e+02 0.0000000000000000e+00 -1.7774634394759414e+02 8.8829513548688612e+02 0.0000000000000000e+00 0.0000000000000000e+00 0.0000000000000000e+00 0.0000000000000000e+00  -5.9316052548590532e+00 3.4198467758843654e-01 0.0000000000000000e+00 3.4198467758842949e-01 6.5664818311701647e+03 0.0000000000000000e+00 0.0000000000000000e+00 0.0000000000000000e+00 0.0000000000000000e+00  -2.9560498552861098e+01 -8.3454288668904114e-02 0.0000000000000000e+00 -8.3454288668873541e-02 6.6126140474566973e+03 0.0000000000000000e+00 0.0000000000000000e+00 0.0000000000000000e+00 0.0000000000000000e+00  -6.5596705856001577e+01 1.8396535285541309e+00 0.0000000000000000e+00 1.8396535285541218e+00 6.6829910647425531e+03 0.0000000000000000e+00 0.0000000000000000e+00 0.0000000000000000e+00 0.0000000000000000e+00  -1.0744776352412168e+02 1.2875734218769105e-01 0.0000000000000000e+00 1.2875734218768489e-01 6.7627443890376044e+03 0.0000000000000000e+00 0.0000000000000000e+00 0.0000000000000000e+00 0.0000000000000000e+00  -1.4458831522855110e+02 2.3470256070590341e+00 0.0000000000000000e+00 2.3470256070590287e+00 6.8592520943269692e+03 0.0000000000000000e+00 0.0000000000000000e+00 0.0000000000000000e+00 0.0000000000000000e+00  -1.8271458625175717e+02 -1.5578118332394725e-01 0.0000000000000000e+00 -1.5578118332393859e-01 6.9537745414782003e+03 0.0000000000000000e+00 0.0000000000000000e+00 0.0000000000000000e+00 0.0000000000000000e+00  -2.1928747816044316e+02 1.2983298883716132e-01 0.0000000000000000e+00 1.2983298883717659e-01 7.0356717591353508e+03 0.0000000000000000e+00 0.0000000000000000e+00 0.0000000000000000e+00 0.0000000000000000e+00  -2.3821618649726628e+02 -5.6418106358005360e-01 0.0000000000000000e+00 -5.6418106358005793e-01 7.1233380518097092e+03 0.0000000000000000e+00 0.0000000000000000e+00 0.0000000000000000e+00 0.0000000000000000e+00  -2.5608516749594332e+02 2.5223800598942198e-01 0.0000000000000000e+00 2.5223800598942919e-01 7.1796487463789299e+03 0.0000000000000000e+00 0.0000000000000000e+00 0.0000000000000000e+00 0.0000000000000000e+00  -2.6694898824973029e+02 -7.6118830839037122e-01 0.0000000000000000e+00 -7.6118830839037244e-01 7.2348809795162697e+03 0.0000000000000000e+00 0.0000000000000000e+00 0.0000000000000000e+00 0.0000000000000000e+00  -2.6896140300810754e+02 -5.1467732652010478e-01 0.0000000000000000e+00 -5.1467732652010456e-01 7.2762251341604306e+03 0.0000000000000000e+00 0.0000000000000000e+00 0.0000000000000000e+00 0.0000000000000000e+00  -2.6636641429920581e+02 -1.1861442980515644e+00 0.0000000000000000e+00 -1.1861442980515688e+00 7.3048585266907203e+03 0.0000000000000000e+00 0.0000000000000000e+00 0.0000000000000000e+00 0.0000000000000000e+00  -2.6006470927864785e+02 -6.9917433950085883e-01 0.0000000000000000e+00 -6.9917433950086338e-01 7.3250871920176096e+03 0.0000000000000000e+00 0.0000000000000000e+00 0.0000000000000000e+00 0.0000000000000000e+00  -2.5190041727617785e+02 -3.9298680647310480e-01 0.0000000000000000e+00 -3.9298680647310841e-01 7.3377658303124763e+03 0.0000000000000000e+00 0.0000000000000000e+00 0.0000000000000000e+00 0.0000000000000000e+00  -2.4141667316848987e+02 -5.7724616871686918e-01 0.0000000000000000e+00 -5.7724616871685897e-01 7.3430661543863216e+03 0.0000000000000000e+00 0.0000000000000000e+00 0.0000000000000000e+00 0.0000000000000000e+00  -2.3056577710653383e+02 -7.4241671026333433e-01 0.0000000000000000e+00 -7.4241671026333877e-01 7.3434477872290172e+03 0.0000000000000000e+00 0.0000000000000000e+00 0.0000000000000000e+00 0.0000000000000000e+00  -2.2020467470986907e+02 -3.5567348317830849e-01 0.0000000000000000e+00 -3.5567348317830355e-01 7.3388602968064142e+03 0.0000000000000000e+00 0.0000000000000000e+00 0.0000000000000000e+00 0.0000000000000000e+00  -2.0993568252351437e+02 -4.8152026277134424e-01 0.0000000000000000e+00 -4.8152026277134752e-01 7.3314761739011956e+03 0.0000000000000000e+00 0.0000000000000000e+00 0.0000000000000000e+00 0.0000000000000000e+00  -2.0059966901572125e+02 -2.2108999165420753e-01 0.0000000000000000e+00 -2.2108999165421711e-01 7.3210416198946878e+03 0.0000000000000000e+00 0.0000000000000000e+00 0.0000000000000000e+00 0.0000000000000000e+00  -1.9177369039694881e+02 -2.0542104665544778e-01 0.0000000000000000e+00 -2.0542104665545141e-01 7.3077333002674504e+03 0.0000000000000000e+00 0.0000000000000000e+00 0.0000000000000000e+00 0.0000000000000000e+00  -1.8395214324884859e+02 -9.5701985007809770e-02 0.0000000000000000e+00 -9.5701985007808910e-02 7.2924734544471839e+03 0.0000000000000000e+00 0.0000000000000000e+00 0.0000000000000000e+00 0.0000000000000000e+00  -1.7625240413031935e+02 -4.3497299107764641e-02 0.0000000000000000e+00 -4.3497299107758923e-02 7.2753560210362903e+03 0.0000000000000000e+00 0.0000000000000000e+00 0.0000000000000000e+00 0.0000000000000000e+00  -1.6951029297694376e+02 -2.4182151142890233e-02 0.0000000000000000e+00 -2.4182151142883020e-02 7.2556177763081650e+03 0.0000000000000000e+00 0.0000000000000000e+00 0.0000000000000000e+00 0.0000000000000000e+00  -1.6208440916124189e+02 -1.8042419631288532e-02 0.0000000000000000e+00 -1.8042419631290479e-02 7.2339358352586833e+03 0.0000000000000000e+00 0.0000000000000000e+00 0.0000000000000000e+00 0.0000000000000000e+00  -1.5528767894196312e+02 -8.6219723565662446e-02 0.0000000000000000e+00 -8.6219723565667317e-02 7.2101880764522175e+03 0.0000000000000000e+00 0.0000000000000000e+00 0.0000000000000000e+00 0.0000000000000000e+00  -1.4734821088257297e+02 1.4401378994962272e-01 0.0000000000000000e+00 1.4401378994963568e-01 7.1841180150168311e+03 0.0000000000000000e+00 0.0000000000000000e+00 0.0000000000000000e+00 0.0000000000000000e+00  -1.3889185968011864e+02 -7.7296622347437130e-02 0.0000000000000000e+00 -7.7296622347432398e-02 7.1548514405218693e+03 0.0000000000000000e+00 0.0000000000000000e+00 0.0000000000000000e+00 0.0000000000000000e+00  -1.2968582075553297e+02 1.8110113874770856e-01 0.0000000000000000e+00 1.8110113874771069e-01 7.1239509970359913e+03 0.0000000000000000e+00 0.0000000000000000e+00 0.0000000000000000e+00 0.0000000000000000e+00  -1.1902674457913230e+02 1.8819036708339285e-01 0.0000000000000000e+00 1.8819036708338260e-01 7.0914140269855707e+03 0.0000000000000000e+00 0.0000000000000000e+00 0.0000000000000000e+00 0.0000000000000000e+00  -1.0785291483769890e+02 4.8375982092679570e-02 0.0000000000000000e+00 4.8375982092677343e-02 7.0550142175739948e+03 0.0000000000000000e+00 0.0000000000000000e+00 0.0000000000000000e+00 0.0000000000000000e+00  -9.4711957359781977e+01 -1.5816107269815902e-01 0.0000000000000000e+00 -1.5816107269816104e-01 7.0191833432736830e+03 0.0000000000000000e+00 0.0000000000000000e+00 0.0000000000000000e+00 0.0000000000000000e+00  -8.1950161103716638e+01 -1.8396197377351786e-01 0.0000000000000000e+00 -1.8396197377352169e-01 6.9801767691601863e+03 0.0000000000000000e+00 0.0000000000000000e+00 0.0000000000000000e+00 0.0000000000000000e+00  -6.7083097155288286e+01 -3.4302205159148669e-02 0.0000000000000000e+00 -3.4302205159166273e-02 6.9423931112847840e+03 0.0000000000000000e+00 0.0000000000000000e+00 0.0000000000000000e+00 0.0000000000000000e+00  -5.2938494113344852e+01 -2.8539326720517205e-01 0.0000000000000000e+00 -2.8539326720517516e-01 6.9067035786494625e+03 0.0000000000000000e+00 0.0000000000000000e+00 0.0000000000000000e+00 0.0000000000000000e+00  -3.8827583828282528e+01 -7.4121986950329954e-02 0.0000000000000000e+00 -7.4121986950326527e-02 6.8715623980379441e+03 0.0000000000000000e+00 0.0000000000000000e+00 0.0000000000000000e+00 0.0000000000000000e+00  -2.6214064876115863e+01 -5.7907629937301627e-02 0.0000000000000000e+00 -5.7907629937301627e-02 6.8380606180637951e+03 0.0000000000000000e+00 0.0000000000000000e+00 0.0000000000000000e+00 0.0000000000000000e+00  -1.5330040799035050e+01 -1.0845434694711772e-01 0.0000000000000000e+00 -1.0845434694711929e-01 6.8099571525643460e+03 0.0000000000000000e+00 0.0000000000000000e+00 0.0000000000000000e+00 0.0000000000000000e+00  -6.9508075953083379e+00 1.1242725222361867e-01 0.0000000000000000e+00 1.1242725222362811e-01 6.7866021928317459e+03 0.0000000000000000e+00 0.0000000000000000e+00 0.0000000000000000e+00 0.0000000000000000e+00  -9.5837598833320492e-01 2.0711954803920543e-01 0.0000000000000000e+00 2.0711954803920338e-01 6.7700294722839335e+03 0.0000000000000000e+00 0.0000000000000000e+00 0.0000000000000000e+00 0.0000000000000000e+00  8.5545193008663858e+01 -3.6472313883047690e+01 0.0000000000000000e+00 -3.6472313883047072e+01 5.6541485561439833e+02 0.0000000000000000e+00 0.0000000000000000e+00 0.0000000000000000e+00 0.0000000000000000e+00  2.0103585614781360e+02 1.9149847300387037e+02 0.0000000000000000e+00 1.9149847300387043e+02 2.8165193964054879e+03 0.0000000000000000e+00 0.0000000000000000e+00 0.0000000000000000e+00 0.0000000000000000e+00  -1.0747695479141996e+02 -6.3313114915486652e+00 0.0000000000000000e+00 -6.3313114915493349e+00 3.8308737491205084e+03 0.0000000000000000e+00 0.0000000000000000e+00 0.0000000000000000e+00 0.0000000000000000e+00  1.1169242557149295e+02 9.5795726770083093e+01 0.0000000000000000e+00 9.5795726770084059e+01 4.8915164258971563e+03 0.0000000000000000e+00 0.0000000000000000e+00 0.0000000000000000e+00 0.0000000000000000e+00  -4.1115452517349851e+01 -2.7968174285604082e+01 0.0000000000000000e+00 -2.7968174285603997e+01 5.3014905179493435e+03 0.0000000000000000e+00 0.0000000000000000e+00 0.0000000000000000e+00 0.0000000000000000e+00  4.5166154933557593e+01 4.3172803642721725e+01 0.0000000000000000e+00 4.3172803642721817e+01 5.7485872715920104e+03 0.0000000000000000e+00 0.0000000000000000e+00 0.0000000000000000e+00 0.0000000000000000e+00  -1.2848269276627297e+01 9.8600054792387404e+00 0.0000000000000000e+00 9.8600054792387581e+00 5.9823668224163666e+03 0.0000000000000000e+00 0.0000000000000000e+00 0.0000000000000000e+00 0.0000000000000000e+00  8.8053306895111643e+00 1.9452073104905828e+01 0.0000000000000000e+00 1.9452073104905857e+01 6.1477985455980124e+03 0.0000000000000000e+00 0.0000000000000000e+00 0.0000000000000000e+00 0.0000000000000000e+00  2.6013684171767828e+00 9.9176418735951870e+00 0.0000000000000000e+00 9.9176418735952687e+00 6.3101663461238923e+03 0.0000000000000000e+00 0.0000000000000000e+00 0.0000000000000000e+00 0.0000000000000000e+00  4.3289543133666806e+00 6.6944419363014394e+00 0.0000000000000000e+00 6.6944419363014180e+00 6.3991096818473861e+03 0.0000000000000000e+00 0.0000000000000000e+00 0.0000000000000000e+00 0.0000000000000000e+00  -2.4582137233419092e+00 8.4954863212760356e-01 0.0000000000000000e+00 8.4954863212757747e-01 6.4759548932230955e+03 0.0000000000000000e+00 0.0000000000000000e+00 0.0000000000000000e+00 0.0000000000000000e+00  4.1982179808609557e+00 3.4899176540565389e+00 0.0000000000000000e+00 3.4899176540565762e+00 6.5115560201699018e+03 0.0000000000000000e+00 0.0000000000000000e+00 0.0000000000000000e+00 0.0000000000000000e+00  -1.2848913173953067e+00 6.0843587041576652e-01 0.0000000000000000e+00 6.0843587041576097e-01 6.5469262524854194e+03 0.0000000000000000e+00 0.0000000000000000e+00 0.0000000000000000e+00 0.0000000000000000e+00  1.3216166509780135e+03 9.5661944480318209e+02 0.0000000000000000e+00 9.5661944480318539e+02 6.4762121717386492e+02 0.0000000000000000e+00 0.0000000000000000e+00 0.0000000000000000e+00 0.0000000000000000e+00  3.9644433084882594e+03 5.6650864290367726e+03 0.0000000000000000e+00 5.6650864290367699e+03 8.6058023631176256e+03 0.0000000000000000e+00 0.0000000000000000e+00 0.0000000000000000e+00 0.0000000000000000e+00  3.3358225090617452e+03 2.9303722756826928e+03 0.0000000000000000e+00 2.9303722756826915e+03 1.4618370605198659e+04 0.0000000000000000e+00 0.0000000000000000e+00 0.0000000000000000e+00 0.0000000000000000e+00  3.6940843693528313e+03 -2.5549793138187169e+03 0.0000000000000000e+00 -2.5549793138187210e+03 1.5447597750766916e+04 0.0000000000000000e+00 0.0000000000000000e+00 0.0000000000000000e+00 0.0000000000000000e+00  2.4401113566088261e+03 -5.2795302934257652e+03 0.0000000000000000e+00 -5.2795302934257579e+03 8.1214433686670218e+03 0.0000000000000000e+00 0.0000000000000000e+00 0.0000000000000000e+00 0.0000000000000000e+00  1.6545861502927146e+03 -1.3944672501153748e+03 0.0000000000000000e+00 -1.3944672501153718e+03 1.0061701959107118e+03 0.0000000000000000e+00 0.0000000000000000e+00 0.0000000000000000e+00 0.0000000000000000e+00  6.2166518486256032e-02 -3.4550755349831946e-01 0.0000000000000000e+00 -3.4550755349832230e-01 6.7687187658461162e+03 0.0000000000000000e+00 0.00000000000000