<?xml version="1.0"?>
<VTKFile type="UnstructuredGrid"  version="0.1"  >
<UnstructuredGrid>
<Piece  NumberOfPoints="2165" NumberOfCells="4161">
<Points>
<DataArray  type="Float64"  NumberOfComponents="3"  format="ascii">-3.598637933768527e-16 0.3500000000000001 0  0.05 0.4 0  -3.537405593811159e-16 0.45 0  0 1 0  1 1 0  0.9999999999999997 0.65 0  0.9999999999999997 0.5499999999999999 0  1 0 0  0 0 0  0.0191341716182545 0.3538060233744357 0  0.03535533905932737 0.3646446609406727 0  0.04619397662556433 0.3808658283817455 0  0.04619397662556434 0.4191341716182545 0  0.03535533905932738 0.4353553390593274 0  0.01913417161825449 0.4461939766255644 0  0 0.975 0  0 0.95 0  0 0.9249999999999999 0  0 0.8999999999999998 0  0 0.8749999999999998 0  0 0.8499999999999998 0  0 0.8249999999999997 0  0 0.7999999999999996 0  0 0.7749999999999996 0  0 0.7499999999999996 0  0 0.7249999999999996 0  0 0.6999999999999997 0  0 0.6749999999999998 0  0 0.6499999999999999 0  0 0.6249999999999999 0  0 0.6 0  0 0.575 0  0 0.5499999999999998 0  0 0.5249999999999999 0  0 0.4999999999999998 0  0 0.4749999999999999 0  0.975 1 0  0.95 1 0  0.925 1 0  0.9 1 0  0.875 1 0  0.85 1 0  0.825 1 0  0.8 1 0  0.775 1 0  0.75 1 0  0.725 1 0  0.7 1 0  0.675 1 0  0.65 1 0  0.625 1 0  0.6 1 0  0.575 1 0  0.55 1 0  0.525 1 0  0.5 1 0  0.475 1 0  0.45 1 0  0.425 1 0  0.4 1 0  0.375 1 0  0.35 1 0  0.325 1 0  0.3 1 0  0.275 1 0  0.25 1 0  0.225 1 0  0.2 1 0  0.175 1 0  0.15 1 0  0.125 1 0  0.09999999999999998 1 0  0.07499999999999996 1 0  0.05000000000000004 1 0  0.02500000000000002 1 0  1 0.675 0  1 0.7000000000000001 0  1 0.7250000000000001 0  1 0.7500000000000001 0  1 0.7750000000000001 0  1 0.8000000000000002 0  1 0.8250000000000002 0  1 0.8500000000000002 0  1 0.8750000000000003 0  1 0.9000000000000001 0  1 0.9250000000000002 0  1 0.9500000000000001 0  1 0.9750000000000001 0  0.9783058130441221 0.6450484433951209 0  0.9609084258765985 0.6311744900929367 0  0.9512536043909088 0.6111260466978157 0  0.9512536043909088 0.5888739533021843 0  0.9609084258765985 0.5688255099070633 0  0.9783058130441221 0.554951556604879 0  1 0.02500000000000002 0  1 0.05000000000000004 0  1 0.07500000000000008 0  1 0.1000000000000001 0  1 0.1250000000000001 0  1 0.1500000000000002 0  1 0.1750000000000002 0  1 0.2000000000000003 0  1 0.2250000000000003 0  1 0.2500000000000004 0  1 0.2750000000000004 0  1 0.3000000000000003 0  1 0.3250000000000002 0  1 0.3500000000000001 0  1 0.3750000000000001 0  1 0.3999999999999999 0  1 0.425 0  1 0.45 0  1 0.475 0  1 0.5000000000000001 0  1 0.5249999999999999 0  0.025 0 0  0.05 0 0  0.075 0 0  0.1 0 0  0.125 0 0  0.15 0 0  0.175 0 0  0.2 0 0  0.225 0 0  0.25 0 0  0.275 0 0  0.3 0 0  0.325 0 0  0.35 0 0  0.375 0 0  0.4 0 0  0.425 0 0  0.45 0 0  0.475 0 0  0.5 0 0  0.525 0 0  0.55 0 0  0.575 0 0  0.6 0 0  0.625 0 0  0.65 0 0  0.675 0 0  0.7 0 0  0.725 0 0  0.75 0 0  0.775 0 0  0.8 0 0  0.825 0 0  0.85 0 0  0.875 0 0  0.9 0 0  0.925 0 0  0.95 0 0  0.975 0 0  0 0.3250000000000001 0  0 0.3 0  0 0.275 0  0 0.2499999999999999 0  0 0.2249999999999999 0  0 0.1999999999999998 0  0 0.1749999999999998 0  0 0.1499999999999998 0  0 0.1249999999999998 0  0 0.09999999999999987 0  0 0.07499999999999984 0  0 0.04999999999999993 0  0 0.02500000000000002 0  0.06453325334544308 0.4134708543086404 0  0.5146839915088474 0.02134387884913819 0  0.4875871001393628 0.9784117024331356 0  0.9386300160094723 0.5701776715936071 0  0.0216506350946109 0.6124999999999999 0  0.9764205887290853 0.3596067946540696 0  0.3876261045932067 0.02156097490657183 0  0.6125 0.978349364905389 0  0.3612127461797463 0.9792371404802113 0  0.6374786650398092 0.02079982608537345 0  0.9387185538472446 0.6295115890709873 0  0.05482260092545593 0.3633687091864355 0  0.02445354803948679 0.7343198207875321 0  0.2624888813627476 0.02091671348578122 0  0.7375212991274043 0.9794996488945376 0  0.9793010831723812 0.2648509348664836 0  0.2625026480689301 0.9795699185263282 0  0.7362840788105066 0.02225211062275217 0  0.02159327910297104 0.2128861809896528 0  0.9786837570973538 0.7867241244631172 0  0.02419728000065929 0.8365600234152764 0  0.980043283615984 0.1624097203408714 0  0.1645857434226354 0.0205513501962844 0  0.8339481359352011 0.9784483546369231 0  0.1637584777222821 0.9774556328160621 0  0.8374916614314967 0.02165097219510076 0  0.02171915379676059 0.5370700005916152 0  0.9795335762511281 0.4365726939225819 0  0.02319480745007968 0.1370197632171214 0  0.9774462976085161 0.8592616917551974 0  0.9786941241076723 0.7122511101067891 0  0.9797883857882621 0.08781864217752949 0  0.01966314788989931 0.9125801876811624 0  0.02051815350151098 0.2882126194470174 0  0.09063226699593246 0.0214884092697174 0  0.9124408843562394 0.9818463395009377 0  0.03872465516591678 0.452731089005145 0  0.08969424365256845 0.978412979507602 0  0.9124999999999999 0.02165063509461096 0  0.02158104789437187 0.6619299176372371 0  0.9796602354625652 0.4859004208706154 0  0.3127517983598529 0.02417963694738812 0  0.4375629605000894 0.02158039900821679 0  0.5643674594196073 0.01968996000301126 0  0.5368361594956101 0.9790428840407062 0  0.4376176251051295 0.9783667484208922 0  0.6874072695660477 0.978435143102373 0  0.310604317388614 0.979558305560928 0  0.2125577044121564 0.02066685543111635 0  0.6875 0.0216506350946109 0  0.02224009810917643 0.08811420611559456 0  0.790876428529276 0.978633065284896 0  0.2125 0.978349364905389 0  0.9788033534786624 0.2116925349935155 0  0.9769441169344462 0.3150381335760689 0  0.9804648376981185 0.9123186437266726 0  0.7874999988222203 0.02127957051165741 0  0.02109233852270731 0.786866823287435 0  0.9483709287873718 0.5504073206521916 0  0.9259842326464427 0.5519702047534598 0  0.9163209045278007 0.5719292915927929 0  0.9035374059862284 0.5537291796040291 0  0.8938951918780048 0.5738949757882954 0  0.8807940177559743 0.5546750869516996 0  0.8712661812741653 0.5757142549099102 0  0.8580668865514332 0.5563902430113601 0  0.848508161986991 0.5779004013072002 0  0.8354274200119249 0.5591176379057713 0  0.8256349826905482 0.5800610629400762 0  0.8124123591208572 0.5604454546391737 0  0.802603410938817 0.5819653950592523 0  0.7892876429890218 0.562234610648543 0  0.7794355871850538 0.583896242519796 0  0.7661469824381839 0.5648243426306435 0  0.7562387679604726 0.5860005456930413 0  0.7429651600512166 0.5669367633461588 0  0.7330846968880171 0.5879590907760761 0  0.7198577999459205 0.5688986880627463 0  0.7297050500533544 0.5479561801187277 0  0.7066243396993471 0.5499068108517552 0  0.6968285086900206 0.5707989520567972 0  0.6836266810714333 0.5519088927359967 0  0.6738604685766018 0.5727655091567184 0  0.6607284761452521 0.5538781923028128 0  0.6697149783704412 0.5321140554135094 0  0.6473436039782401 0.5350050604671006 0  0.6378867365666199 0.5557804038095817 0  0.6246915360243652 0.5362124690568238 0  0.6151175309583405 0.5575933164645619 0  0.6019784180102355 0.5380659376543677 0  0.5924099113505394 0.5593739656462906 0  0.5794110962027638 0.541110021814312 0  0.5697985396917309 0.5614600003719357 0  0.5568468707330213 0.5433212932327446 0  0.5472634011377896 0.5635652141280936 0  0.5343236363495072 0.5451361960661517 0  0.5247877773262166 0.565493591892781 0  0.5118927934227436 0.5470665328397559 0  0.5023398230005425 0.5674381114577953 0  0.5213991904098014 0.5267047787870831 0  0.4990390504096661 0.528649139287786 0  0.6328887517229864 0.5131744321062524 0  0.5085133205790763 0.5083322037773296 0  0.4861972978925295 0.5102540920324363 0  0.4956914791804768 0.4899605513008993 0  0.4734139980312694 0.4918582759645476 0  0.4826986629698439 0.4717164019717278 0  0.460570567761715 0.473509155475794 0  0.4699344541058981 0.4533140529328089 0  0.4477087341565655 0.4550973130597117 0  0.4381733274019614 0.4752901381741884 0  0.4570222843287571 0.4349938694701042 0  0.4348599018247688 0.436728068420533 0  0.5604623134382263 0.581815997002507 0  0.4443612964408632 0.416499823314016 0  0.422056299386984 0.4183730429856528 0  0.4688721528228815 0.4135009841763965 0  0.4315584877924544 0.398120546824229 0  0.4092288692044618 0.3999974286008185 0  0.7463210599443056 0.6070829843371945 0  0.4187270626688335 0.3797365044773463 0  0.3964262302393312 0.3817184136470017 0  0.3869780036193907 0.4018498778543814 0  0.3742423843122406 0.3837055716372927 0  0.3648701490102072 0.4037049758807119 0  0.3518115403926748 0.3858985036587403 0  0.3426146276710081 0.4056777495658291 0  0.3614541441355358 0.3656396497906528 0  0.339026673715919 0.3678724679736439 0  0.3485566370135618 0.3476560889674916 0  0.3264681821394378 0.3496422822523857 0  0.8219942777991693 0.5379143061758643 0  0.3358297439968608 0.3295117748868035 0  0.3137050884585635 0.3314921667582986 0  0.3229980644152205 0.3113561769498422 0  0.3007986024336577 0.3133063832007756 0  0.3441851868720173 0.3085211458266175 0  0.3101966551534752 0.2930273704914169 0  0.287793053707373 0.2950088132226583 0  0.2914417217227097 0.3337427541189321 0  0.2975120686695638 0.2743682539701985 0  0.274864585256681 0.2764253296978281 0  0.816026571618698 0.6006851919544112 0  0.2844672854128698 0.2557011565880619 0  0.2617267434509338 0.2577713002235077 0  0.3072711221189672 0.2536790056475094 0  0.2521588568690318 0.2785072139143895 0  0.2389277409161178 0.2598761196336353 0  0.248448076747058 0.2389478879785275 0  0.5053822153261678 0.4716915524631118 0  0.229548765875869 0.2806542761043101 0  0.2254561407802683 0.2411354049374563 0  0.2350621310805047 0.2199181955146378 0  0.2117782450160163 0.222165061041625 0  0.2214249125635323 0.2008136877065064 0  0.2448758256083499 0.1985732693215908 0  0.197966291680556 0.2031211006951591 0  0.1883147493074436 0.2245564097761413 0  0.8910637266939049 0.5322898364209732 0  0.1748136087708587 0.2051141748992724 0  0.1842088801696792 0.1837087814679069 0  0.1656574100807746 0.2269812054689968 0  0.3554582346764377 0.4236292557112198 0  0.3328979939923831 0.425459320867588 0  0.3460368767112177 0.4435398346083328 0  0.3238464003
[...]
<PointData  Tensors="$\sigma$"> 
<DataArray  type="Float64"  Name="$\sigma$"  NumberOfComponents="9" format="ascii">-3.9811947033955823e+02 -5.9217090997938317e+02 0.0000000000000000e+00 -5.9217090997938419e+02 -1.2106117304364300e+03 0.0000000000000000e+00 0.0000000000000000e+00 0.0000000000000000e+00 0.0000000000000000e+00  2.1564176464928582e+03 -6.8887961500237456e+00 0.0000000000000000e+00 -6.8887961500256383e+00 1.4299951073203545e+04 0.0000000000000000e+00 0.0000000000000000e+00 0.0000000000000000e+00 0.0000000000000000e+00  -2.8920342401723786e+02 7.0371768473613952e+02 0.0000000000000000e+00 7.0371768473613884e+02 -1.2729634571640693e+03 0.0000000000000000e+00 0.0000000000000000e+00 0.0000000000000000e+00 0.0000000000000000e+00  9.8316900990838327e-02 1.4632839820400523e+00 0.0000000000000000e+00 1.4632839820400541e+00 8.3188570520127087e+03 0.0000000000000000e+00 0.0000000000000000e+00 0.0000000000000000e+00 0.0000000000000000e+00  2.8444164329026362e+00 2.6868776784718960e-02 0.0000000000000000e+00 2.6868776784722808e-02 8.0070849553871649e+03 0.0000000000000000e+00 0.0000000000000000e+00 0.0000000000000000e+00 0.0000000000000000e+00  -4.6230451226376732e+02 -5.8330491780979276e+02 0.0000000000000000e+00 -5.8330491780979082e+02 -7.0384419440449960e+01 0.0000000000000000e+00 0.0000000000000000e+00 0.0000000000000000e+00 0.0000000000000000e+00  2.4834432870907148e+02 -1.8800863092609362e+02 0.0000000000000000e+00 -1.8800863092609342e+02 2.4683761594678572e+02 0.0000000000000000e+00 0.0000000000000000e+00 0.0000000000000000e+00 0.0000000000000000e+00  2.4144657768150651e-01 1.8305392270326007e-01 0.0000000000000000e+00 1.8305392270326459e-01 8.3206687234301917e+03 0.0000000000000000e+00 0.0000000000000000e+00 0.0000000000000000e+00 0.0000000000000000e+00  2.4697032796079757e+03 9.9164378250522498e+02 0.0000000000000000e+00 9.9164378250522611e+02 8.7000842387350658e+03 0.0000000000000000e+00 0.0000000000000000e+00 0.0000000000000000e+00 0.0000000000000000e+00  9.8603171240754966e+02 9.7317107585269446e+02 0.0000000000000000e+00 9.7317107585269753e+02 7.7534897281982967e+02 0.0000000000000000e+00 0.0000000000000000e+00 0.0000000000000000e+00 0.0000000000000000e+00  4.2503083042914432e+03 5.1688110701923088e+03 0.0000000000000000e+00 5.1688110701923051e+03 5.9040913154105565e+03 0.0000000000000000e+00 0.0000000000000000e+00 0.0000000000000000e+00 0.0000000000000000e+00  4.4154914331216223e+03 4.7330102909075140e+03 0.0000000000000000e+00 4.7330102909075122e+03 1.2655947981258629e+04 0.0000000000000000e+00 0.0000000000000000e+00 0.0000000000000000e+00 0.0000000000000000e+00  4.5327613553157498e+03 -4.7164634970217967e+03 0.0000000000000000e+00 -4.7164634970217949e+03 1.2778274819661896e+04 0.0000000000000000e+00 0.0000000000000000e+00 0.0000000000000000e+00 0.0000000000000000e+00  4.3215742426765328e+03 -5.1446255247687459e+03 0.0000000000000000e+00 -5.1446255247687468e+03 6.1287443991011960e+03 0.0000000000000000e+00 0.0000000000000000e+00 0.0000000000000000e+00 0.0000000000000000e+00  9.4784375935109472e+02 -1.0673972707871053e+03 0.0000000000000000e+00 -1.0673972707871096e+03 6.5640631839966159e+02 0.0000000000000000e+00 0.0000000000000000e+00 0.0000000000000000e+00 0.0000000000000000e+00  2.3307425690254796e-01 -3.8053092485561785e-01 0.0000000000000000e+00 -3.8053092485561624e-01 8.3147523855510208e+03 0.0000000000000000e+00 0.0000000000000000e+00 0.0000000000000000e+00 0.0000000000000000e+00  -1.2700532149838345e-01 -1.2274154298604192e+00 0.0000000000000000e+00 -1.2274154298604110e+00 8.3066837867738523e+03 0.0000000000000000e+00 0.0000000000000000e+00 0.0000000000000000e+00 0.0000000000000000e+00  9.4020715955372836e-01 -1.4453598535189347e+00 0.0000000000000000e+00 -1.4453598535189385e+00 8.2942557355264798e+03 0.0000000000000000e+00 0.0000000000000000e+00 0.0000000000000000e+00 0.0000000000000000e+00  -6.5090291290284263e-01 -1.0163440636036940e+00 0.0000000000000000e+00 -1.0163440636037071e+00 8.2746206897628817e+03 0.0000000000000000e+00 0.0000000000000000e+00 0.0000000000000000e+00 0.0000000000000000e+00  7.3031757500076999e-01 -1.7265229335026795e+00 0.0000000000000000e+00 -1.7265229335026910e+00 8.2477217767161692e+03 0.0000000000000000e+00 0.0000000000000000e+00 0.0000000000000000e+00 0.0000000000000000e+00  1.5333444881177991e+00 -4.0267320586882693e+00 0.0000000000000000e+00 -4.0267320586882791e+00 8.2194647745932907e+03 0.0000000000000000e+00 0.0000000000000000e+00 0.0000000000000000e+00 0.0000000000000000e+00  1.3544383020905942e-01 -3.1163738317825658e+00 0.0000000000000000e+00 -3.1163738317825769e+00 8.1704631047739140e+03 0.0000000000000000e+00 0.0000000000000000e+00 0.0000000000000000e+00 0.0000000000000000e+00  -6.5788685120928003e-01 -3.8322394173252214e+00 0.0000000000000000e+00 -3.8322394173252174e+00 8.1226738163094651e+03 0.0000000000000000e+00 0.0000000000000000e+00 0.0000000000000000e+00 0.0000000000000000e+00  2.8077105554794430e+00 -6.0941462438610587e+00 0.0000000000000000e+00 -6.0941462438610188e+00 8.0635893836342120e+03 0.0000000000000000e+00 0.0000000000000000e+00 0.0000000000000000e+00 0.0000000000000000e+00  1.7163061529876609e+00 -8.6997159181847685e+00 0.0000000000000000e+00 -8.6997159181847650e+00 7.9914737921998776e+03 0.0000000000000000e+00 0.0000000000000000e+00 0.0000000000000000e+00 0.0000000000000000e+00  3.3791102459340876e+00 -1.0753578152590626e+01 0.0000000000000000e+00 -1.0753578152590693e+01 7.8689517828890512e+03 0.0000000000000000e+00 0.0000000000000000e+00 0.0000000000000000e+00 0.0000000000000000e+00  1.5448443912549363e+00 -1.7407325525139004e+01 0.0000000000000000e+00 -1.7407325525138933e+01 7.7856604382195719e+03 0.0000000000000000e+00 0.0000000000000000e+00 0.0000000000000000e+00 0.0000000000000000e+00  2.2102088817598657e+00 -1.2755923995918076e+01 0.0000000000000000e+00 -1.2755923995918314e+01 7.6038852433205448e+03 0.0000000000000000e+00 0.0000000000000000e+00 0.0000000000000000e+00 0.0000000000000000e+00  -1.3131511046193078e+00 -1.4121197383485660e+01 0.0000000000000000e+00 -1.4121197383485720e+01 7.4246643571477289e+03 0.0000000000000000e+00 0.0000000000000000e+00 0.0000000000000000e+00 0.0000000000000000e+00  1.9715982295972587e+01 -1.3035818630647325e+01 0.0000000000000000e+00 -1.3035818630647187e+01 7.1661691798277152e+03 0.0000000000000000e+00 0.0000000000000000e+00 0.0000000000000000e+00 0.0000000000000000e+00  -2.0830333180263541e+01 -1.4534988301623374e+01 0.0000000000000000e+00 -1.4534988301623043e+01 6.8159444380301757e+03 0.0000000000000000e+00 0.0000000000000000e+00 0.0000000000000000e+00 0.0000000000000000e+00  5.4194568845741315e+01 -7.0397936801335476e+01 0.0000000000000000e+00 -7.0397936801334822e+01 6.3061266730054358e+03 0.0000000000000000e+00 0.0000000000000000e+00 0.0000000000000000e+00 0.0000000000000000e+00  -1.8419651621172669e+01 -3.2859043632409858e+01 0.0000000000000000e+00 -3.2859043632410469e+01 5.6393342356862795e+03 0.0000000000000000e+00 0.0000000000000000e+00 0.0000000000000000e+00 0.0000000000000000e+00  -5.8629435402876986e+00 -1.6262645804035881e+02 0.0000000000000000e+00 -1.6262645804036038e+02 4.4870594778152181e+03 0.0000000000000000e+00 0.0000000000000000e+00 0.0000000000000000e+00 0.0000000000000000e+00  4.0995516909254341e+01 -2.5429009458177771e+02 0.0000000000000000e+00 -2.5429009458177660e+02 3.0665804806350202e+03 0.0000000000000000e+00 0.0000000000000000e+00 0.0000000000000000e+00 0.0000000000000000e+00  1.8276830451135459e+02 -1.2927940474070132e+02 0.0000000000000000e+00 -1.2927940474070226e+02 1.0023946917834674e+03 0.0000000000000000e+00 0.0000000000000000e+00 0.0000000000000000e+00 0.0000000000000000e+00  -8.1874708876121609e+00 3.6968314138856645e-01 0.0000000000000000e+00 3.6968314138855179e-01 8.0332380020576193e+03 0.0000000000000000e+00 0.0000000000000000e+00 0.0000000000000000e+00 0.0000000000000000e+00  -4.0688861750567384e+01 -3.0693620471478938e-01 0.0000000000000000e+00 -3.0693620471472294e-01 8.0990955278627680e+03 0.0000000000000000e+00 0.0000000000000000e+00 0.0000000000000000e+00 0.0000000000000000e+00  -9.0389513168489017e+01 2.3805084415584452e+00 0.0000000000000000e+00 2.3805084415584488e+00 8.1989638988931110e+03 0.0000000000000000e+00 0.0000000000000000e+00 0.0000000000000000e+00 0.0000000000000000e+00  -1.4803495603605592e+02 6.1580244103772594e-02 0.0000000000000000e+00 6.1580244103758841e-02 8.3108732096368658e+03 0.0000000000000000e+00 0.0000000000000000e+00 0.0000000000000000e+00 0.0000000000000000e+00  -1.9920314444757346e+02 3.1644475345542586e+00 0.0000000000000000e+00 3.1644475345542755e+00 8.4461326959386770e+03 0.0000000000000000e+00 0.0000000000000000e+00 0.0000000000000000e+00 0.0000000000000000e+00  -2.5231199650586666e+02 -1.7091088867894874e-01 0.0000000000000000e+00 -1.7091088867895740e-01 8.5787201182534773e+03 0.0000000000000000e+00 0.0000000000000000e+00 0.0000000000000000e+00 0.0000000000000000e+00  -3.0260061141578490e+02 1.0590359380478954e-01 0.0000000000000000e+00 1.0590359380480936e-01 8.6936226227518164e+03 0.0000000000000000e+00 0.0000000000000000e+00 0.0000000000000000e+00 0.0000000000000000e+00  -3.2917075134182221e+02 -7.6799711191302034e-01 0.0000000000000000e+00 -7.6799711191301367e-01 8.8166082481479389e+03 0.0000000000000000e+00 0.0000000000000000e+00 0.0000000000000000e+00 0.0000000000000000e+00  -3.5422916569178216e+02 3.3565455970459485e-01 0.0000000000000000e+00 3.3565455970460678e-01 8.8959786742218148e+03 0.0000000000000000e+00 0.0000000000000000e+00 0.0000000000000000e+00 0.0000000000000000e+00  -3.6955475638248652e+02 -1.0517031036567015e+00 0.0000000000000000e+00 -1.0517031036566986e+00 8.9739285701921799e+03 0.0000000000000000e+00 0.0000000000000000e+00 0.0000000000000000e+00 0.0000000000000000e+00  -3.7268415578327989e+02 -7.0133134953793663e-01 0.0000000000000000e+00 -7.0133134953793730e-01 9.0324188335030776e+03 0.0000000000000000e+00 0.0000000000000000e+00 0.0000000000000000e+00 0.0000000000000000e+00  -3.6931900454657620e+02 -1.6627479143064898e+00 0.0000000000000000e+00 -1.6627479143064952e+00 9.0731588596612546e+03 0.0000000000000000e+00 0.0000000000000000e+00 0.0000000000000000e+00 0.0000000000000000e+00  -3.6075844927100945e+02 -9.9918299511045028e-01 0.0000000000000000e+00 -9.9918299511044872e-01 9.1020124681503876e+03 0.0000000000000000e+00 0.0000000000000000e+00 0.0000000000000000e+00 0.0000000000000000e+00  -3.4955175445133625e+02 -5.3233786913145698e-01 0.0000000000000000e+00 -5.3233786913145875e-01 9.1202759634906106e+03 0.0000000000000000e+00 0.0000000000000000e+00 0.0000000000000000e+00 0.0000000000000000e+00  -3.3504607732159081e+02 -8.3909084664110356e-01 0.0000000000000000e+00 -8.3909084664109390e-01 9.1281298847557919e+03 0.0000000000000000e+00 0.0000000000000000e+00 0.0000000000000000e+00 0.0000000000000000e+00  -3.1994817861584892e+02 -1.0542342628831387e+00 0.0000000000000000e+00 -1.0542342628831411e+00 9.1290046608130724e+03 0.0000000000000000e+00 0.0000000000000000e+00 0.0000000000000000e+00 0.0000000000000000e+00  -3.0551486399311716e+02 -5.0735445319156214e-01 0.0000000000000000e+00 -5.0735445319155703e-01 9.1228780447135850e+03 0.0000000000000000e+00 0.0000000000000000e+00 0.0000000000000000e+00 0.0000000000000000e+00  -2.9111937041065920e+02 -6.9550753961184020e-01 0.0000000000000000e+00 -6.9550753961183454e-01 9.1127701233263724e+03 0.0000000000000000e+00 0.0000000000000000e+00 0.0000000000000000e+00 0.0000000000000000e+00  -2.7804149602386104e+02 -3.3407971826453398e-01 0.0000000000000000e+00 -3.3407971826454685e-01 9.0983412045130499e+03 0.0000000000000000e+00 0.0000000000000000e+00 0.0000000000000000e+00 0.0000000000000000e+00  -2.6562262502422828e+02 -3.1625841462483473e-01 0.0000000000000000e+00 -3.1625841462484205e-01 9.0798569495009378e+03 0.0000000000000000e+00 0.0000000000000000e+00 0.0000000000000000e+00 0.0000000000000000e+00  -2.5460242741856513e+02 -1.6432941569221865e-01 0.0000000000000000e+00 -1.6432941569223058e-01 9.0586216980196805e+03 0.0000000000000000e+00 0.0000000000000000e+00 0.0000000000000000e+00 0.0000000000000000e+00  -2.4375976996329695e+02 -8.8198809883430443e-02 0.0000000000000000e+00 -8.8198809883421311e-02 9.0348139800127428e+03 0.0000000000000000e+00 0.0000000000000000e+00 0.0000000000000000e+00 0.0000000000000000e+00  -2.3423379589496653e+02 -7.5232580133320917e-02 0.0000000000000000e+00 -7.5232580133303292e-02 9.0073320294572441e+03 0.0000000000000000e+00 0.0000000000000000e+00 0.0000000000000000e+00 0.0000000000000000e+00  -2.2380688544994854e+02 -5.0087005936020820e-02 0.0000000000000000e+00 -5.0087005936036613e-02 8.9771377908964059e+03 0.0000000000000000e+00 0.0000000000000000e+00 0.0000000000000000e+00 0.0000000000000000e+00  -2.1424840903152625e+02 -1.3518683461701955e-01 0.0000000000000000e+00 -1.3518683461703437e-01 8.9440777346753748e+03 0.0000000000000000e+00 0.0000000000000000e+00 0.0000000000000000e+00 0.0000000000000000e+00  -2.0317206178188675e+02 1.8097662649995877e-01 0.0000000000000000e+00 1.8097662649997290e-01 8.9078366187481788e+03 0.0000000000000000e+00 0.0000000000000000e+00 0.0000000000000000e+00 0.0000000000000000e+00  -1.9137095886559271e+02 -1.2388868298383035e-01 0.0000000000000000e+00 -1.2388868298383526e-01 8.8671719257905315e+03 0.0000000000000000e+00 0.0000000000000000e+00 0.0000000000000000e+00 0.0000000000000000e+00  -1.7858386732402761e+02 2.4628089966460598e-01 0.0000000000000000e+00 2.4628089966460984e-01 8.8242454959995594e+03 0.0000000000000000e+00 0.0000000000000000e+00 0.0000000000000000e+00 0.0000000000000000e+00  -1.6384879251127921e+02 2.4223399823870165e-01 0.0000000000000000e+00 2.4223399823869229e-01 8.7790608594369678e+03 0.0000000000000000e+00 0.0000000000000000e+00 0.0000000000000000e+00 0.0000000000000000e+00  -1.4836639912979834e+02 8.0858409560142688e-02 0.0000000000000000e+00 8.0858409560148614e-02 8.7286042253947817e+03 0.0000000000000000e+00 0.0000000000000000e+00 0.0000000000000000e+00 0.0000000000000000e+00  -1.3027904205046909e+02 -2.3412600732370181e-01 0.0000000000000000e+00 -2.3412600732369609e-01 8.6788736161292891e+03 0.0000000000000000e+00 0.0000000000000000e+00 0.0000000000000000e+00 0.0000000000000000e+00  -1.1268541844315502e+02 -2.3008760677952472e-01 0.0000000000000000e+00 -2.3008760677954168e-01 8.6247694436893653e+03 0.0000000000000000e+00 0.0000000000000000e+00 0.0000000000000000e+00 0.0000000000000000e+00  -9.2226534589912973e+01 -1.9042419091880744e-02 0.0000000000000000e+00 -1.9042419091913256e-02 8.5724070634855871e+03 0.0000000000000000e+00 0.0000000000000000e+00 0.0000000000000000e+00 0.0000000000000000e+00  -7.2822210879555016e+01 -3.6906637399022463e-01 0.0000000000000000e+00 -3.6906637399024383e-01 8.5227407422543583e+03 0.0000000000000000e+00 0.0000000000000000e+00 0.0000000000000000e+00 0.0000000000000000e+00  -5.3392759621661696e+01 -6.6442948072702998e-02 0.0000000000000000e+00 -6.6442948072718527e-02 8.4739580393359574e+03 0.0000000000000000e+00 0.0000000000000000e+00 0.0000000000000000e+00 0.0000000000000000e+00  -3.6077054698693324e+01 -6.9268379224441776e-02 0.0000000000000000e+00 -6.9268379224445814e-02 8.4273209646683190e+03 0.0000000000000000e+00 0.0000000000000000e+00 0.0000000000000000e+00 0.0000000000000000e+00  -2.1110395091950707e+01 -1.2564034412810476e-01 0.0000000000000000e+00 -1.2564034412811415e-01 8.3880704744917530e+03 0.0000000000000000e+00 0.0000000000000000e+00 0.0000000000000000e+00 0.0000000000000000e+00  -9.5692195359855887e+00 1.6455511657704980e-01 0.0000000000000000e+00 1.6455511657705160e-01 8.3554033218448185e+03 0.0000000000000000e+00 0.0000000000000000e+00 0.0000000000000000e+00 0.0000000000000000e+00  -1.3232918247876451e+00 3.0148466454619149e-01 0.0000000000000000e+00 3.0148466454619288e-01 8.3320288245799256e+03 0.0000000000000000e+00 0.0000000000000000e+00 0.0000000000000000e+00 0.0000000000000000e+00  -6.7135024541173507e+01 -1.9184018523894562e+02 0.0000000000000000e+00 -1.9184018523894619e+02 5.2960373368410387e+02 0.0000000000000000e+00 0.0000000000000000e+00 0.0000000000000000e+00 0.0000000000000000e+00  2.8561935708964364e+02 2.6778605137833063e+02 0.0000000000000000e+00 2.6778605137832972e+02 3.3369935289374225e+03 0.0000000000000000e+00 0.0000000000000000e+00 0.0000000000000000e+00 0.0000000000000000e+00  -2.2794178623523160e+02 -7.3719679222335770e+01 0.0000000000000000e+00 -7.3719679222335259e+01 4.3526087856656359e+03 0.0000000000000000e+00 0.0000000000000000e+00 0.0000000000000000e+00 0.0000000000000000e+00  2.0792077699253463e+02 1.5654039853606827e+02 0.0000000000000000e+00 1.5654039853606815e+02 5.8562403112543007e+03 0.0000000000000000e+00 0.0000000000000000e+00 0.0000000000000000e+00 0.0000000000000000e+00  -8.9577616312277158e+01 -5.7287921027219149e+01 0.0000000000000000e+00 -5.7287921027219028e+01 6.2974801180980930e+03 0.0000000000000000e+00 0.0000000000000000e+00 0.0000000000000000e+00 0.0000000000000000e+00  7.5517164033112820e+01 6.7039669824070529e+01 0.0000000000000000e+00 6.7039669824070273e+01 6.9244807216328973e+03 0.0000000000000000e+00 0.0000000000000000e+00 0.0000000000000000e+00 0.0000000000000000e+00  -2.3546870186530423e+01 8.7571897780777963e+00 0.0000000000000000e+00 8.7571897780778514e+00 7.2288221926650476e+03 0.0000000000000000e+00 0.0000000000000000e+00 0.0000000000000000e+00 0.0000000000000000e+00  1.5592499894964213e+01 2.6211102495305500e+01 0.0000000000000000e+00 2.6211102495305742e+01 7.4538141580317360e+03 0.0000000000000000e+00 0.0000000000000000e+00 0.0000000000000000e+00 0.0000000000000000e+00  3.6975631157606186e+00 1.3877196393731710e+01 0.0000000000000000e+00 1.3877196393731687e+01 7.6794777552555133e+03 0.0000000000000000e+00 0.0000000000000000e+00 0.0000000000000000e+00 0.0000000000000000e+00  5.8075483056415500e+00 8.5474403734595050e+00 0.0000000000000000e+00 8.5474403734594961e+00 7.7971609701655170e+03 0.0000000000000000e+00 0.0000000000000000e+00 0.0000000000000000e+00 0.0000000000000000e+00  -3.1219841451734367e+00 1.5206794040676404e+00 0.0000000000000000e+00 1.5206794040675919e+00 7.9058319626345992e+03 0.0000000000000000e+00 0.0000000000000000e+00 0.0000000000000000e+00 0.0000000000000000e+00  5.7626677308171530e+00 4.7634578012423763e+00 0.0000000000000000e+00 4.7634578012423567e+00 7.9535086191944065e+03 0.0000000000000000e+00 0.0000000000000000e+00 0.0000000000000000e+00 0.0000000000000000e+00  -1.8067228133295881e+00 9.9333020467534294e-01 0.0000000000000000e+00 9.9333020467535038e-01 8.0030614969987182e+03 0.0000000000000000e+00 0.0000000000000000e+00 0.0000000000000000e+00 0.0000000000000000e+00  1.2652053545208330e+03 1.3006906989535628e+03 0.0000000000000000e+00 1.3006906989535639e+03 5.0468764050140595e+02 0.0000000000000000e+00 0.0000000000000000e+00 0.0000000000000000e+00 0.0000000000000000e+00  5.4976745311537061e+03 6.0330589996625813e+03 0.0000000000000000e+00 6.0330589996625731e+03 9.7582977253712306e+03 0.0000000000000000e+00 0.0000000000000000e+00 0.0000000000000000e+00 0.0000000000000000e+00  2.7397600825344034e+03 2.7595537578290287e+03 0.0000000000000000e+00 2.7595537578290287e+03 1.3622036916248719e+04 0.0000000000000000e+00 0.0000000000000000e+00 0.0000000000000000e+00 0.0000000000000000e+00  3.4943648971727671e+03 -2.6237129203699610e+03 0.0000000000000000e+00 -2.6237129203699606e+03 1.4275321538230048e+04 0.0000000000000000e+00 0.0000000000000000e+00 0.0000000000000000e+00 0.0000000000000000e+00  3.2746041402048786e+03 -5.6270329211712360e+03 0.0000000000000000e+00 -5.6270329211712351e+03 8.7340375183929755e+03 0.0000000000000000e+00 0.0000000000000000e+00 0.0000000000000000e+00 0.0000000000000000e+00  2.0650674065676453e+03 -1.7183898004410505e+03 0.0000000000000000e+00 -1.7183898004410523e+03 1.1110067171637540e+03 0.0000000000000000e+00 0.0000000000000000e+00 0.0000000000000000e+00 0.0000000000000000e+00  8.6651138047558529e-02 -5.2715684613811842e-01 0.0000000000000000e+00 -5.2715684613812119e-01 8.3188696372809118e+03 0.0000000000000000e+00 0.0000000000