<?xml version="1.0"?>
<VTKFile type="UnstructuredGrid"  version="0.1"  >
<UnstructuredGrid>
<Piece  NumberOfPoints="2165" NumberOfCells="4161">
<Points>
<DataArray  type="Float64"  NumberOfComponents="3"  format="ascii">-3.598637933768527e-16 0.3500000000000001 0  0.05 0.4 0  -3.537405593811159e-16 0.45 0  0 1 0  1 1 0  0.9999999999999997 0.65 0  0.9999999999999997 0.5499999999999999 0  1 0 0  0 0 0  0.0191341716182545 0.3538060233744357 0  0.03535533905932737 0.3646446609406727 0  0.04619397662556433 0.3808658283817455 0  0.04619397662556434 0.4191341716182545 0  0.03535533905932738 0.4353553390593274 0  0.01913417161825449 0.4461939766255644 0  0 0.975 0  0 0.95 0  0 0.9249999999999999 0  0 0.8999999999999998 0  0 0.8749999999999998 0  0 0.8499999999999998 0  0 0.8249999999999997 0  0 0.7999999999999996 0  0 0.7749999999999996 0  0 0.7499999999999996 0  0 0.7249999999999996 0  0 0.6999999999999997 0  0 0.6749999999999998 0  0 0.6499999999999999 0  0 0.6249999999999999 0  0 0.6 0  0 0.575 0  0 0.5499999999999998 0  0 0.5249999999999999 0  0 0.4999999999999998 0  0 0.4749999999999999 0  0.975 1 0  0.95 1 0  0.925 1 0  0.9 1 0  0.875 1 0  0.85 1 0  0.825 1 0  0.8 1 0  0.775 1 0  0.75 1 0  0.725 1 0  0.7 1 0  0.675 1 0  0.65 1 0  0.625 1 0  0.6 1 0  0.575 1 0  0.55 1 0  0.525 1 0  0.5 1 0  0.475 1 0  0.45 1 0  0.425 1 0  0.4 1 0  0.375 1 0  0.35 1 0  0.325 1 0  0.3 1 0  0.275 1 0  0.25 1 0  0.225 1 0  0.2 1 0  0.175 1 0  0.15 1 0  0.125 1 0  0.09999999999999998 1 0  0.07499999999999996 1 0  0.05000000000000004 1 0  0.02500000000000002 1 0  1 0.675 0  1 0.7000000000000001 0  1 0.7250000000000001 0  1 0.7500000000000001 0  1 0.7750000000000001 0  1 0.8000000000000002 0  1 0.8250000000000002 0  1 0.8500000000000002 0  1 0.8750000000000003 0  1 0.9000000000000001 0  1 0.9250000000000002 0  1 0.9500000000000001 0  1 0.9750000000000001 0  0.9783058130441221 0.6450484433951209 0  0.9609084258765985 0.6311744900929367 0  0.9512536043909088 0.6111260466978157 0  0.9512536043909088 0.5888739533021843 0  0.9609084258765985 0.5688255099070633 0  0.9783058130441221 0.554951556604879 0  1 0.02500000000000002 0  1 0.05000000000000004 0  1 0.07500000000000008 0  1 0.1000000000000001 0  1 0.1250000000000001 0  1 0.1500000000000002 0  1 0.1750000000000002 0  1 0.2000000000000003 0  1 0.2250000000000003 0  1 0.2500000000000004 0  1 0.2750000000000004 0  1 0.3000000000000003 0  1 0.3250000000000002 0  1 0.3500000000000001 0  1 0.3750000000000001 0  1 0.3999999999999999 0  1 0.425 0  1 0.45 0  1 0.475 0  1 0.5000000000000001 0  1 0.5249999999999999 0  0.025 0 0  0.05 0 0  0.075 0 0  0.1 0 0  0.125 0 0  0.15 0 0  0.175 0 0  0.2 0 0  0.225 0 0  0.25 0 0  0.275 0 0  0.3 0 0  0.325 0 0  0.35 0 0  0.375 0 0  0.4 0 0  0.425 0 0  0.45 0 0  0.475 0 0  0.5 0 0  0.525 0 0  0.55 0 0  0.575 0 0  0.6 0 0  0.625 0 0  0.65 0 0  0.675 0 0  0.7 0 0  0.725 0 0  0.75 0 0  0.775 0 0  0.8 0 0  0.825 0 0  0.85 0 0  0.875 0 0  0.9 0 0  0.925 0 0  0.95 0 0  0.975 0 0  0 0.3250000000000001 0  0 0.3 0  0 0.275 0  0 0.2499999999999999 0  0 0.2249999999999999 0  0 0.1999999999999998 0  0 0.1749999999999998 0  0 0.1499999999999998 0  0 0.1249999999999998 0  0 0.09999999999999987 0  0 0.07499999999999984 0  0 0.04999999999999993 0  0 0.02500000000000002 0  0.06453325334544308 0.4134708543086404 0  0.5146839915088474 0.02134387884913819 0  0.4875871001393628 0.9784117024331356 0  0.9386300160094723 0.5701776715936071 0  0.0216506350946109 0.6124999999999999 0  0.9764205887290853 0.3596067946540696 0  0.3876261045932067 0.02156097490657183 0  0.6125 0.978349364905389 0  0.3612127461797463 0.9792371404802113 0  0.6374786650398092 0.02079982608537345 0  0.9387185538472446 0.6295115890709873 0  0.05482260092545593 0.3633687091864355 0  0.02445354803948679 0.7343198207875321 0  0.2624888813627476 0.02091671348578122 0  0.7375212991274043 0.9794996488945376 0  0.9793010831723812 0.2648509348664836 0  0.2625026480689301 0.9795699185263282 0  0.7362840788105066 0.02225211062275217 0  0.02159327910297104 0.2128861809896528 0  0.9786837570973538 0.7867241244631172 0  0.02419728000065929 0.8365600234152764 0  0.980043283615984 0.1624097203408714 0  0.1645857434226354 0.0205513501962844 0  0.8339481359352011 0.9784483546369231 0  0.1637584777222821 0.9774556328160621 0  0.8374916614314967 0.02165097219510076 0  0.02171915379676059 0.5370700005916152 0  0.9795335762511281 0.4365726939225819 0  0.02319480745007968 0.1370197632171214 0  0.9774462976085161 0.8592616917551974 0  0.9786941241076723 0.7122511101067891 0  0.9797883857882621 0.08781864217752949 0  0.01966314788989931 0.9125801876811624 0  0.02051815350151098 0.2882126194470174 0  0.09063226699593246 0.0214884092697174 0  0.9124408843562394 0.9818463395009377 0  0.03872465516591678 0.452731089005145 0  0.08969424365256845 0.978412979507602 0  0.9124999999999999 0.02165063509461096 0  0.02158104789437187 0.6619299176372371 0  0.9796602354625652 0.4859004208706154 0  0.3127517983598529 0.02417963694738812 0  0.4375629605000894 0.02158039900821679 0  0.5643674594196073 0.01968996000301126 0  0.5368361594956101 0.9790428840407062 0  0.4376176251051295 0.9783667484208922 0  0.6874072695660477 0.978435143102373 0  0.310604317388614 0.979558305560928 0  0.2125577044121564 0.02066685543111635 0  0.6875 0.0216506350946109 0  0.02224009810917643 0.08811420611559456 0  0.790876428529276 0.978633065284896 0  0.2125 0.978349364905389 0  0.9788033534786624 0.2116925349935155 0  0.9769441169344462 0.3150381335760689 0  0.9804648376981185 0.9123186437266726 0  0.7874999988222203 0.02127957051165741 0  0.02109233852270731 0.786866823287435 0  0.9483709287873718 0.5504073206521916 0  0.9259842326464427 0.5519702047534598 0  0.9163209045278007 0.5719292915927929 0  0.9035374059862284 0.5537291796040291 0  0.8938951918780048 0.5738949757882954 0  0.8807940177559743 0.5546750869516996 0  0.8712661812741653 0.5757142549099102 0  0.8580668865514332 0.5563902430113601 0  0.848508161986991 0.5779004013072002 0  0.8354274200119249 0.5591176379057713 0  0.8256349826905482 0.5800610629400762 0  0.8124123591208572 0.5604454546391737 0  0.802603410938817 0.5819653950592523 0  0.7892876429890218 0.562234610648543 0  0.7794355871850538 0.583896242519796 0  0.7661469824381839 0.5648243426306435 0  0.7562387679604726 0.5860005456930413 0  0.7429651600512166 0.5669367633461588 0  0.7330846968880171 0.5879590907760761 0  0.7198577999459205 0.5688986880627463 0  0.7297050500533544 0.5479561801187277 0  0.7066243396993471 0.5499068108517552 0  0.6968285086900206 0.5707989520567972 0  0.6836266810714333 0.5519088927359967 0  0.6738604685766018 0.5727655091567184 0  0.6607284761452521 0.5538781923028128 0  0.6697149783704412 0.5321140554135094 0  0.6473436039782401 0.5350050604671006 0  0.6378867365666199 0.5557804038095817 0  0.6246915360243652 0.5362124690568238 0  0.6151175309583405 0.5575933164645619 0  0.6019784180102355 0.5380659376543677 0  0.5924099113505394 0.5593739656462906 0  0.5794110962027638 0.541110021814312 0  0.5697985396917309 0.5614600003719357 0  0.5568468707330213 0.5433212932327446 0  0.5472634011377896 0.5635652141280936 0  0.5343236363495072 0.5451361960661517 0  0.5247877773262166 0.565493591892781 0  0.5118927934227436 0.5470665328397559 0  0.5023398230005425 0.5674381114577953 0  0.5213991904098014 0.5267047787870831 0  0.4990390504096661 0.528649139287786 0  0.6328887517229864 0.5131744321062524 0  0.5085133205790763 0.5083322037773296 0  0.4861972978925295 0.5102540920324363 0  0.4956914791804768 0.4899605513008993 0  0.4734139980312694 0.4918582759645476 0  0.4826986629698439 0.4717164019717278 0  0.460570567761715 0.473509155475794 0  0.4699344541058981 0.4533140529328089 0  0.4477087341565655 0.4550973130597117 0  0.4381733274019614 0.4752901381741884 0  0.4570222843287571 0.4349938694701042 0  0.4348599018247688 0.436728068420533 0  0.5604623134382263 0.581815997002507 0  0.4443612964408632 0.416499823314016 0  0.422056299386984 0.4183730429856528 0  0.4688721528228815 0.4135009841763965 0  0.4315584877924544 0.398120546824229 0  0.4092288692044618 0.3999974286008185 0  0.7463210599443056 0.6070829843371945 0  0.4187270626688335 0.3797365044773463 0  0.3964262302393312 0.3817184136470017 0  0.3869780036193907 0.4018498778543814 0  0.3742423843122406 0.3837055716372927 0  0.3648701490102072 0.4037049758807119 0  0.3518115403926748 0.3858985036587403 0  0.3426146276710081 0.4056777495658291 0  0.3614541441355358 0.3656396497906528 0  0.339026673715919 0.3678724679736439 0  0.3485566370135618 0.3476560889674916 0  0.3264681821394378 0.3496422822523857 0  0.8219942777991693 0.5379143061758643 0  0.3358297439968608 0.3295117748868035 0  0.3137050884585635 0.3314921667582986 0  0.3229980644152205 0.3113561769498422 0  0.3007986024336577 0.3133063832007756 0  0.3441851868720173 0.3085211458266175 0  0.3101966551534752 0.2930273704914169 0  0.287793053707373 0.2950088132226583 0  0.2914417217227097 0.3337427541189321 0  0.2975120686695638 0.2743682539701985 0  0.274864585256681 0.2764253296978281 0  0.816026571618698 0.6006851919544112 0  0.2844672854128698 0.2557011565880619 0  0.2617267434509338 0.2577713002235077 0  0.3072711221189672 0.2536790056475094 0  0.2521588568690318 0.2785072139143895 0  0.2389277409161178 0.2598761196336353 0  0.248448076747058 0.2389478879785275 0  0.5053822153261678 0.4716915524631118 0  0.229548765875869 0.2806542761043101 0  0.2254561407802683 0.2411354049374563 0  0.2350621310805047 0.2199181955146378 0  0.2117782450160163 0.222165061041625 0  0.2214249125635323 0.2008136877065064 0  0.2448758256083499 0.1985732693215908 0  0.197966291680556 0.2031211006951591 0  0.1883147493074436 0.2245564097761413 0  0.8910637266939049 0.5322898364209732 0  0.1748136087708587 0.2051141748992724 0  0.1842088801696792 0.1837087814679069 0  0.1656574100807746 0.2269812054689968 0  0.3554582346764377 0.4236292557112198 0  0.3328979939923831 0.425459320867588 0  0.3460368767112177 0.4435398346083328 0  0.3238464003
[...]
<PointData  Tensors="$\sigma$"> 
<DataArray  type="Float64"  Name="$\sigma$"  NumberOfComponents="9" format="ascii">-3.6391652183299448e+02 -4.2113845896736393e+02 0.0000000000000000e+00 -4.2113845896736439e+02 -1.0538771119793175e+03 0.0000000000000000e+00 0.0000000000000000e+00 0.0000000000000000e+00 0.0000000000000000e+00  3.4854344571804240e+03 3.2762869376720175e+01 0.0000000000000000e+00 3.2762869376717887e+01 1.5347124912003812e+04 0.0000000000000000e+00 0.0000000000000000e+00 0.0000000000000000e+00 0.0000000000000000e+00  -2.9561960371661650e+02 5.3186160596138029e+02 0.0000000000000000e+00 5.3186160596137984e+02 -1.1079466086239468e+03 0.0000000000000000e+00 0.0000000000000000e+00 0.0000000000000000e+00 0.0000000000000000e+00  8.2672206880786595e-02 9.7223176596072070e-01 0.0000000000000000e+00 9.7223176596072181e-01 6.5346728760823707e+03 0.0000000000000000e+00 0.0000000000000000e+00 0.0000000000000000e+00 0.0000000000000000e+00  1.9596966755625840e+00 7.1448936401460966e-02 0.0000000000000000e+00 7.1448936401459176e-02 6.3317591714192176e+03 0.0000000000000000e+00 0.0000000000000000e+00 0.0000000000000000e+00 0.0000000000000000e+00  -4.3573713795152054e+02 -3.9442879766040056e+02 0.0000000000000000e+00 -3.9442879766040033e+02 -1.4341106707966543e+02 0.0000000000000000e+00 0.0000000000000000e+00 0.0000000000000000e+00 0.0000000000000000e+00  2.2816172062587898e+02 -1.7913699732404527e+02 0.0000000000000000e+00 -1.7913699732404484e+02 2.4129141961310796e+02 0.0000000000000000e+00 0.0000000000000000e+00 0.0000000000000000e+00 0.0000000000000000e+00  1.4807133595614255e-01 1.4248648691997373e-01 0.0000000000000000e+00 1.4248648691997817e-01 6.5420651971895031e+03 0.0000000000000000e+00 0.0000000000000000e+00 0.0000000000000000e+00 0.0000000000000000e+00  1.9310015668144458e+03 7.8018400014034944e+02 0.0000000000000000e+00 7.8018400014035024e+02 6.8551297082875444e+03 0.0000000000000000e+00 0.0000000000000000e+00 0.0000000000000000e+00 0.0000000000000000e+00  9.7939014745897907e+02 7.6763409317460037e+02 0.0000000000000000e+00 7.6763409317460128e+02 6.9011231515931604e+02 0.0000000000000000e+00 0.0000000000000000e+00 0.0000000000000000e+00 0.0000000000000000e+00  3.4448373744799742e+03 4.1207208977474038e+03 0.0000000000000000e+00 4.1207208977474038e+03 4.7778778960745303e+03 0.0000000000000000e+00 0.0000000000000000e+00 0.0000000000000000e+00 0.0000000000000000e+00  3.4308362202073758e+03 4.5071313313562123e+03 0.0000000000000000e+00 4.5071313313562132e+03 1.2806622076413045e+04 0.0000000000000000e+00 0.0000000000000000e+00 0.0000000000000000e+00 0.0000000000000000e+00  3.4133537139724872e+03 -4.4720433690602513e+03 0.0000000000000000e+00 -4.4720433690602504e+03 1.2782790930541794e+04 0.0000000000000000e+00 0.0000000000000000e+00 0.0000000000000000e+00 0.0000000000000000e+00  3.4479960112397621e+03 -4.0516406136424584e+03 0.0000000000000000e+00 -4.0516406136424598e+03 5.0972185591904999e+03 0.0000000000000000e+00 0.0000000000000000e+00 0.0000000000000000e+00 0.0000000000000000e+00  9.3718069982659949e+02 -8.7504703315402571e+02 0.0000000000000000e+00 -8.7504703315403015e+02 6.2753601088789003e+02 0.0000000000000000e+00 0.0000000000000000e+00 0.0000000000000000e+00 0.0000000000000000e+00  1.3846372585168182e-01 -2.4907311918818059e-01 0.0000000000000000e+00 -2.4907311918818154e-01 6.5318354205868918e+03 0.0000000000000000e+00 0.0000000000000000e+00 0.0000000000000000e+00 0.0000000000000000e+00  -6.3834946322867250e-02 -8.6329870372257256e-01 0.0000000000000000e+00 -8.6329870372256645e-01 6.5263433125861129e+03 0.0000000000000000e+00 0.0000000000000000e+00 0.0000000000000000e+00 0.0000000000000000e+00  6.2958876527052476e-01 -1.0230385170226353e+00 0.0000000000000000e+00 -1.0230385170226379e+00 6.5176270711121433e+03 0.0000000000000000e+00 0.0000000000000000e+00 0.0000000000000000e+00 0.0000000000000000e+00  -4.5394781923352301e-01 -7.3049304977071239e-01 0.0000000000000000e+00 -7.3049304977070972e-01 6.5041288940251206e+03 0.0000000000000000e+00 0.0000000000000000e+00 0.0000000000000000e+00 0.0000000000000000e+00  4.4994602459844280e-01 -1.2759560748266592e+00 0.0000000000000000e+00 -1.2759560748266774e+00 6.4854935476025294e+03 0.0000000000000000e+00 0.0000000000000000e+00 0.0000000000000000e+00 0.0000000000000000e+00  1.1343048348021778e+00 -2.8728561988476562e+00 0.0000000000000000e+00 -2.8728561988476793e+00 6.4659309153747336e+03 0.0000000000000000e+00 0.0000000000000000e+00 0.0000000000000000e+00 0.0000000000000000e+00  6.0852392937645007e-04 -2.2238190854815651e+00 0.0000000000000000e+00 -2.2238190854815594e+00 6.4318952396903633e+03 0.0000000000000000e+00 0.0000000000000000e+00 0.0000000000000000e+00 0.0000000000000000e+00  -3.9486922420243892e-01 -2.8417678478082631e+00 0.0000000000000000e+00 -2.8417678478082471e+00 6.3987594119728228e+03 0.0000000000000000e+00 0.0000000000000000e+00 0.0000000000000000e+00 0.0000000000000000e+00  1.9171624926554298e+00 -4.3924829315699254e+00 0.0000000000000000e+00 -4.3924829315698748e+00 6.3575908861262251e+03 0.0000000000000000e+00 0.0000000000000000e+00 0.0000000000000000e+00 0.0000000000000000e+00  1.2594048356857863e+00 -6.0944452943557330e+00 0.0000000000000000e+00 -6.0944452943557854e+00 6.3071667509672088e+03 0.0000000000000000e+00 0.0000000000000000e+00 0.0000000000000000e+00 0.0000000000000000e+00  1.9324312808852078e+00 -7.7173206357252040e+00 0.0000000000000000e+00 -7.7173206357252315e+00 6.2213710161326435e+03 0.0000000000000000e+00 0.0000000000000000e+00 0.0000000000000000e+00 0.0000000000000000e+00  1.0984940152389506e+00 -1.2428530180700035e+01 0.0000000000000000e+00 -1.2428530180700049e+01 6.1629879693505973e+03 0.0000000000000000e+00 0.0000000000000000e+00 0.0000000000000000e+00 0.0000000000000000e+00  1.1151803354625229e+00 -9.2659905294552303e+00 0.0000000000000000e+00 -9.2659905294553351e+00 6.0339519145601389e+03 0.0000000000000000e+00 0.0000000000000000e+00 0.0000000000000000e+00 0.0000000000000000e+00  2.0877978079248916e-01 -1.1569992765569960e+01 0.0000000000000000e+00 -1.1569992765570058e+01 5.9086023165652687e+03 0.0000000000000000e+00 0.0000000000000000e+00 0.0000000000000000e+00 0.0000000000000000e+00  1.2730871756084021e+01 -8.5688757319643116e+00 0.0000000000000000e+00 -8.5688757319642761e+00 5.7188433142162794e+03 0.0000000000000000e+00 0.0000000000000000e+00 0.0000000000000000e+00 0.0000000000000000e+00  -1.2242700500551967e+01 -1.2834087314440502e+01 0.0000000000000000e+00 -1.2834087314440449e+01 5.4720640731276353e+03 0.0000000000000000e+00 0.0000000000000000e+00 0.0000000000000000e+00 0.0000000000000000e+00  3.8417312211893467e+01 -5.3803787042774196e+01 0.0000000000000000e+00 -5.3803787042773990e+01 5.0913932967369201e+03 0.0000000000000000e+00 0.0000000000000000e+00 0.0000000000000000e+00 0.0000000000000000e+00  -1.9566901324974467e+01 -2.4620223804920126e+01 0.0000000000000000e+00 -2.4620223804920624e+01 4.5865966893677141e+03 0.0000000000000000e+00 0.0000000000000000e+00 0.0000000000000000e+00 0.0000000000000000e+00  2.8441546814080237e+01 -1.5471834119122835e+02 0.0000000000000000e+00 -1.5471834119122832e+02 3.7335183825628342e+03 0.0000000000000000e+00 0.0000000000000000e+00 0.0000000000000000e+00 0.0000000000000000e+00  -3.6289837919059188e+01 -1.7339111044509596e+02 0.0000000000000000e+00 -1.7339111044509391e+02 2.5287598722865773e+03 0.0000000000000000e+00 0.0000000000000000e+00 0.0000000000000000e+00 0.0000000000000000e+00  1.8237483237533888e+02 -1.7919662130839225e+02 0.0000000000000000e+00 -1.7919662130839276e+02 8.7088993791975656e+02 0.0000000000000000e+00 0.0000000000000000e+00 0.0000000000000000e+00 0.0000000000000000e+00  -5.6664065375530450e+00 3.2969566204606332e-01 0.0000000000000000e+00 3.2969566204606271e-01 6.3475107509176132e+03 0.0000000000000000e+00 0.0000000000000000e+00 0.0000000000000000e+00 0.0000000000000000e+00  -2.8263161944582595e+01 -6.8575952075475510e-02 0.0000000000000000e+00 -6.8575952075449198e-02 6.3915322298144138e+03 0.0000000000000000e+00 0.0000000000000000e+00 0.0000000000000000e+00 0.0000000000000000e+00  -6.2703848371415624e+01 1.7651706636509943e+00 0.0000000000000000e+00 1.7651706636509852e+00 6.4586606393599213e+03 0.0000000000000000e+00 0.0000000000000000e+00 0.0000000000000000e+00 0.0000000000000000e+00  -1.0271577534747613e+02 1.2637493527145482e-01 0.0000000000000000e+00 1.2637493527144067e-01 6.5348243849634109e+03 0.0000000000000000e+00 0.0000000000000000e+00 0.0000000000000000e+00 0.0000000000000000e+00  -1.3820232267485045e+02 2.2517479590588367e+00 0.0000000000000000e+00 2.2517479590588336e+00 6.6270160279930451e+03 0.0000000000000000e+00 0.0000000000000000e+00 0.0000000000000000e+00 0.0000000000000000e+00  -1.7460308353625777e+02 -1.5434643230210215e-01 0.0000000000000000e+00 -1.5434643230209347e-01 6.7172754971236673e+03 0.0000000000000000e+00 0.0000000000000000e+00 0.0000000000000000e+00 0.0000000000000000e+00  -2.0957643742823748e+02 1.2446784360665533e-01 0.0000000000000000e+00 1.2446784360666839e-01 6.7954681268427457e+03 0.0000000000000000e+00 0.0000000000000000e+00 0.0000000000000000e+00 0.0000000000000000e+00  -2.2762344492883679e+02 -5.4536170004564644e-01 0.0000000000000000e+00 -5.4536170004565687e-01 6.8792031317677602e+03 0.0000000000000000e+00 0.0000000000000000e+00 0.0000000000000000e+00 0.0000000000000000e+00  -2.4466510609077463e+02 2.4098377737248333e-01 0.0000000000000000e+00 2.4098377737249130e-01 6.9329492616437938e+03 0.0000000000000000e+00 0.0000000000000000e+00 0.0000000000000000e+00 0.0000000000000000e+00  -2.5501899466311954e+02 -7.3056403528723746e-01 0.0000000000000000e+00 -7.3056403528723624e-01 6.9856629949844291e+03 0.0000000000000000e+00 0.0000000000000000e+00 0.0000000000000000e+00 0.0000000000000000e+00  -2.5690375582380568e+02 -5.0047087267432655e-01 0.0000000000000000e+00 -5.0047087267432722e-01 7.0251343829157959e+03 0.0000000000000000e+00 0.0000000000000000e+00 0.0000000000000000e+00 0.0000000000000000e+00  -2.5439113569539674e+02 -1.1357376539747670e+00 0.0000000000000000e+00 -1.1357376539747690e+00 7.0524522597443320e+03 0.0000000000000000e+00 0.0000000000000000e+00 0.0000000000000000e+00 0.0000000000000000e+00  -2.4834101720271462e+02 -6.6970249772466017e-01 0.0000000000000000e+00 -6.6970249772466195e-01 7.0717594381614563e+03 0.0000000000000000e+00 0.0000000000000000e+00 0.0000000000000000e+00 0.0000000000000000e+00  -2.4051214441509816e+02 -3.8420587430853131e-01 0.0000000000000000e+00 -3.8420587430853825e-01 7.0838583396682807e+03 0.0000000000000000e+00 0.0000000000000000e+00 0.0000000000000000e+00 0.0000000000000000e+00  -2.3047001497245890e+02 -5.5460996117153105e-01 0.0000000000000000e+00 -5.5460996117152239e-01 7.0889133754917657e+03 0.0000000000000000e+00 0.0000000000000000e+00 0.0000000000000000e+00 0.0000000000000000e+00  -2.2008451538175100e+02 -7.1294231728274249e-01 0.0000000000000000e+00 -7.1294231728274171e-01 7.0892809490070613e+03 0.0000000000000000e+00 0.0000000000000000e+00 0.0000000000000000e+00 0.0000000000000000e+00  -2.1016165213094766e+02 -3.4669701547619930e-01 0.0000000000000000e+00 -3.4669701547619353e-01 7.0849106320793944e+03 0.0000000000000000e+00 0.0000000000000000e+00 0.0000000000000000e+00 0.0000000000000000e+00  -2.0033860384641693e+02 -4.6393836180999160e-01 0.0000000000000000e+00 -4.6393836180999481e-01 7.0778729777386679e+03 0.0000000000000000e+00 0.0000000000000000e+00 0.0000000000000000e+00 0.0000000000000000e+00  -1.9140140590721609e+02 -2.1565809186088664e-01 0.0000000000000000e+00 -2.1565809186089263e-01 7.0679297188598503e+03 0.0000000000000000e+00 0.0000000000000000e+00 0.0000000000000000e+00 0.0000000000000000e+00  -1.8295817732220192e+02 -1.9951873165193262e-01 0.0000000000000000e+00 -1.9951873165193537e-01 7.0552501796956121e+03 0.0000000000000000e+00 0.0000000000000000e+00 0.0000000000000000e+00 0.0000000000000000e+00  -1.7547535381758928e+02 -9.4624485615675588e-02 0.0000000000000000e+00 -9.4624485615675588e-02 7.0407130420274962e+03 0.0000000000000000e+00 0.0000000000000000e+00 0.0000000000000000e+00 0.0000000000000000e+00  -1.6811101236699920e+02 -4.4853902799178551e-02 0.0000000000000000e+00 -4.4853902799173520e-02 7.0244029256777649e+03 0.0000000000000000e+00 0.0000000000000000e+00 0.0000000000000000e+00 0.0000000000000000e+00  -1.6166635103774590e+02 -2.4243584742296303e-02 0.0000000000000000e+00 -2.4243584742290693e-02 7.0056019399602092e+03 0.0000000000000000e+00 0.0000000000000000e+00 0.0000000000000000e+00 0.0000000000000000e+00  -1.5456825254930433e+02 -2.0075818313093675e-02 0.0000000000000000e+00 -2.0075818313093897e-02 6.9849516517456832e+03 0.0000000000000000e+00 0.0000000000000000e+00 0.0000000000000000e+00 0.0000000000000000e+00  -1.4807667048023498e+02 -8.4620864733133336e-02 0.0000000000000000e+00 -8.4620864733137499e-02 6.9623377343245766e+03 0.0000000000000000e+00 0.0000000000000000e+00 0.0000000000000000e+00 0.0000000000000000e+00  -1.4049726640089261e+02 1.3582406439559777e-01 0.0000000000000000e+00 1.3582406439560937e-01 6.9375087214632995e+03 0.0000000000000000e+00 0.0000000000000000e+00 0.0000000000000000e+00 0.0000000000000000e+00  -1.3242706377072713e+02 -7.5451354814710839e-02 0.0000000000000000e+00 -7.5451354814703581e-02 6.9096365807847524e+03 0.0000000000000000e+00 0.0000000000000000e+00 0.0000000000000000e+00 0.0000000000000000e+00  -1.2364585523437439e+02 1.7036020824077378e-01 0.0000000000000000e+00 1.7036020824077805e-01 6.8802112131179301e+03 0.0000000000000000e+00 0.0000000000000000e+00 0.0000000000000000e+00 0.0000000000000000e+00  -1.1347571221436846e+02 1.7912400162287537e-01 0.0000000000000000e+00 1.7912400162286549e-01 6.8492286311017233e+03 0.0000000000000000e+00 0.0000000000000000e+00 0.0000000000000000e+00 0.0000000000000000e+00  -1.0282537696999944e+02 4.1794960312026640e-02 0.0000000000000000e+00 4.1794960312025099e-02 6.8145602461132958e+03 0.0000000000000000e+00 0.0000000000000000e+00 0.0000000000000000e+00 0.0000000000000000e+00  -9.0290428574832518e+01 -1.5133871640426394e-01 0.0000000000000000e+00 -1.5133871640426680e-01 6.7804438119368424e+03 0.0000000000000000e+00 0.0000000000000000e+00 0.0000000000000000e+00 0.0000000000000000e+00  -7.8123696681051072e+01 -1.7936242263018665e-01 0.0000000000000000e+00 -1.7936242263018487e-01 6.7433017119456836e+03 0.0000000000000000e+00 0.0000000000000000e+00 0.0000000000000000e+00 0.0000000000000000e+00  -6.3951040490094726e+01 -3.5923714269047571e-02 0.0000000000000000e+00 -3.5923714269069255e-02 6.7073206063217149e+03 0.0000000000000000e+00 0.0000000000000000e+00 0.0000000000000000e+00 0.0000000000000000e+00  -5.0460067224507391e+01 -2.7509220175518401e-01 0.0000000000000000e+00 -2.7509220175518878e-01 6.6733570832154574e+03 0.0000000000000000e+00 0.0000000000000000e+00 0.0000000000000000e+00 0.0000000000000000e+00  -3.7012308871050735e+01 -7.5059585892536029e-02 0.0000000000000000e+00 -7.5059585892532088e-02 6.6398995106210532e+03 0.0000000000000000e+00 0.0000000000000000e+00 0.0000000000000000e+00 0.0000000000000000e+00  -2.4984620417612771e+01 -5.6520180468461780e-02 0.0000000000000000e+00 -5.6520180468461780e-02 6.6080178109507069e+03 0.0000000000000000e+00 0.0000000000000000e+00 0.0000000000000000e+00 0.0000000000000000e+00  -1.4610126418114499e+01 -1.0663956796855674e-01 0.0000000000000000e+00 -1.0663956796855745e-01 6.5812836972204996e+03 0.0000000000000000e+00 0.0000000000000000e+00 0.0000000000000000e+00 0.0000000000000000e+00  -6.6249654959416819e+00 1.0571489959058195e-01 0.0000000000000000e+00 1.0571489959058865e-01 6.5590684841534321e+03 0.0000000000000000e+00 0.0000000000000000e+00 0.0000000000000000e+00 0.0000000000000000e+00  -9.1369982993978438e-01 1.9450370999296215e-01 0.0000000000000000e+00 1.9450370999296010e-01 6.5433224623941933e+03 0.0000000000000000e+00 0.0000000000000000e+00 0.0000000000000000e+00 0.0000000000000000e+00  1.0008682719091485e+02 -1.7438125035191216e+01 0.0000000000000000e+00 -1.7438125035191092e+01 5.6931842646777670e+02 0.0000000000000000e+00 0.0000000000000000e+00 0.0000000000000000e+00 0.0000000000000000e+00  1.8750638260160011e+02 1.8083137769467368e+02 0.0000000000000000e+00 1.8083137769467373e+02 2.7267949181581425e+03 0.0000000000000000e+00 0.0000000000000000e+00 0.0000000000000000e+00 0.0000000000000000e+00  -9.5153319073096043e+01 -1.1517162590547959e-01 0.0000000000000000e+00 -1.1517162590589174e-01 3.7305749551004933e+03 0.0000000000000000e+00 0.0000000000000000e+00 0.0000000000000000e+00 0.0000000000000000e+00  1.0277054765296432e+02 8.9681640092565033e+01 0.0000000000000000e+00 8.9681640092565999e+01 4.7369793082638098e+03 0.0000000000000000e+00 0.0000000000000000e+00 0.0000000000000000e+00 0.0000000000000000e+00  -3.6884710467823375e+01 -2.4883141957130459e+01 0.0000000000000000e+00 -2.4883141957130256e+01 5.1386955922275038e+03 0.0000000000000000e+00 0.0000000000000000e+00 0.0000000000000000e+00 0.0000000000000000e+00  4.1902179985449337e+01 4.0388528170359592e+01 0.0000000000000000e+00 4.0388528170359685e+01 5.5639367407833233e+03 0.0000000000000000e+00 0.0000000000000000e+00 0.0000000000000000e+00 0.0000000000000000e+00  -1.1756154199762445e+01 9.9212624483464431e+00 0.0000000000000000e+00 9.9212624483464449e+00 5.7893895519682046e+03 0.0000000000000000e+00 0.0000000000000000e+00 0.0000000000000000e+00 0.0000000000000000e+00  8.0873251161871451e+00 1.8637590530270579e+01 0.0000000000000000e+00 1.8637590530270593e+01 5.9474050693421168e+03 0.0000000000000000e+00 0.0000000000000000e+00 0.0000000000000000e+00 0.0000000000000000e+00  2.4652022216474490e+00 9.4708905056332746e+00 0.0000000000000000e+00 9.4708905056333101e+00 6.1024274848486257e+03 0.0000000000000000e+00 0.0000000000000000e+00 0.0000000000000000e+00 0.0000000000000000e+00  4.1497298295570246e+00 6.4904285453302517e+00 0.0000000000000000e+00 6.4904285453302570e+00 6.1879052533379181e+03 0.0000000000000000e+00 0.0000000000000000e+00 0.0000000000000000e+00 0.0000000000000000e+00  -2.3640070097608983e+00 7.7486036513176648e-01 0.0000000000000000e+00 7.7486036513175716e-01 6.2610235980540119e+03 0.0000000000000000e+00 0.0000000000000000e+00 0.0000000000000000e+00 0.0000000000000000e+00  4.0108519807489804e+00 3.3392028699644625e+00 0.0000000000000000e+00 3.3392028699644873e+00 6.2952501759828292e+03 0.0000000000000000e+00 0.0000000000000000e+00 0.0000000000000000e+00 0.0000000000000000e+00  -1.2169462277762522e+00 5.7845522673945649e-01 0.0000000000000000e+00 5.7845522673945649e-01 6.3289515078067107e+03 0.0000000000000000e+00 0.0000000000000000e+00 0.0000000000000000e+00 0.0000000000000000e+00  1.3288247240872738e+03 9.3101886491563926e+02 0.0000000000000000e+00 9.3101886491564255e+02 6.4572088770755192e+02 0.0000000000000000e+00 0.0000000000000000e+00 0.0000000000000000e+00 0.0000000000000000e+00  3.7848292098417019e+03 5.5073119420333751e+03 0.0000000000000000e+00 5.5073119420333705e+03 8.4083251618028826e+03 0.0000000000000000e+00 0.0000000000000000e+00 0.0000000000000000e+00 0.0000000000000000e+00  3.1688286089152425e+03 2.9295554403753504e+03 0.0000000000000000e+00 2.9295554403753486e+03 1.4719631683068230e+04 0.0000000000000000e+00 0.0000000000000000e+00 0.0000000000000000e+00 0.0000000000000000e+00  3.4584226259019033e+03 -2.4879971641500597e+03 0.0000000000000000e+00 -2.4879971641500629e+03 1.5387310188426653e+04 0.0000000000000000e+00 0.0000000000000000e+00 0.0000000000000000e+00 0.0000000000000000e+00  2.3863761197728641e+03 -5.1508148560194240e+03 0.0000000000000000e+00 -5.1508148560194186e+03 8.0089758330569803e+03 0.0000000000000000e+00 0.0000000000000000e+00 0.0000000000000000e+00 0.0000000000000000e+00  1.5902102665662121e+03 -1.3550453546717808e+03 0.0000000000000000e+00 -1.3550453546717783e+03 9.9109764933843769e+02 0.0000000000000000e+00 0.0000000000000000e+00 0.0000000000000000e+00 0.0000000000000000e+00  6.0181845850814382e-02 -3.2902401606044446e-01 0.0000000000000000e+00 -3.2902401606044684e-01 6.5408448374162272e+03 0.0000000000000000e+00 0.00000000000000