<?xml version="1.0"?>
<VTKFile type="UnstructuredGrid"  version="0.1"  >
<UnstructuredGrid>
<Piece  NumberOfPoints="2165" NumberOfCells="4161">
<Points>
<DataArray  type="Float64"  NumberOfComponents="3"  format="ascii">-3.598637933768527e-16 0.3500000000000001 0  0.05 0.4 0  -3.537405593811159e-16 0.45 0  0 1 0  1 1 0  0.9999999999999997 0.65 0  0.9999999999999997 0.5499999999999999 0  1 0 0  0 0 0  0.0191341716182545 0.3538060233744357 0  0.03535533905932737 0.3646446609406727 0  0.04619397662556433 0.3808658283817455 0  0.04619397662556434 0.4191341716182545 0  0.03535533905932738 0.4353553390593274 0  0.01913417161825449 0.4461939766255644 0  0 0.975 0  0 0.95 0  0 0.9249999999999999 0  0 0.8999999999999998 0  0 0.8749999999999998 0  0 0.8499999999999998 0  0 0.8249999999999997 0  0 0.7999999999999996 0  0 0.7749999999999996 0  0 0.7499999999999996 0  0 0.7249999999999996 0  0 0.6999999999999997 0  0 0.6749999999999998 0  0 0.6499999999999999 0  0 0.6249999999999999 0  0 0.6 0  0 0.575 0  0 0.5499999999999998 0  0 0.5249999999999999 0  0 0.4999999999999998 0  0 0.4749999999999999 0  0.975 1 0  0.95 1 0  0.925 1 0  0.9 1 0  0.875 1 0  0.85 1 0  0.825 1 0  0.8 1 0  0.775 1 0  0.75 1 0  0.725 1 0  0.7 1 0  0.675 1 0  0.65 1 0  0.625 1 0  0.6 1 0  0.575 1 0  0.55 1 0  0.525 1 0  0.5 1 0  0.475 1 0  0.45 1 0  0.425 1 0  0.4 1 0  0.375 1 0  0.35 1 0  0.325 1 0  0.3 1 0  0.275 1 0  0.25 1 0  0.225 1 0  0.2 1 0  0.175 1 0  0.15 1 0  0.125 1 0  0.09999999999999998 1 0  0.07499999999999996 1 0  0.05000000000000004 1 0  0.02500000000000002 1 0  1 0.675 0  1 0.7000000000000001 0  1 0.7250000000000001 0  1 0.7500000000000001 0  1 0.7750000000000001 0  1 0.8000000000000002 0  1 0.8250000000000002 0  1 0.8500000000000002 0  1 0.8750000000000003 0  1 0.9000000000000001 0  1 0.9250000000000002 0  1 0.9500000000000001 0  1 0.9750000000000001 0  0.9783058130441221 0.6450484433951209 0  0.9609084258765985 0.6311744900929367 0  0.9512536043909088 0.6111260466978157 0  0.9512536043909088 0.5888739533021843 0  0.9609084258765985 0.5688255099070633 0  0.9783058130441221 0.554951556604879 0  1 0.02500000000000002 0  1 0.05000000000000004 0  1 0.07500000000000008 0  1 0.1000000000000001 0  1 0.1250000000000001 0  1 0.1500000000000002 0  1 0.1750000000000002 0  1 0.2000000000000003 0  1 0.2250000000000003 0  1 0.2500000000000004 0  1 0.2750000000000004 0  1 0.3000000000000003 0  1 0.3250000000000002 0  1 0.3500000000000001 0  1 0.3750000000000001 0  1 0.3999999999999999 0  1 0.425 0  1 0.45 0  1 0.475 0  1 0.5000000000000001 0  1 0.5249999999999999 0  0.025 0 0  0.05 0 0  0.075 0 0  0.1 0 0  0.125 0 0  0.15 0 0  0.175 0 0  0.2 0 0  0.225 0 0  0.25 0 0  0.275 0 0  0.3 0 0  0.325 0 0  0.35 0 0  0.375 0 0  0.4 0 0  0.425 0 0  0.45 0 0  0.475 0 0  0.5 0 0  0.525 0 0  0.55 0 0  0.575 0 0  0.6 0 0  0.625 0 0  0.65 0 0  0.675 0 0  0.7 0 0  0.725 0 0  0.75 0 0  0.775 0 0  0.8 0 0  0.825 0 0  0.85 0 0  0.875 0 0  0.9 0 0  0.925 0 0  0.95 0 0  0.975 0 0  0 0.3250000000000001 0  0 0.3 0  0 0.275 0  0 0.2499999999999999 0  0 0.2249999999999999 0  0 0.1999999999999998 0  0 0.1749999999999998 0  0 0.1499999999999998 0  0 0.1249999999999998 0  0 0.09999999999999987 0  0 0.07499999999999984 0  0 0.04999999999999993 0  0 0.02500000000000002 0  0.06453325334544308 0.4134708543086404 0  0.5146839915088474 0.02134387884913819 0  0.4875871001393628 0.9784117024331356 0  0.9386300160094723 0.5701776715936071 0  0.0216506350946109 0.6124999999999999 0  0.9764205887290853 0.3596067946540696 0  0.3876261045932067 0.02156097490657183 0  0.6125 0.978349364905389 0  0.3612127461797463 0.9792371404802113 0  0.6374786650398092 0.02079982608537345 0  0.9387185538472446 0.6295115890709873 0  0.05482260092545593 0.3633687091864355 0  0.02445354803948679 0.7343198207875321 0  0.2624888813627476 0.02091671348578122 0  0.7375212991274043 0.9794996488945376 0  0.9793010831723812 0.2648509348664836 0  0.2625026480689301 0.9795699185263282 0  0.7362840788105066 0.02225211062275217 0  0.02159327910297104 0.2128861809896528 0  0.9786837570973538 0.7867241244631172 0  0.02419728000065929 0.8365600234152764 0  0.980043283615984 0.1624097203408714 0  0.1645857434226354 0.0205513501962844 0  0.8339481359352011 0.9784483546369231 0  0.1637584777222821 0.9774556328160621 0  0.8374916614314967 0.02165097219510076 0  0.02171915379676059 0.5370700005916152 0  0.9795335762511281 0.4365726939225819 0  0.02319480745007968 0.1370197632171214 0  0.9774462976085161 0.8592616917551974 0  0.9786941241076723 0.7122511101067891 0  0.9797883857882621 0.08781864217752949 0  0.01966314788989931 0.9125801876811624 0  0.02051815350151098 0.2882126194470174 0  0.09063226699593246 0.0214884092697174 0  0.9124408843562394 0.9818463395009377 0  0.03872465516591678 0.452731089005145 0  0.08969424365256845 0.978412979507602 0  0.9124999999999999 0.02165063509461096 0  0.02158104789437187 0.6619299176372371 0  0.9796602354625652 0.4859004208706154 0  0.3127517983598529 0.02417963694738812 0  0.4375629605000894 0.02158039900821679 0  0.5643674594196073 0.01968996000301126 0  0.5368361594956101 0.9790428840407062 0  0.4376176251051295 0.9783667484208922 0  0.6874072695660477 0.978435143102373 0  0.310604317388614 0.979558305560928 0  0.2125577044121564 0.02066685543111635 0  0.6875 0.0216506350946109 0  0.02224009810917643 0.08811420611559456 0  0.790876428529276 0.978633065284896 0  0.2125 0.978349364905389 0  0.9788033534786624 0.2116925349935155 0  0.9769441169344462 0.3150381335760689 0  0.9804648376981185 0.9123186437266726 0  0.7874999988222203 0.02127957051165741 0  0.02109233852270731 0.786866823287435 0  0.9483709287873718 0.5504073206521916 0  0.9259842326464427 0.5519702047534598 0  0.9163209045278007 0.5719292915927929 0  0.9035374059862284 0.5537291796040291 0  0.8938951918780048 0.5738949757882954 0  0.8807940177559743 0.5546750869516996 0  0.8712661812741653 0.5757142549099102 0  0.8580668865514332 0.5563902430113601 0  0.848508161986991 0.5779004013072002 0  0.8354274200119249 0.5591176379057713 0  0.8256349826905482 0.5800610629400762 0  0.8124123591208572 0.5604454546391737 0  0.802603410938817 0.5819653950592523 0  0.7892876429890218 0.562234610648543 0  0.7794355871850538 0.583896242519796 0  0.7661469824381839 0.5648243426306435 0  0.7562387679604726 0.5860005456930413 0  0.7429651600512166 0.5669367633461588 0  0.7330846968880171 0.5879590907760761 0  0.7198577999459205 0.5688986880627463 0  0.7297050500533544 0.5479561801187277 0  0.7066243396993471 0.5499068108517552 0  0.6968285086900206 0.5707989520567972 0  0.6836266810714333 0.5519088927359967 0  0.6738604685766018 0.5727655091567184 0  0.6607284761452521 0.5538781923028128 0  0.6697149783704412 0.5321140554135094 0  0.6473436039782401 0.5350050604671006 0  0.6378867365666199 0.5557804038095817 0  0.6246915360243652 0.5362124690568238 0  0.6151175309583405 0.5575933164645619 0  0.6019784180102355 0.5380659376543677 0  0.5924099113505394 0.5593739656462906 0  0.5794110962027638 0.541110021814312 0  0.5697985396917309 0.5614600003719357 0  0.5568468707330213 0.5433212932327446 0  0.5472634011377896 0.5635652141280936 0  0.5343236363495072 0.5451361960661517 0  0.5247877773262166 0.565493591892781 0  0.5118927934227436 0.5470665328397559 0  0.5023398230005425 0.5674381114577953 0  0.5213991904098014 0.5267047787870831 0  0.4990390504096661 0.528649139287786 0  0.6328887517229864 0.5131744321062524 0  0.5085133205790763 0.5083322037773296 0  0.4861972978925295 0.5102540920324363 0  0.4956914791804768 0.4899605513008993 0  0.4734139980312694 0.4918582759645476 0  0.4826986629698439 0.4717164019717278 0  0.460570567761715 0.473509155475794 0  0.4699344541058981 0.4533140529328089 0  0.4477087341565655 0.4550973130597117 0  0.4381733274019614 0.4752901381741884 0  0.4570222843287571 0.4349938694701042 0  0.4348599018247688 0.436728068420533 0  0.5604623134382263 0.581815997002507 0  0.4443612964408632 0.416499823314016 0  0.422056299386984 0.4183730429856528 0  0.4688721528228815 0.4135009841763965 0  0.4315584877924544 0.398120546824229 0  0.4092288692044618 0.3999974286008185 0  0.7463210599443056 0.6070829843371945 0  0.4187270626688335 0.3797365044773463 0  0.3964262302393312 0.3817184136470017 0  0.3869780036193907 0.4018498778543814 0  0.3742423843122406 0.3837055716372927 0  0.3648701490102072 0.4037049758807119 0  0.3518115403926748 0.3858985036587403 0  0.3426146276710081 0.4056777495658291 0  0.3614541441355358 0.3656396497906528 0  0.339026673715919 0.3678724679736439 0  0.3485566370135618 0.3476560889674916 0  0.3264681821394378 0.3496422822523857 0  0.8219942777991693 0.5379143061758643 0  0.3358297439968608 0.3295117748868035 0  0.3137050884585635 0.3314921667582986 0  0.3229980644152205 0.3113561769498422 0  0.3007986024336577 0.3133063832007756 0  0.3441851868720173 0.3085211458266175 0  0.3101966551534752 0.2930273704914169 0  0.287793053707373 0.2950088132226583 0  0.2914417217227097 0.3337427541189321 0  0.2975120686695638 0.2743682539701985 0  0.274864585256681 0.2764253296978281 0  0.816026571618698 0.6006851919544112 0  0.2844672854128698 0.2557011565880619 0  0.2617267434509338 0.2577713002235077 0  0.3072711221189672 0.2536790056475094 0  0.2521588568690318 0.2785072139143895 0  0.2389277409161178 0.2598761196336353 0  0.248448076747058 0.2389478879785275 0  0.5053822153261678 0.4716915524631118 0  0.229548765875869 0.2806542761043101 0  0.2254561407802683 0.2411354049374563 0  0.2350621310805047 0.2199181955146378 0  0.2117782450160163 0.222165061041625 0  0.2214249125635323 0.2008136877065064 0  0.2448758256083499 0.1985732693215908 0  0.197966291680556 0.2031211006951591 0  0.1883147493074436 0.2245564097761413 0  0.8910637266939049 0.5322898364209732 0  0.1748136087708587 0.2051141748992724 0  0.1842088801696792 0.1837087814679069 0  0.1656574100807746 0.2269812054689968 0  0.3554582346764377 0.4236292557112198 0  0.3328979939923831 0.425459320867588 0  0.3460368767112177 0.4435398346083328 0  0.3238464003
[...]
<PointData  Tensors="$\sigma$"> 
<DataArray  type="Float64"  Name="$\sigma$"  NumberOfComponents="9" format="ascii">-2.9816432680155452e+02 -3.5981333452855495e+02 0.0000000000000000e+00 -3.5981333452855432e+02 -8.8924557722438533e+02 0.0000000000000000e+00 0.0000000000000000e+00 0.0000000000000000e+00 0.0000000000000000e+00  2.2679487312161350e+03 4.5646127738823168e+01 0.0000000000000000e+00 4.5646127738823012e+01 1.5398189362464769e+04 0.0000000000000000e+00 0.0000000000000000e+00 0.0000000000000000e+00 0.0000000000000000e+00  -2.5158325337699452e+02 4.4440602396284805e+02 0.0000000000000000e+00 4.4440602396284788e+02 -9.3309032471077580e+02 0.0000000000000000e+00 0.0000000000000000e+00 0.0000000000000000e+00 0.0000000000000000e+00  7.9488472072818325e-02 7.4445175299143207e-01 0.0000000000000000e+00 7.4445175299143351e-01 5.3856303769315073e+03 0.0000000000000000e+00 0.0000000000000000e+00 0.0000000000000000e+00 0.0000000000000000e+00  1.4719444979933916e+00 4.5424016126219116e-02 0.0000000000000000e+00 4.5424016126221177e-02 5.2222755556039583e+03 0.0000000000000000e+00 0.0000000000000000e+00 0.0000000000000000e+00 0.0000000000000000e+00  -3.5284782302198238e+02 -3.3457541829684885e+02 0.0000000000000000e+00 -3.3457541829684834e+02 -1.1067408572980470e+02 0.0000000000000000e+00 0.0000000000000000e+00 0.0000000000000000e+00 0.0000000000000000e+00  1.9453687616575442e+02 -1.3768816065919737e+02 0.0000000000000000e+00 -1.3768816065919717e+02 1.8960156264750560e+02 0.0000000000000000e+00 0.0000000000000000e+00 0.0000000000000000e+00 0.0000000000000000e+00  7.0601359470841868e-02 1.2313750847321052e-01 0.0000000000000000e+00 1.2313750847321342e-01 5.3888391710017886e+03 0.0000000000000000e+00 0.0000000000000000e+00 0.0000000000000000e+00 0.0000000000000000e+00  1.5822880708585435e+03 6.4291811688994369e+02 0.0000000000000000e+00 6.4291811688994471e+02 5.6544606664173480e+03 0.0000000000000000e+00 0.0000000000000000e+00 0.0000000000000000e+00 0.0000000000000000e+00  8.4989724079200766e+02 7.0642517825672212e+02 0.0000000000000000e+00 7.0642517825672314e+02 6.1273349511586071e+02 0.0000000000000000e+00 0.0000000000000000e+00 0.0000000000000000e+00 0.0000000000000000e+00  2.9523895036143531e+03 3.3764744337184284e+03 0.0000000000000000e+00 3.3764744337184284e+03 4.2280331919042901e+03 0.0000000000000000e+00 0.0000000000000000e+00 0.0000000000000000e+00 0.0000000000000000e+00  2.3214461349383705e+03 4.1487791055591306e+03 0.0000000000000000e+00 4.1487791055591288e+03 1.2323929845516735e+04 0.0000000000000000e+00 0.0000000000000000e+00 0.0000000000000000e+00 0.0000000000000000e+00  2.2879088215636361e+03 -4.1593423259800138e+03 0.0000000000000000e+00 -4.1593423259800156e+03 1.2257595613029280e+04 0.0000000000000000e+00 0.0000000000000000e+00 0.0000000000000000e+00 0.0000000000000000e+00  2.9205101875924897e+03 -3.3229500721158374e+03 0.0000000000000000e+00 -3.3229500721158365e+03 4.5165405101448059e+03 0.0000000000000000e+00 0.0000000000000000e+00 0.0000000000000000e+00 0.0000000000000000e+00  8.2592539511914140e+02 -7.7849371802579344e+02 0.0000000000000000e+00 -7.7849371802579446e+02 5.8356767740134228e+02 0.0000000000000000e+00 0.0000000000000000e+00 0.0000000000000000e+00 0.0000000000000000e+00  8.8714143705088469e-02 -1.8730673762378566e-01 0.0000000000000000e+00 -1.8730673762378611e-01 5.3833560013978067e+03 0.0000000000000000e+00 0.0000000000000000e+00 0.0000000000000000e+00 0.0000000000000000e+00  -3.3305273195133912e-02 -7.0344684716179540e-01 0.0000000000000000e+00 -7.0344684716179218e-01 5.3790909734883726e+03 0.0000000000000000e+00 0.0000000000000000e+00 0.0000000000000000e+00 0.0000000000000000e+00  4.8471890004595336e-01 -8.1346341793834664e-01 0.0000000000000000e+00 -8.1346341793834442e-01 5.3721790938672648e+03 0.0000000000000000e+00 0.0000000000000000e+00 0.0000000000000000e+00 0.0000000000000000e+00  -3.5740178448885374e-01 -5.9448785395349435e-01 0.0000000000000000e+00 -5.9448785395349457e-01 5.3615701676648214e+03 0.0000000000000000e+00 0.0000000000000000e+00 0.0000000000000000e+00 0.0000000000000000e+00  3.2680461846983905e-01 -1.0669948601896952e+00 0.0000000000000000e+00 -1.0669948601897032e+00 5.3469221978980786e+03 0.0000000000000000e+00 0.0000000000000000e+00 0.0000000000000000e+00 0.0000000000000000e+00  9.3838066333660952e-01 -2.3288636573245460e+00 0.0000000000000000e+00 -2.3288636573245669e+00 5.3315243570901021e+03 0.0000000000000000e+00 0.0000000000000000e+00 0.0000000000000000e+00 0.0000000000000000e+00  -5.6522129937624607e-02 -1.7945833854633253e+00 0.0000000000000000e+00 -1.7945833854633348e+00 5.3047070741695961e+03 0.0000000000000000e+00 0.0000000000000000e+00 0.0000000000000000e+00 0.0000000000000000e+00  -2.5144290330229635e-01 -2.3865089500638947e+00 0.0000000000000000e+00 -2.3865089500638801e+00 5.2786751747332673e+03 0.0000000000000000e+00 0.0000000000000000e+00 0.0000000000000000e+00 0.0000000000000000e+00  1.4854188599033649e+00 -3.5760828794207646e+00 0.0000000000000000e+00 -3.5760828794207322e+00 5.2461557427511125e+03 0.0000000000000000e+00 0.0000000000000000e+00 0.0000000000000000e+00 0.0000000000000000e+00  1.0467327872562324e+00 -4.8567223457200637e+00 0.0000000000000000e+00 -4.8567223457201028e+00 5.2065059941935542e+03 0.0000000000000000e+00 0.0000000000000000e+00 0.0000000000000000e+00 0.0000000000000000e+00  1.2936912067120032e+00 -6.1722376548880131e+00 0.0000000000000000e+00 -6.1722376548880060e+00 5.1385634553462087e+03 0.0000000000000000e+00 0.0000000000000000e+00 0.0000000000000000e+00 0.0000000000000000e+00  8.3813843927458909e-01 -1.0025786507021895e+01 0.0000000000000000e+00 -1.0025786507021881e+01 5.0927743149579819e+03 0.0000000000000000e+00 0.0000000000000000e+00 0.0000000000000000e+00 0.0000000000000000e+00  6.1289311339315322e-01 -7.4690664932843847e+00 0.0000000000000000e+00 -7.4690664932844433e+00 4.9900728961075274e+03 0.0000000000000000e+00 0.0000000000000000e+00 0.0000000000000000e+00 0.0000000000000000e+00  8.8791011024667721e-01 -1.0102356124397588e+01 0.0000000000000000e+00 -1.0102356124397643e+01 4.8918590270031673e+03 0.0000000000000000e+00 0.0000000000000000e+00 0.0000000000000000e+00 0.0000000000000000e+00  9.0323236426519848e+00 -6.4187826956114273e+00 0.0000000000000000e+00 -6.4187826956113287e+00 4.7387994666539271e+03 0.0000000000000000e+00 0.0000000000000000e+00 0.0000000000000000e+00 0.0000000000000000e+00  -7.8341317494801430e+00 -1.1774208800052641e+01 0.0000000000000000e+00 -1.1774208800052268e+01 4.5444753889414715e+03 0.0000000000000000e+00 0.0000000000000000e+00 0.0000000000000000e+00 0.0000000000000000e+00  2.8166828779232620e+01 -4.3942907055035015e+01 0.0000000000000000e+00 -4.3942907055035207e+01 4.2367985941398920e+03 0.0000000000000000e+00 0.0000000000000000e+00 0.0000000000000000e+00 0.0000000000000000e+00  -1.4292925682878286e+01 -2.3209998262932832e+01 0.0000000000000000e+00 -2.3209998262933063e+01 3.8293347535926937e+03 0.0000000000000000e+00 0.0000000000000000e+00 0.0000000000000000e+00 0.0000000000000000e+00  2.5892391407840353e+01 -1.3206940725444079e+02 0.0000000000000000e+00 -1.3206940725444093e+02 3.1365134827503998e+03 0.0000000000000000e+00 0.0000000000000000e+00 0.0000000000000000e+00 0.0000000000000000e+00  -4.1008161090902973e+01 -1.4508002498043058e+02 0.0000000000000000e+00 -1.4508002498042973e+02 2.1315218820137402e+03 0.0000000000000000e+00 0.0000000000000000e+00 0.0000000000000000e+00 0.0000000000000000e+00  1.6744309164997571e+02 -1.6977441678960915e+02 0.0000000000000000e+00 -1.6977441678960827e+02 7.5617307689307904e+02 0.0000000000000000e+00 0.0000000000000000e+00 0.0000000000000000e+00 0.0000000000000000e+00  -4.4777320734705475e+00 2.6299662726165163e-01 0.0000000000000000e+00 2.6299662726164702e-01 5.2342778974146859e+03 0.0000000000000000e+00 0.0000000000000000e+00 0.0000000000000000e+00 0.0000000000000000e+00  -2.2490006009643917e+01 -1.0730835715652710e-02 0.0000000000000000e+00 -1.0730835715641974e-02 5.2690724536940088e+03 0.0000000000000000e+00 0.0000000000000000e+00 0.0000000000000000e+00 0.0000000000000000e+00  -4.9814009935451587e+01 1.4167841309497902e+00 0.0000000000000000e+00 1.4167841309497884e+00 5.3219122829210237e+03 0.0000000000000000e+00 0.0000000000000000e+00 0.0000000000000000e+00 0.0000000000000000e+00  -8.1660825849099979e+01 1.2339272807810067e-01 0.0000000000000000e+00 1.2339272807809545e-01 5.3821760753150138e+03 0.0000000000000000e+00 0.0000000000000000e+00 0.0000000000000000e+00 0.0000000000000000e+00  -1.0973473576609170e+02 1.8583024931405154e+00 0.0000000000000000e+00 1.8583024931404950e+00 5.4553678803153252e+03 0.0000000000000000e+00 0.0000000000000000e+00 0.0000000000000000e+00 0.0000000000000000e+00  -1.3849494084729665e+02 -1.3276475795247655e-01 0.0000000000000000e+00 -1.3276475795246181e-01 5.5268202090038803e+03 0.0000000000000000e+00 0.0000000000000000e+00 0.0000000000000000e+00 0.0000000000000000e+00  -1.6637017497173613e+02 8.7300509377225194e-02 0.0000000000000000e+00 8.7300509377241611e-02 5.5885928889826046e+03 0.0000000000000000e+00 0.0000000000000000e+00 0.0000000000000000e+00 0.0000000000000000e+00  -1.8049148624308668e+02 -4.6057279363708770e-01 0.0000000000000000e+00 -4.6057279363708908e-01 5.6549891698439105e+03 0.0000000000000000e+00 0.0000000000000000e+00 0.0000000000000000e+00 0.0000000000000000e+00  -1.9393419223107290e+02 1.9295000348368577e-01 0.0000000000000000e+00 1.9295000348368657e-01 5.6973959179311269e+03 0.0000000000000000e+00 0.0000000000000000e+00 0.0000000000000000e+00 0.0000000000000000e+00  -2.0208982099964800e+02 -5.9720503156307048e-01 0.0000000000000000e+00 -5.9720503156307192e-01 5.7389878596315475e+03 0.0000000000000000e+00 0.0000000000000000e+00 0.0000000000000000e+00 0.0000000000000000e+00  -2.0347277920184285e+02 -4.5214183016361437e-01 0.0000000000000000e+00 -4.5214183016361392e-01 5.7702273703302080e+03 0.0000000000000000e+00 0.0000000000000000e+00 0.0000000000000000e+00 0.0000000000000000e+00  -2.0139113105622516e+02 -9.1613220126655870e-01 0.0000000000000000e+00 -9.1613220126655937e-01 5.7917475345743151e+03 0.0000000000000000e+00 0.0000000000000000e+00 0.0000000000000000e+00 0.0000000000000000e+00  -1.9652055864527895e+02 -5.4956320607659981e-01 0.0000000000000000e+00 -5.4956320607660469e-01 5.8069958278880540e+03 0.0000000000000000e+00 0.0000000000000000e+00 0.0000000000000000e+00 0.0000000000000000e+00  -1.9024207746751378e+02 -3.5582245224832038e-01 0.0000000000000000e+00 -3.5582245224832637e-01 5.8165349619082581e+03 0.0000000000000000e+00 0.0000000000000000e+00 0.0000000000000000e+00 0.0000000000000000e+00  -1.8221731910250682e+02 -4.6452875674155059e-01 0.0000000000000000e+00 -4.6452875674154798e-01 5.8204960721001471e+03 0.0000000000000000e+00 0.0000000000000000e+00 0.0000000000000000e+00 0.0000000000000000e+00  -1.7395411693458121e+02 -5.8449375431393702e-01 0.0000000000000000e+00 -5.8449375431394102e-01 5.8207762598229892e+03 0.0000000000000000e+00 0.0000000000000000e+00 0.0000000000000000e+00 0.0000000000000000e+00  -1.6601984686779778e+02 -3.1287535398826005e-01 0.0000000000000000e+00 -3.1287535398825600e-01 5.8173407539586151e+03 0.0000000000000000e+00 0.0000000000000000e+00 0.0000000000000000e+00 0.0000000000000000e+00  -1.5822287834368041e+02 -3.8704494581803639e-01 0.0000000000000000e+00 -3.8704494581803689e-01 5.8117895610040150e+03 0.0000000000000000e+00 0.0000000000000000e+00 0.0000000000000000e+00 0.0000000000000000e+00  -1.5109259830333127e+02 -1.9342052884055908e-01 0.0000000000000000e+00 -1.9342052884056324e-01 5.8039609914476350e+03 0.0000000000000000e+00 0.0000000000000000e+00 0.0000000000000000e+00 0.0000000000000000e+00  -1.4438538744761931e+02 -1.7087453876462458e-01 0.0000000000000000e+00 -1.7087453876462141e-01 5.7939924319535858e+03 0.0000000000000000e+00 0.0000000000000000e+00 0.0000000000000000e+00 0.0000000000000000e+00  -1.3843493230090149e+02 -8.7089004303202808e-02 0.0000000000000000e+00 -8.7089004303203557e-02 5.7825671582255900e+03 0.0000000000000000e+00 0.0000000000000000e+00 0.0000000000000000e+00 0.0000000000000000e+00  -1.3258498833936085e+02 -4.5620993185408715e-02 0.0000000000000000e+00 -4.5620993185407341e-02 5.7697256316378671e+03 0.0000000000000000e+00 0.0000000000000000e+00 0.0000000000000000e+00 0.0000000000000000e+00  -1.2747562297245940e+02 -1.8677339557669353e-02 0.0000000000000000e+00 -1.8677339557665748e-02 5.7549578908580352e+03 0.0000000000000000e+00 0.0000000000000000e+00 0.0000000000000000e+00 0.0000000000000000e+00  -1.2184433423436417e+02 -2.6039868136097193e-02 0.0000000000000000e+00 -2.6039868136098435e-02 5.7387351879888120e+03 0.0000000000000000e+00 0.0000000000000000e+00 0.0000000000000000e+00 0.0000000000000000e+00  -1.1670806006177551e+02 -7.3753524004170026e-02 0.0000000000000000e+00 -7.3753524004175591e-02 5.7209964974848936e+03 0.0000000000000000e+00 0.0000000000000000e+00 0.0000000000000000e+00 0.0000000000000000e+00  -1.1071518141846633e+02 1.0216702131027801e-01 0.0000000000000000e+00 1.0216702131028325e-01 5.7014826228029524e+03 0.0000000000000000e+00 0.0000000000000000e+00 0.0000000000000000e+00 0.0000000000000000e+00  -1.0434545563254653e+02 -5.8538606807486772e-02 0.0000000000000000e+00 -5.8538606807485120e-02 5.6795902317213013e+03 0.0000000000000000e+00 0.0000000000000000e+00 0.0000000000000000e+00 0.0000000000000000e+00  -9.7420383770273602e+01 1.2686365689419088e-01 0.0000000000000000e+00 1.2686365689418982e-01 5.6564944509285415e+03 0.0000000000000000e+00 0.0000000000000000e+00 0.0000000000000000e+00 0.0000000000000000e+00  -8.9384480772065444e+01 1.4556876055461515e-01 0.0000000000000000e+00 1.4556876055461090e-01 5.6321689923400363e+03 0.0000000000000000e+00 0.0000000000000000e+00 0.0000000000000000e+00 0.0000000000000000e+00  -8.1019225520938917e+01 2.0314053474088455e-02 0.0000000000000000e+00 2.0314053474089162e-02 5.6049259974211618e+03 0.0000000000000000e+00 0.0000000000000000e+00 0.0000000000000000e+00 0.0000000000000000e+00  -7.1112715425507545e+01 -1.1181733152777464e-01 0.0000000000000000e+00 -1.1181733152777545e-01 5.5781511316903079e+03 0.0000000000000000e+00 0.0000000000000000e+00 0.0000000000000000e+00 0.0000000000000000e+00  -6.1537991504457302e+01 -1.5533848705921369e-01 0.0000000000000000e+00 -1.5533848705921244e-01 5.5489971230014871e+03 0.0000000000000000e+00 0.0000000000000000e+00 0.0000000000000000e+00 0.0000000000000000e+00  -5.0377665554539377e+01 -4.1516276672457310e-02 0.0000000000000000e+00 -4.1516276672473117e-02 5.5207264435721754e+03 0.0000000000000000e+00 0.0000000000000000e+00 0.0000000000000000e+00 0.0000000000000000e+00  -3.9722851320118650e+01 -2.2950062647068534e-01 0.0000000000000000e+00 -2.2950062647068811e-01 5.4941413809801543e+03 0.0000000000000000e+00 0.0000000000000000e+00 0.0000000000000000e+00 0.0000000000000000e+00  -2.9152786549746967e+01 -7.4440223325832042e-02 0.0000000000000000e+00 -7.4440223325829738e-02 5.4678768125263832e+03 0.0000000000000000e+00 0.0000000000000000e+00 0.0000000000000000e+00 0.0000000000000000e+00  -1.9661584296278686e+01 -4.4689077757561244e-02 0.0000000000000000e+00 -4.4689077757559627e-02 5.4428999483553980e+03 0.0000000000000000e+00 0.0000000000000000e+00 0.0000000000000000e+00 0.0000000000000000e+00  -1.1497945346530809e+01 -9.3255653264780802e-02 0.0000000000000000e+00 -9.3255653264781385e-02 5.4219695835352559e+03 0.0000000000000000e+00 0.0000000000000000e+00 0.0000000000000000e+00 0.0000000000000000e+00  -5.2175116086970705e+00 7.9329046941749581e-02 0.0000000000000000e+00 7.9329046941753772e-02 5.4045532599779781e+03 0.0000000000000000e+00 0.0000000000000000e+00 0.0000000000000000e+00 0.0000000000000000e+00  -7.2260900110284898e-01 1.4920233041253528e-01 0.0000000000000000e+00 1.4920233041253253e-01 5.3922942738590245e+03 0.0000000000000000e+00 0.0000000000000000e+00 0.0000000000000000e+00 0.0000000000000000e+00  1.2682029700966386e+02 3.9836456731188250e+01 0.0000000000000000e+00 3.9836456731188065e+01 5.5733497110900339e+02 0.0000000000000000e+00 0.0000000000000000e+00 0.0000000000000000e+00 0.0000000000000000e+00  1.3141273652615462e+02 1.3766012710324773e+02 0.0000000000000000e+00 1.3766012710324782e+02 2.2568336020181182e+03 0.0000000000000000e+00 0.0000000000000000e+00 0.0000000000000000e+00 0.0000000000000000e+00  -5.2813519800332195e+01 1.7477077987493630e+01 0.0000000000000000e+00 1.7477077987493630e+01 3.1517045929840247e+03 0.0000000000000000e+00 0.0000000000000000e+00 0.0000000000000000e+00 0.0000000000000000e+00  7.1524065551826808e+01 6.6490611638332680e+01 0.0000000000000000e+00 6.6490611638333192e+01 3.9304053139228959e+03 0.0000000000000000e+00 0.0000000000000000e+00 0.0000000000000000e+00 0.0000000000000000e+00  -2.1867555235996832e+01 -1.2588578999759411e+01 0.0000000000000000e+00 -1.2588578999758997e+01 4.2771810749255928e+03 0.0000000000000000e+00 0.0000000000000000e+00 0.0000000000000000e+00 0.0000000000000000e+00  2.8434451574942582e+01 2.8772186639652251e+01 0.0000000000000000e+00 2.8772186639652269e+01 4.6053844900374952e+03 0.0000000000000000e+00 0.0000000000000000e+00 0.0000000000000000e+00 0.0000000000000000e+00  -7.1925664345344442e+00 1.0187680235822951e+01 0.0000000000000000e+00 1.0187680235822963e+01 4.7926204615689430e+03 0.0000000000000000e+00 0.0000000000000000e+00 0.0000000000000000e+00 0.0000000000000000e+00  4.9207966339242057e+00 1.5015083504295548e+01 0.0000000000000000e+00 1.5015083504295569e+01 4.9166095971277527e+03 0.0000000000000000e+00 0.0000000000000000e+00 0.0000000000000000e+00 0.0000000000000000e+00  1.9186560602445066e+00 7.6818001530656295e+00 0.0000000000000000e+00 7.6818001530656703e+00 5.0392852608524590e+03 0.0000000000000000e+00 0.0000000000000000e+00 0.0000000000000000e+00 0.0000000000000000e+00  3.2611611040933814e+00 5.6272033875367642e+00 0.0000000000000000e+00 5.6272033875367713e+00 5.1088032626925069e+03 0.0000000000000000e+00 0.0000000000000000e+00 0.0000000000000000e+00 0.0000000000000000e+00  -1.8822343944596334e+00 5.4676069642055347e-01 0.0000000000000000e+00 5.4676069642057212e-01 5.1654485432002875e+03 0.0000000000000000e+00 0.0000000000000000e+00 0.0000000000000000e+00 0.0000000000000000e+00  3.1387871034295620e+00 2.6780449729630456e+00 0.0000000000000000e+00 2.6780449729630598e+00 5.1935661255176365e+03 0.0000000000000000e+00 0.0000000000000000e+00 0.0000000000000000e+00 0.0000000000000000e+00  -9.0298339284131934e-01 4.8865356096247486e-01 0.0000000000000000e+00 4.8865356096247953e-01 5.2198154180163192e+03 0.0000000000000000e+00 0.0000000000000000e+00 0.0000000000000000e+00 0.0000000000000000e+00  1.1769191789235986e+03 8.6751654097143125e+02 0.0000000000000000e+00 8.6751654097143125e+02 6.1586707492430003e+02 0.0000000000000000e+00 0.0000000000000000e+00 0.0000000000000000e+00 0.0000000000000000e+00  3.1880977659844448e+03 4.3929355856683260e+03 0.0000000000000000e+00 4.3929355856683223e+03 7.1566766932392466e+03 0.0000000000000000e+00 0.0000000000000000e+00 0.0000000000000000e+00 0.0000000000000000e+00  1.8793493660819649e+03 2.8114531522014918e+03 0.0000000000000000e+00 2.8114531522014909e+03 1.4253357511163797e+04 0.0000000000000000e+00 0.0000000000000000e+00 0.0000000000000000e+00 0.0000000000000000e+00  2.0725828833200981e+03 -2.1274860884231416e+03 0.0000000000000000e+00 -2.1274860884231443e+03 1.4231357144958170e+04 0.0000000000000000e+00 0.0000000000000000e+00 0.0000000000000000e+00 0.0000000000000000e+00  2.1729753339702361e+03 -4.2847316899798097e+03 0.0000000000000000e+00 -4.2847316899798061e+03 7.0360917667440835e+03 0.0000000000000000e+00 0.0000000000000000e+00 0.0000000000000000e+00 0.0000000000000000e+00  1.2553054775940582e+03 -1.1569596581300277e+03 0.0000000000000000e+00 -1.1569596581300270e+03 9.1154324851060790e+02 0.0000000000000000e+00 0.0000000000000000e+00 0.0000000000000000e+00 0.0000000000000000e+00  5.3635120091442695e-02 -2.7022878654108373e-01 0.0000000000000000e+00 -2.7022878654108495e-01 5.3878404528498604e+03 0.0000000000000000e+00 0.0000000000000000e