<?xml version="1.0"?>
<VTKFile type="UnstructuredGrid"  version="0.1"  >
<UnstructuredGrid>
<Piece  NumberOfPoints="2165" NumberOfCells="4161">
<Points>
<DataArray  type="Float64"  NumberOfComponents="3"  format="ascii">-3.598637933768527e-16 0.3500000000000001 0  0.05 0.4 0  -3.537405593811159e-16 0.45 0  0 1 0  1 1 0  0.9999999999999997 0.65 0  0.9999999999999997 0.5499999999999999 0  1 0 0  0 0 0  0.0191341716182545 0.3538060233744357 0  0.03535533905932737 0.3646446609406727 0  0.04619397662556433 0.3808658283817455 0  0.04619397662556434 0.4191341716182545 0  0.03535533905932738 0.4353553390593274 0  0.01913417161825449 0.4461939766255644 0  0 0.975 0  0 0.95 0  0 0.9249999999999999 0  0 0.8999999999999998 0  0 0.8749999999999998 0  0 0.8499999999999998 0  0 0.8249999999999997 0  0 0.7999999999999996 0  0 0.7749999999999996 0  0 0.7499999999999996 0  0 0.7249999999999996 0  0 0.6999999999999997 0  0 0.6749999999999998 0  0 0.6499999999999999 0  0 0.6249999999999999 0  0 0.6 0  0 0.575 0  0 0.5499999999999998 0  0 0.5249999999999999 0  0 0.4999999999999998 0  0 0.4749999999999999 0  0.975 1 0  0.95 1 0  0.925 1 0  0.9 1 0  0.875 1 0  0.85 1 0  0.825 1 0  0.8 1 0  0.775 1 0  0.75 1 0  0.725 1 0  0.7 1 0  0.675 1 0  0.65 1 0  0.625 1 0  0.6 1 0  0.575 1 0  0.55 1 0  0.525 1 0  0.5 1 0  0.475 1 0  0.45 1 0  0.425 1 0  0.4 1 0  0.375 1 0  0.35 1 0  0.325 1 0  0.3 1 0  0.275 1 0  0.25 1 0  0.225 1 0  0.2 1 0  0.175 1 0  0.15 1 0  0.125 1 0  0.09999999999999998 1 0  0.07499999999999996 1 0  0.05000000000000004 1 0  0.02500000000000002 1 0  1 0.675 0  1 0.7000000000000001 0  1 0.7250000000000001 0  1 0.7500000000000001 0  1 0.7750000000000001 0  1 0.8000000000000002 0  1 0.8250000000000002 0  1 0.8500000000000002 0  1 0.8750000000000003 0  1 0.9000000000000001 0  1 0.9250000000000002 0  1 0.9500000000000001 0  1 0.9750000000000001 0  0.9783058130441221 0.6450484433951209 0  0.9609084258765985 0.6311744900929367 0  0.9512536043909088 0.6111260466978157 0  0.9512536043909088 0.5888739533021843 0  0.9609084258765985 0.5688255099070633 0  0.9783058130441221 0.554951556604879 0  1 0.02500000000000002 0  1 0.05000000000000004 0  1 0.07500000000000008 0  1 0.1000000000000001 0  1 0.1250000000000001 0  1 0.1500000000000002 0  1 0.1750000000000002 0  1 0.2000000000000003 0  1 0.2250000000000003 0  1 0.2500000000000004 0  1 0.2750000000000004 0  1 0.3000000000000003 0  1 0.3250000000000002 0  1 0.3500000000000001 0  1 0.3750000000000001 0  1 0.3999999999999999 0  1 0.425 0  1 0.45 0  1 0.475 0  1 0.5000000000000001 0  1 0.5249999999999999 0  0.025 0 0  0.05 0 0  0.075 0 0  0.1 0 0  0.125 0 0  0.15 0 0  0.175 0 0  0.2 0 0  0.225 0 0  0.25 0 0  0.275 0 0  0.3 0 0  0.325 0 0  0.35 0 0  0.375 0 0  0.4 0 0  0.425 0 0  0.45 0 0  0.475 0 0  0.5 0 0  0.525 0 0  0.55 0 0  0.575 0 0  0.6 0 0  0.625 0 0  0.65 0 0  0.675 0 0  0.7 0 0  0.725 0 0  0.75 0 0  0.775 0 0  0.8 0 0  0.825 0 0  0.85 0 0  0.875 0 0  0.9 0 0  0.925 0 0  0.95 0 0  0.975 0 0  0 0.3250000000000001 0  0 0.3 0  0 0.275 0  0 0.2499999999999999 0  0 0.2249999999999999 0  0 0.1999999999999998 0  0 0.1749999999999998 0  0 0.1499999999999998 0  0 0.1249999999999998 0  0 0.09999999999999987 0  0 0.07499999999999984 0  0 0.04999999999999993 0  0 0.02500000000000002 0  0.06453325334544308 0.4134708543086404 0  0.5146839915088474 0.02134387884913819 0  0.4875871001393628 0.9784117024331356 0  0.9386300160094723 0.5701776715936071 0  0.0216506350946109 0.6124999999999999 0  0.9764205887290853 0.3596067946540696 0  0.3876261045932067 0.02156097490657183 0  0.6125 0.978349364905389 0  0.3612127461797463 0.9792371404802113 0  0.6374786650398092 0.02079982608537345 0  0.9387185538472446 0.6295115890709873 0  0.05482260092545593 0.3633687091864355 0  0.02445354803948679 0.7343198207875321 0  0.2624888813627476 0.02091671348578122 0  0.7375212991274043 0.9794996488945376 0  0.9793010831723812 0.2648509348664836 0  0.2625026480689301 0.9795699185263282 0  0.7362840788105066 0.02225211062275217 0  0.02159327910297104 0.2128861809896528 0  0.9786837570973538 0.7867241244631172 0  0.02419728000065929 0.8365600234152764 0  0.980043283615984 0.1624097203408714 0  0.1645857434226354 0.0205513501962844 0  0.8339481359352011 0.9784483546369231 0  0.1637584777222821 0.9774556328160621 0  0.8374916614314967 0.02165097219510076 0  0.02171915379676059 0.5370700005916152 0  0.9795335762511281 0.4365726939225819 0  0.02319480745007968 0.1370197632171214 0  0.9774462976085161 0.8592616917551974 0  0.9786941241076723 0.7122511101067891 0  0.9797883857882621 0.08781864217752949 0  0.01966314788989931 0.9125801876811624 0  0.02051815350151098 0.2882126194470174 0  0.09063226699593246 0.0214884092697174 0  0.9124408843562394 0.9818463395009377 0  0.03872465516591678 0.452731089005145 0  0.08969424365256845 0.978412979507602 0  0.9124999999999999 0.02165063509461096 0  0.02158104789437187 0.6619299176372371 0  0.9796602354625652 0.4859004208706154 0  0.3127517983598529 0.02417963694738812 0  0.4375629605000894 0.02158039900821679 0  0.5643674594196073 0.01968996000301126 0  0.5368361594956101 0.9790428840407062 0  0.4376176251051295 0.9783667484208922 0  0.6874072695660477 0.978435143102373 0  0.310604317388614 0.979558305560928 0  0.2125577044121564 0.02066685543111635 0  0.6875 0.0216506350946109 0  0.02224009810917643 0.08811420611559456 0  0.790876428529276 0.978633065284896 0  0.2125 0.978349364905389 0  0.9788033534786624 0.2116925349935155 0  0.9769441169344462 0.3150381335760689 0  0.9804648376981185 0.9123186437266726 0  0.7874999988222203 0.02127957051165741 0  0.02109233852270731 0.786866823287435 0  0.9483709287873718 0.5504073206521916 0  0.9259842326464427 0.5519702047534598 0  0.9163209045278007 0.5719292915927929 0  0.9035374059862284 0.5537291796040291 0  0.8938951918780048 0.5738949757882954 0  0.8807940177559743 0.5546750869516996 0  0.8712661812741653 0.5757142549099102 0  0.8580668865514332 0.5563902430113601 0  0.848508161986991 0.5779004013072002 0  0.8354274200119249 0.5591176379057713 0  0.8256349826905482 0.5800610629400762 0  0.8124123591208572 0.5604454546391737 0  0.802603410938817 0.5819653950592523 0  0.7892876429890218 0.562234610648543 0  0.7794355871850538 0.583896242519796 0  0.7661469824381839 0.5648243426306435 0  0.7562387679604726 0.5860005456930413 0  0.7429651600512166 0.5669367633461588 0  0.7330846968880171 0.5879590907760761 0  0.7198577999459205 0.5688986880627463 0  0.7297050500533544 0.5479561801187277 0  0.7066243396993471 0.5499068108517552 0  0.6968285086900206 0.5707989520567972 0  0.6836266810714333 0.5519088927359967 0  0.6738604685766018 0.5727655091567184 0  0.6607284761452521 0.5538781923028128 0  0.6697149783704412 0.5321140554135094 0  0.6473436039782401 0.5350050604671006 0  0.6378867365666199 0.5557804038095817 0  0.6246915360243652 0.5362124690568238 0  0.6151175309583405 0.5575933164645619 0  0.6019784180102355 0.5380659376543677 0  0.5924099113505394 0.5593739656462906 0  0.5794110962027638 0.541110021814312 0  0.5697985396917309 0.5614600003719357 0  0.5568468707330213 0.5433212932327446 0  0.5472634011377896 0.5635652141280936 0  0.5343236363495072 0.5451361960661517 0  0.5247877773262166 0.565493591892781 0  0.5118927934227436 0.5470665328397559 0  0.5023398230005425 0.5674381114577953 0  0.5213991904098014 0.5267047787870831 0  0.4990390504096661 0.528649139287786 0  0.6328887517229864 0.5131744321062524 0  0.5085133205790763 0.5083322037773296 0  0.4861972978925295 0.5102540920324363 0  0.4956914791804768 0.4899605513008993 0  0.4734139980312694 0.4918582759645476 0  0.4826986629698439 0.4717164019717278 0  0.460570567761715 0.473509155475794 0  0.4699344541058981 0.4533140529328089 0  0.4477087341565655 0.4550973130597117 0  0.4381733274019614 0.4752901381741884 0  0.4570222843287571 0.4349938694701042 0  0.4348599018247688 0.436728068420533 0  0.5604623134382263 0.581815997002507 0  0.4443612964408632 0.416499823314016 0  0.422056299386984 0.4183730429856528 0  0.4688721528228815 0.4135009841763965 0  0.4315584877924544 0.398120546824229 0  0.4092288692044618 0.3999974286008185 0  0.7463210599443056 0.6070829843371945 0  0.4187270626688335 0.3797365044773463 0  0.3964262302393312 0.3817184136470017 0  0.3869780036193907 0.4018498778543814 0  0.3742423843122406 0.3837055716372927 0  0.3648701490102072 0.4037049758807119 0  0.3518115403926748 0.3858985036587403 0  0.3426146276710081 0.4056777495658291 0  0.3614541441355358 0.3656396497906528 0  0.339026673715919 0.3678724679736439 0  0.3485566370135618 0.3476560889674916 0  0.3264681821394378 0.3496422822523857 0  0.8219942777991693 0.5379143061758643 0  0.3358297439968608 0.3295117748868035 0  0.3137050884585635 0.3314921667582986 0  0.3229980644152205 0.3113561769498422 0  0.3007986024336577 0.3133063832007756 0  0.3441851868720173 0.3085211458266175 0  0.3101966551534752 0.2930273704914169 0  0.287793053707373 0.2950088132226583 0  0.2914417217227097 0.3337427541189321 0  0.2975120686695638 0.2743682539701985 0  0.274864585256681 0.2764253296978281 0  0.816026571618698 0.6006851919544112 0  0.2844672854128698 0.2557011565880619 0  0.2617267434509338 0.2577713002235077 0  0.3072711221189672 0.2536790056475094 0  0.2521588568690318 0.2785072139143895 0  0.2389277409161178 0.2598761196336353 0  0.248448076747058 0.2389478879785275 0  0.5053822153261678 0.4716915524631118 0  0.229548765875869 0.2806542761043101 0  0.2254561407802683 0.2411354049374563 0  0.2350621310805047 0.2199181955146378 0  0.2117782450160163 0.222165061041625 0  0.2214249125635323 0.2008136877065064 0  0.2448758256083499 0.1985732693215908 0  0.197966291680556 0.2031211006951591 0  0.1883147493074436 0.2245564097761413 0  0.8910637266939049 0.5322898364209732 0  0.1748136087708587 0.2051141748992724 0  0.1842088801696792 0.1837087814679069 0  0.1656574100807746 0.2269812054689968 0  0.3554582346764377 0.4236292557112198 0  0.3328979939923831 0.425459320867588 0  0.3460368767112177 0.4435398346083328 0  0.3238464003
[...]
<PointData  Tensors="$\sigma$"> 
<DataArray  type="Float64"  Name="$\sigma$"  NumberOfComponents="9" format="ascii">-2.5411715849571740e+02 -3.1610706001889514e+02 0.0000000000000000e+00 -3.1610706001889491e+02 -7.7322246074967325e+02 0.0000000000000000e+00 0.0000000000000000e+00 0.0000000000000000e+00 0.0000000000000000e+00  1.2033191938058433e+03 4.3587120447361556e+01 0.0000000000000000e+00 4.3587120447360924e+01 1.4475820525088355e+04 0.0000000000000000e+00 0.0000000000000000e+00 0.0000000000000000e+00 0.0000000000000000e+00  -2.1482713704621997e+02 3.8550452683842622e+02 0.0000000000000000e+00 3.8550452683842599e+02 -8.0919370051004660e+02 0.0000000000000000e+00 0.0000000000000000e+00 0.0000000000000000e+00 0.0000000000000000e+00  7.4909118901110905e-02 6.2742399145262373e-01 0.0000000000000000e+00 6.2742399145262440e-01 4.6872728639718553e+03 0.0000000000000000e+00 0.0000000000000000e+00 0.0000000000000000e+00 0.0000000000000000e+00  1.1859657660987677e+00 2.2824327891482699e-02 0.0000000000000000e+00 2.2824327891484645e-02 4.5453646599337626e+03 0.0000000000000000e+00 0.0000000000000000e+00 0.0000000000000000e+00 0.0000000000000000e+00  -2.9114468341981643e+02 -3.0859476897342802e+02 0.0000000000000000e+00 -3.0859476897342728e+02 -9.1187245729114480e+01 0.0000000000000000e+00 0.0000000000000000e+00 0.0000000000000000e+00 0.0000000000000000e+00  1.6367434281980144e+02 -1.1158423589945122e+02 0.0000000000000000e+00 -1.1158423589945069e+02 1.5449373034468979e+02 0.0000000000000000e+00 0.0000000000000000e+00 0.0000000000000000e+00 0.0000000000000000e+00  1.9940640680555601e-02 1.0985758011150693e-01 0.0000000000000000e+00 1.0985758011151001e-01 4.6889311707236038e+03 0.0000000000000000e+00 0.0000000000000000e+00 0.0000000000000000e+00 0.0000000000000000e+00  1.3701044358207914e+03 5.5916897954236617e+02 0.0000000000000000e+00 5.5916897954236651e+02 4.9206432224310029e+03 0.0000000000000000e+00 0.0000000000000000e+00 0.0000000000000000e+00 0.0000000000000000e+00  7.5490180490916532e+02 6.3605017373451369e+02 0.0000000000000000e+00 6.3605017373451562e+02 5.5851975749852477e+02 0.0000000000000000e+00 0.0000000000000000e+00 0.0000000000000000e+00 0.0000000000000000e+00  2.5606737374174568e+03 2.9409023818816640e+03 0.0000000000000000e+00 2.9409023818816636e+03 3.7963807536635550e+03 0.0000000000000000e+00 0.0000000000000000e+00 0.0000000000000000e+00 0.0000000000000000e+00  1.9418802147333813e+03 3.6711055978474878e+03 0.0000000000000000e+00 3.6711055978474874e+03 1.1105437381956999e+04 0.0000000000000000e+00 0.0000000000000000e+00 0.0000000000000000e+00 0.0000000000000000e+00  1.9143731336980084e+03 -3.6937234573414462e+03 0.0000000000000000e+00 -3.6937234573414462e+03 1.1049474460628211e+04 0.0000000000000000e+00 0.0000000000000000e+00 0.0000000000000000e+00 0.0000000000000000e+00  2.5269717594153790e+03 -2.8909257893924541e+03 0.0000000000000000e+00 -2.8909257893924564e+03 4.0488749660537051e+03 0.0000000000000000e+00 0.0000000000000000e+00 0.0000000000000000e+00 0.0000000000000000e+00  7.3463367871348009e+02 -6.9467445205111073e+02 0.0000000000000000e+00 -6.9467445205111221e+02 5.3668332217158161e+02 0.0000000000000000e+00 0.0000000000000000e+00 0.0000000000000000e+00 0.0000000000000000e+00  6.1264643622979377e-02 -1.6162657566714470e-01 0.0000000000000000e+00 -1.6162657566714572e-01 4.6852837326545296e+03 0.0000000000000000e+00 0.0000000000000000e+00 0.0000000000000000e+00 0.0000000000000000e+00  -1.6687693478220675e-02 -6.2806314685960118e-01 0.0000000000000000e+00 -6.2806314685959774e-01 4.6816557368869999e+03 0.0000000000000000e+00 0.0000000000000000e+00 0.0000000000000000e+00 0.0000000000000000e+00  4.0537926118994022e-01 -7.0707514876922162e-01 0.0000000000000000e+00 -7.0707514876921940e-01 4.6756840309285835e+03 0.0000000000000000e+00 0.0000000000000000e+00 0.0000000000000000e+00 0.0000000000000000e+00  -3.0249214392842205e-01 -5.3599974932963301e-01 0.0000000000000000e+00 -5.3599974932963024e-01 4.6665502960901604e+03 0.0000000000000000e+00 0.0000000000000000e+00 0.0000000000000000e+00 0.0000000000000000e+00  2.6410857600964621e-01 -9.7355364513462628e-01 0.0000000000000000e+00 -9.7355364513463327e-01 4.6539894637444077e+03 0.0000000000000000e+00 0.0000000000000000e+00 0.0000000000000000e+00 0.0000000000000000e+00  8.2518458187583454e-01 -2.0638470549048162e+00 0.0000000000000000e+00 -2.0638470549048269e+00 4.6407495350022655e+03 0.0000000000000000e+00 0.0000000000000000e+00 0.0000000000000000e+00 0.0000000000000000e+00  -7.7680240233003905e-02 -1.5909437396871295e+00 0.0000000000000000e+00 -1.5909437396871233e+00 4.6176640273178537e+03 0.0000000000000000e+00 0.0000000000000000e+00 0.0000000000000000e+00 0.0000000000000000e+00  -1.6970258325603432e-01 -2.1832038233394573e+00 0.0000000000000000e+00 -2.1832038233394551e+00 4.5953467242563602e+03 0.0000000000000000e+00 0.0000000000000000e+00 0.0000000000000000e+00 0.0000000000000000e+00  1.2464039626252441e+00 -3.1903222656499453e+00 0.0000000000000000e+00 -3.1903222656499306e+00 4.5672829098300281e+03 0.0000000000000000e+00 0.0000000000000000e+00 0.0000000000000000e+00 0.0000000000000000e+00  9.4033786770045058e-01 -4.2379788309294026e+00 0.0000000000000000e+00 -4.2379788309294204e+00 4.5333327358591205e+03 0.0000000000000000e+00 0.0000000000000000e+00 0.0000000000000000e+00 0.0000000000000000e+00  9.6795196801016925e-01 -5.3950462678805451e+00 0.0000000000000000e+00 -5.3950462678805478e+00 4.4746287337501089e+03 0.0000000000000000e+00 0.0000000000000000e+00 0.0000000000000000e+00 0.0000000000000000e+00  6.7838277562686722e-01 -8.8322110865735652e+00 0.0000000000000000e+00 -8.8322110865735439e+00 4.4355316698077822e+03 0.0000000000000000e+00 0.0000000000000000e+00 0.0000000000000000e+00 0.0000000000000000e+00  3.8447366970507552e-01 -6.5822767264467501e+00 0.0000000000000000e+00 -6.5822767264468141e+00 4.3467478004085133e+03 0.0000000000000000e+00 0.0000000000000000e+00 0.0000000000000000e+00 0.0000000000000000e+00  1.1631141152048439e+00 -9.3011756578335589e+00 0.0000000000000000e+00 -9.3011756578336016e+00 4.2627054042853042e+03 0.0000000000000000e+00 0.0000000000000000e+00 0.0000000000000000e+00 0.0000000000000000e+00  7.1060560433543287e+00 -5.5047234212697971e+00 0.0000000000000000e+00 -5.5047234212696941e+00 4.1297684923538918e+03 0.0000000000000000e+00 0.0000000000000000e+00 0.0000000000000000e+00 0.0000000000000000e+00  -5.6332987844701554e+00 -1.1222746748858931e+01 0.0000000000000000e+00 -1.1222746748858603e+01 3.9630794126971964e+03 0.0000000000000000e+00 0.0000000000000000e+00 0.0000000000000000e+00 0.0000000000000000e+00  2.2497040608292998e+01 -3.8613993036868408e+01 0.0000000000000000e+00 -3.8613993036868450e+01 3.6966073661983319e+03 0.0000000000000000e+00 0.0000000000000000e+00 0.0000000000000000e+00 0.0000000000000000e+00  -1.1240679954029368e+01 -2.2766623345584041e+01 0.0000000000000000e+00 -2.2766623345584044e+01 3.3431031572531660e+03 0.0000000000000000e+00 0.0000000000000000e+00 0.0000000000000000e+00 0.0000000000000000e+00  2.2347439761781594e+01 -1.1683884536060312e+02 0.0000000000000000e+00 -1.1683884536060336e+02 2.7431142812195758e+03 0.0000000000000000e+00 0.0000000000000000e+00 0.0000000000000000e+00 0.0000000000000000e+00  -3.8283227302576755e+01 -1.3065000092835382e+02 0.0000000000000000e+00 -1.3065000092835311e+02 1.8657904967117779e+03 0.0000000000000000e+00 0.0000000000000000e+00 0.0000000000000000e+00 0.0000000000000000e+00  1.5032060492037175e+02 -1.5486953786854295e+02 0.0000000000000000e+00 -1.5486953786854227e+02 6.6714680878988258e+02 0.0000000000000000e+00 0.0000000000000000e+00 0.0000000000000000e+00 0.0000000000000000e+00  -3.8400339702243977e+00 2.2089833701587891e-01 0.0000000000000000e+00 2.2089833701587253e-01 4.5555619526313267e+03 0.0000000000000000e+00 0.0000000000000000e+00 0.0000000000000000e+00 0.0000000000000000e+00  -1.9421858242632617e+01 1.7805713379091721e-02 0.0000000000000000e+00 1.7805713379107965e-02 4.5855632527567896e+03 0.0000000000000000e+00 0.0000000000000000e+00 0.0000000000000000e+00 0.0000000000000000e+00  -4.2963300078378033e+01 1.2222560651181966e+00 0.0000000000000000e+00 1.2222560651181984e+00 4.6309449224476039e+03 0.0000000000000000e+00 0.0000000000000000e+00 0.0000000000000000e+00 0.0000000000000000e+00  -7.0501300452731144e+01 1.3509030628785509e-01 0.0000000000000000e+00 1.3509030628784419e-01 4.6828178480072675e+03 0.0000000000000000e+00 0.0000000000000000e+00 0.0000000000000000e+00 0.0000000000000000e+00  -9.4619187653776592e+01 1.6704592757654406e+00 0.0000000000000000e+00 1.6704592757654237e+00 4.7460717474646945e+03 0.0000000000000000e+00 0.0000000000000000e+00 0.0000000000000000e+00 0.0000000000000000e+00  -1.1936274382470084e+02 -1.1081333641450063e-01 0.0000000000000000e+00 -1.1081333641447809e-01 4.8076878026103186e+03 0.0000000000000000e+00 0.0000000000000000e+00 0.0000000000000000e+00 0.0000000000000000e+00  -1.4349479019952247e+02 5.5155876778208962e-02 0.0000000000000000e+00 5.5155876778223853e-02 4.8608283470661418e+03 0.0000000000000000e+00 0.0000000000000000e+00 0.0000000000000000e+00 0.0000000000000000e+00  -1.5555333213999270e+02 -4.1213947338561213e-01 0.0000000000000000e+00 -4.1213947338561402e-01 4.9181693271699496e+03 0.0000000000000000e+00 0.0000000000000000e+00 0.0000000000000000e+00 0.0000000000000000e+00  -1.6714152836808850e+02 1.7123567525748210e-01 0.0000000000000000e+00 1.7123567525747890e-01 4.9546497717944958e+03 0.0000000000000000e+00 0.0000000000000000e+00 0.0000000000000000e+00 0.0000000000000000e+00  -1.7417976658784275e+02 -5.2546421985621583e-01 0.0000000000000000e+00 -5.2546421985621683e-01 4.9904410797001128e+03 0.0000000000000000e+00 0.0000000000000000e+00 0.0000000000000000e+00 0.0000000000000000e+00  -1.7534179468708780e+02 -4.3355657706943451e-01 0.0000000000000000e+00 -4.3355657706943390e-01 5.0174156752428562e+03 0.0000000000000000e+00 0.0000000000000000e+00 0.0000000000000000e+00 0.0000000000000000e+00  -1.7352525438942197e+02 -8.0020434935991069e-01 0.0000000000000000e+00 -8.0020434935991092e-01 5.0359354649970473e+03 0.0000000000000000e+00 0.0000000000000000e+00 0.0000000000000000e+00 0.0000000000000000e+00  -1.6931076617970038e+02 -4.9140023322940801e-01 0.0000000000000000e+00 -4.9140023322941262e-01 5.0490958738143408e+03 0.0000000000000000e+00 0.0000000000000000e+00 0.0000000000000000e+00 0.0000000000000000e+00  -1.6388187656844684e+02 -3.4517797875296058e-01 0.0000000000000000e+00 -3.4517797875296563e-01 5.0573215251410811e+03 0.0000000000000000e+00 0.0000000000000000e+00 0.0000000000000000e+00 0.0000000000000000e+00  -1.5694525337572330e+02 -4.2394040777361885e-01 0.0000000000000000e+00 -4.2394040777361830e-01 5.0607308729696979e+03 0.0000000000000000e+00 0.0000000000000000e+00 0.0000000000000000e+00 0.0000000000000000e+00  -1.4982413292484233e+02 -5.1828183737185862e-01 0.0000000000000000e+00 -5.1828183737186340e-01 5.0609761776821406e+03 0.0000000000000000e+00 0.0000000000000000e+00 0.0000000000000000e+00 0.0000000000000000e+00  -1.4295125545828859e+02 -2.9866684934898236e-01 0.0000000000000000e+00 -2.9866684934897714e-01 5.0580416545028966e+03 0.0000000000000000e+00 0.0000000000000000e+00 0.0000000000000000e+00 0.0000000000000000e+00  -1.3623543357641958e+02 -3.4796222469853055e-01 0.0000000000000000e+00 -3.4796222469853488e-01 5.0532682621254135e+03 0.0000000000000000e+00 0.0000000000000000e+00 0.0000000000000000e+00 0.0000000000000000e+00  -1.3006473829850793e+02 -1.8374413924999125e-01 0.0000000000000000e+00 -1.8374413924999780e-01 5.0465406565784106e+03 0.0000000000000000e+00 0.0000000000000000e+00 0.0000000000000000e+00 0.0000000000000000e+00  -1.2428033823720486e+02 -1.5563449972955945e-01 0.0000000000000000e+00 -1.5563449972955648e-01 5.0379791269172001e+03 0.0000000000000000e+00 0.0000000000000000e+00 0.0000000000000000e+00 0.0000000000000000e+00  -1.1913961703337684e+02 -8.2819510408701752e-02 0.0000000000000000e+00 -8.2819510408702307e-02 5.0281642389154704e+03 0.0000000000000000e+00 0.0000000000000000e+00 0.0000000000000000e+00 0.0000000000000000e+00  -1.1409171805681434e+02 -4.4370386891672914e-02 0.0000000000000000e+00 -4.4370386891670117e-02 5.0171135965292679e+03 0.0000000000000000e+00 0.0000000000000000e+00 0.0000000000000000e+00 0.0000000000000000e+00  -1.0968181566014563e+02 -1.4282396936771231e-02 0.0000000000000000e+00 -1.4282396936769227e-02 5.0044309720341080e+03 0.0000000000000000e+00 0.0000000000000000e+00 0.0000000000000000e+00 0.0000000000000000e+00  -1.0482384525981229e+02 -2.8894717377564109e-02 0.0000000000000000e+00 -2.8894717377561920e-02 4.9904887943178255e+03 0.0000000000000000e+00 0.0000000000000000e+00 0.0000000000000000e+00 0.0000000000000000e+00  -1.0039408161227135e+02 -6.6206128427187608e-02 0.0000000000000000e+00 -6.6206128427189703e-02 4.9752680598768829e+03 0.0000000000000000e+00 0.0000000000000000e+00 0.0000000000000000e+00 0.0000000000000000e+00  -9.5229692368823990e+01 8.4655555260365625e-02 0.0000000000000000e+00 8.4655555260367513e-02 4.9584870223871321e+03 0.0000000000000000e+00 0.0000000000000000e+00 0.0000000000000000e+00 0.0000000000000000e+00  -8.9746953910885267e+01 -4.5223660363249346e-02 0.0000000000000000e+00 -4.5223660363249693e-02 4.9396750846031773e+03 0.0000000000000000e+00 0.0000000000000000e+00 0.0000000000000000e+00 0.0000000000000000e+00  -8.3786345682046814e+01 1.0458861132717109e-01 0.0000000000000000e+00 1.0458861132716982e-01 4.9198429162378325e+03 0.0000000000000000e+00 0.0000000000000000e+00 0.0000000000000000e+00 0.0000000000000000e+00  -7.6862576453737375e+01 1.2926989572094921e-01 0.0000000000000000e+00 1.2926989572094877e-01 4.8989425401967510e+03 0.0000000000000000e+00 0.0000000000000000e+00 0.0000000000000000e+00 0.0000000000000000e+00  -6.9687087938406592e+01 1.2070996528448164e-02 0.0000000000000000e+00 1.2070996528447130e-02 4.8755305954027835e+03 0.0000000000000000e+00 0.0000000000000000e+00 0.0000000000000000e+00 0.0000000000000000e+00  -6.1144676026906943e+01 -8.7672482125985177e-02 0.0000000000000000e+00 -8.7672482125988840e-02 4.8525332213280053e+03 0.0000000000000000e+00 0.0000000000000000e+00 0.0000000000000000e+00 0.0000000000000000e+00  -5.2920992957021227e+01 -1.4098812379444817e-01 0.0000000000000000e+00 -1.4098812379444881e-01 4.8274954588689434e+03 0.0000000000000000e+00 0.0000000000000000e+00 0.0000000000000000e+00 0.0000000000000000e+00  -4.3325666059032173e+01 -4.5137896772027605e-02 0.0000000000000000e+00 -4.5137896772036640e-02 4.8031932239149237e+03 0.0000000000000000e+00 0.0000000000000000e+00 0.0000000000000000e+00 0.0000000000000000e+00  -3.4147544112125139e+01 -2.0650503655028324e-01 0.0000000000000000e+00 -2.0650503655028229e-01 4.7803960940860516e+03 0.0000000000000000e+00 0.0000000000000000e+00 0.0000000000000000e+00 0.0000000000000000e+00  -2.5072088901070117e+01 -7.1675236856951971e-02 0.0000000000000000e+00 -7.1675236856955579e-02 4.7578332730822294e+03 0.0000000000000000e+00 0.0000000000000000e+00 0.0000000000000000e+00 0.0000000000000000e+00  -1.6898731815814269e+01 -3.6372668795896401e-02 0.0000000000000000e+00 -3.6372668795893980e-02 4.7363964622439689e+03 0.0000000000000000e+00 0.0000000000000000e+00 0.0000000000000000e+00 0.0000000000000000e+00  -9.8858495949122034e+00 -8.3719987798943213e-02 0.0000000000000000e+00 -8.3719987798944420e-02 4.7184237542388873e+03 0.0000000000000000e+00 0.0000000000000000e+00 0.0000000000000000e+00 0.0000000000000000e+00  -4.4894979956768033e+00 6.5568959591398371e-02 0.0000000000000000e+00 6.5568959591400716e-02 4.7034440111445629e+03 0.0000000000000000e+00 0.0000000000000000e+00 0.0000000000000000e+00 0.0000000000000000e+00  -6.2493000789856512e-01 1.2964853935449600e-01 0.0000000000000000e+00 1.2964853935449486e-01 4.6929600009603164e+03 0.0000000000000000e+00 0.0000000000000000e+00 0.0000000000000000e+00 0.0000000000000000e+00  1.2304482765299305e+02 5.1002265315742100e+01 0.0000000000000000e+00 5.1002265315742008e+01 5.1069727019394139e+02 0.0000000000000000e+00 0.0000000000000000e+00 0.0000000000000000e+00 0.0000000000000000e+00  1.0366774648693375e+02 1.1823611623551005e+02 0.0000000000000000e+00 1.1823611623550995e+02 1.9636215382556834e+03 0.0000000000000000e+00 0.0000000000000000e+00 0.0000000000000000e+00 0.0000000000000000e+00  -3.6406769951968315e+01 2.2525332224572640e+01 0.0000000000000000e+00 2.2525332224572949e+01 2.7590813332396706e+03 0.0000000000000000e+00 0.0000000000000000e+00 0.0000000000000000e+00 0.0000000000000000e+00  5.7399116941455034e+01 5.5737843131407935e+01 0.0000000000000000e+00 5.5737843131408205e+01 3.4244818213184617e+03 0.0000000000000000e+00 0.0000000000000000e+00 0.0000000000000000e+00 0.0000000000000000e+00  -1.5242919265663591e+01 -6.7211769125282848e+00 0.0000000000000000e+00 -6.7211769125279508e+00 3.7331103499778178e+03 0.0000000000000000e+00 0.0000000000000000e+00 0.0000000000000000e+00 0.0000000000000000e+00  2.1882909041868849e+01 2.3174277326276044e+01 0.0000000000000000e+00 2.3174277326276119e+01 4.0101405187395080e+03 0.0000000000000000e+00 0.0000000000000000e+00 0.0000000000000000e+00 0.0000000000000000e+00  -4.9354125353052503e+00 1.0282538518699610e+01 0.0000000000000000e+00 1.0282538518699591e+01 4.1759993677778975e+03 0.0000000000000000e+00 0.0000000000000000e+00 0.0000000000000000e+00 0.0000000000000000e+00  3.2736485652199665e+00 1.3055842832962037e+01 0.0000000000000000e+00 1.3055842832962055e+01 4.2814684035416085e+03 0.0000000000000000e+00 0.0000000000000000e+00 0.0000000000000000e+00 0.0000000000000000e+00  1.6810740747871242e+00 6.8508484922913269e+00 0.0000000000000000e+00 6.8508484922913446e+00 4.3872694720042527e+03 0.0000000000000000e+00 0.0000000000000000e+00 0.0000000000000000e+00 0.0000000000000000e+00  2.7386075715533247e+00 5.1596072340252785e+00 0.0000000000000000e+00 5.1596072340252750e+00 4.4478608171746710e+03 0.0000000000000000e+00 0.0000000000000000e+00 0.0000000000000000e+00 0.0000000000000000e+00  -1.5783422043075523e+00 4.9190429474996827e-01 0.0000000000000000e+00 4.9190429474999148e-01 4.4959421394687370e+03 0.0000000000000000e+00 0.0000000000000000e+00 0.0000000000000000e+00 0.0000000000000000e+00  2.6559551218435407e+00 2.3202536721571714e+00 0.0000000000000000e+00 2.3202536721571758e+00 4.5207542841520808e+03 0.0000000000000000e+00 0.0000000000000000e+00 0.0000000000000000e+00 0.0000000000000000e+00  -7.2978737052376863e-01 4.6379669691709807e-01 0.0000000000000000e+00 4.6379669691710179e-01 4.5430713183472071e+03 0.0000000000000000e+00 0.0000000000000000e+00 0.0000000000000000e+00 0.0000000000000000e+00  1.0135772893221597e+03 8.0092117705345277e+02 0.0000000000000000e+00 8.0092117705345311e+02 5.7665523805864791e+02 0.0000000000000000e+00 0.0000000000000000e+00 0.0000000000000000e+00 0.0000000000000000e+00  2.8500609992897525e+03 3.7271495437499743e+03 0.0000000000000000e+00 3.7271495437499707e+03 6.2660889277716351e+03 0.0000000000000000e+00 0.0000000000000000e+00 0.0000000000000000e+00 0.0000000000000000e+00  1.1541497832656478e+03 2.6291060009551861e+03 0.0000000000000000e+00 2.6291060009551866e+03 1.3102564067520601e+04 0.0000000000000000e+00 0.0000000000000000e+00 0.0000000000000000e+00 0.0000000000000000e+00  1.7365372993359172e+03 -1.8304886470250249e+03 0.0000000000000000e+00 -1.8304886470250269e+03 1.2550107015651896e+04 0.0000000000000000e+00 0.0000000000000000e+00 0.0000000000000000e+00 0.0000000000000000e+00  1.9038807239890054e+03 -3.7202803316539148e+03 0.0000000000000000e+00 -3.7202803316539157e+03 6.2614871739518494e+03 0.0000000000000000e+00 0.0000000000000000e+00 0.0000000000000000e+00 0.0000000000000000e+00  1.0672397125817179e+03 -1.0234362610061876e+03 0.0000000000000000e+00 -1.0234362610061867e+03 8.4854888004051713e+02 0.0000000000000000e+00 0.0000000000000000e+00 0.0000000000000000e+00 0.0000000000000000e+00  5.1288606451056568e-02 -2.4943091418097757e-01 0.0000000000000000e+00 -2.4943091418097829e-01 4.6880377021247168e+03 0.0000000000000000e+00 0.0000000000000000e+0