<?xml version="1.0"?>
<VTKFile type="UnstructuredGrid"  version="0.1"  >
<UnstructuredGrid>
<Piece  NumberOfPoints="2165" NumberOfCells="4161">
<Points>
<DataArray  type="Float64"  NumberOfComponents="3"  format="ascii">-3.598637933768527e-16 0.3500000000000001 0  0.05 0.4 0  -3.537405593811159e-16 0.45 0  0 1 0  1 1 0  0.9999999999999997 0.65 0  0.9999999999999997 0.5499999999999999 0  1 0 0  0 0 0  0.0191341716182545 0.3538060233744357 0  0.03535533905932737 0.3646446609406727 0  0.04619397662556433 0.3808658283817455 0  0.04619397662556434 0.4191341716182545 0  0.03535533905932738 0.4353553390593274 0  0.01913417161825449 0.4461939766255644 0  0 0.975 0  0 0.95 0  0 0.9249999999999999 0  0 0.8999999999999998 0  0 0.8749999999999998 0  0 0.8499999999999998 0  0 0.8249999999999997 0  0 0.7999999999999996 0  0 0.7749999999999996 0  0 0.7499999999999996 0  0 0.7249999999999996 0  0 0.6999999999999997 0  0 0.6749999999999998 0  0 0.6499999999999999 0  0 0.6249999999999999 0  0 0.6 0  0 0.575 0  0 0.5499999999999998 0  0 0.5249999999999999 0  0 0.4999999999999998 0  0 0.4749999999999999 0  0.975 1 0  0.95 1 0  0.925 1 0  0.9 1 0  0.875 1 0  0.85 1 0  0.825 1 0  0.8 1 0  0.775 1 0  0.75 1 0  0.725 1 0  0.7 1 0  0.675 1 0  0.65 1 0  0.625 1 0  0.6 1 0  0.575 1 0  0.55 1 0  0.525 1 0  0.5 1 0  0.475 1 0  0.45 1 0  0.425 1 0  0.4 1 0  0.375 1 0  0.35 1 0  0.325 1 0  0.3 1 0  0.275 1 0  0.25 1 0  0.225 1 0  0.2 1 0  0.175 1 0  0.15 1 0  0.125 1 0  0.09999999999999998 1 0  0.07499999999999996 1 0  0.05000000000000004 1 0  0.02500000000000002 1 0  1 0.675 0  1 0.7000000000000001 0  1 0.7250000000000001 0  1 0.7500000000000001 0  1 0.7750000000000001 0  1 0.8000000000000002 0  1 0.8250000000000002 0  1 0.8500000000000002 0  1 0.8750000000000003 0  1 0.9000000000000001 0  1 0.9250000000000002 0  1 0.9500000000000001 0  1 0.9750000000000001 0  0.9783058130441221 0.6450484433951209 0  0.9609084258765985 0.6311744900929367 0  0.9512536043909088 0.6111260466978157 0  0.9512536043909088 0.5888739533021843 0  0.9609084258765985 0.5688255099070633 0  0.9783058130441221 0.554951556604879 0  1 0.02500000000000002 0  1 0.05000000000000004 0  1 0.07500000000000008 0  1 0.1000000000000001 0  1 0.1250000000000001 0  1 0.1500000000000002 0  1 0.1750000000000002 0  1 0.2000000000000003 0  1 0.2250000000000003 0  1 0.2500000000000004 0  1 0.2750000000000004 0  1 0.3000000000000003 0  1 0.3250000000000002 0  1 0.3500000000000001 0  1 0.3750000000000001 0  1 0.3999999999999999 0  1 0.425 0  1 0.45 0  1 0.475 0  1 0.5000000000000001 0  1 0.5249999999999999 0  0.025 0 0  0.05 0 0  0.075 0 0  0.1 0 0  0.125 0 0  0.15 0 0  0.175 0 0  0.2 0 0  0.225 0 0  0.25 0 0  0.275 0 0  0.3 0 0  0.325 0 0  0.35 0 0  0.375 0 0  0.4 0 0  0.425 0 0  0.45 0 0  0.475 0 0  0.5 0 0  0.525 0 0  0.55 0 0  0.575 0 0  0.6 0 0  0.625 0 0  0.65 0 0  0.675 0 0  0.7 0 0  0.725 0 0  0.75 0 0  0.775 0 0  0.8 0 0  0.825 0 0  0.85 0 0  0.875 0 0  0.9 0 0  0.925 0 0  0.95 0 0  0.975 0 0  0 0.3250000000000001 0  0 0.3 0  0 0.275 0  0 0.2499999999999999 0  0 0.2249999999999999 0  0 0.1999999999999998 0  0 0.1749999999999998 0  0 0.1499999999999998 0  0 0.1249999999999998 0  0 0.09999999999999987 0  0 0.07499999999999984 0  0 0.04999999999999993 0  0 0.02500000000000002 0  0.06453325334544308 0.4134708543086404 0  0.5146839915088474 0.02134387884913819 0  0.4875871001393628 0.9784117024331356 0  0.9386300160094723 0.5701776715936071 0  0.0216506350946109 0.6124999999999999 0  0.9764205887290853 0.3596067946540696 0  0.3876261045932067 0.02156097490657183 0  0.6125 0.978349364905389 0  0.3612127461797463 0.9792371404802113 0  0.6374786650398092 0.02079982608537345 0  0.9387185538472446 0.6295115890709873 0  0.05482260092545593 0.3633687091864355 0  0.02445354803948679 0.7343198207875321 0  0.2624888813627476 0.02091671348578122 0  0.7375212991274043 0.9794996488945376 0  0.9793010831723812 0.2648509348664836 0  0.2625026480689301 0.9795699185263282 0  0.7362840788105066 0.02225211062275217 0  0.02159327910297104 0.2128861809896528 0  0.9786837570973538 0.7867241244631172 0  0.02419728000065929 0.8365600234152764 0  0.980043283615984 0.1624097203408714 0  0.1645857434226354 0.0205513501962844 0  0.8339481359352011 0.9784483546369231 0  0.1637584777222821 0.9774556328160621 0  0.8374916614314967 0.02165097219510076 0  0.02171915379676059 0.5370700005916152 0  0.9795335762511281 0.4365726939225819 0  0.02319480745007968 0.1370197632171214 0  0.9774462976085161 0.8592616917551974 0  0.9786941241076723 0.7122511101067891 0  0.9797883857882621 0.08781864217752949 0  0.01966314788989931 0.9125801876811624 0  0.02051815350151098 0.2882126194470174 0  0.09063226699593246 0.0214884092697174 0  0.9124408843562394 0.9818463395009377 0  0.03872465516591678 0.452731089005145 0  0.08969424365256845 0.978412979507602 0  0.9124999999999999 0.02165063509461096 0  0.02158104789437187 0.6619299176372371 0  0.9796602354625652 0.4859004208706154 0  0.3127517983598529 0.02417963694738812 0  0.4375629605000894 0.02158039900821679 0  0.5643674594196073 0.01968996000301126 0  0.5368361594956101 0.9790428840407062 0  0.4376176251051295 0.9783667484208922 0  0.6874072695660477 0.978435143102373 0  0.310604317388614 0.979558305560928 0  0.2125577044121564 0.02066685543111635 0  0.6875 0.0216506350946109 0  0.02224009810917643 0.08811420611559456 0  0.790876428529276 0.978633065284896 0  0.2125 0.978349364905389 0  0.9788033534786624 0.2116925349935155 0  0.9769441169344462 0.3150381335760689 0  0.9804648376981185 0.9123186437266726 0  0.7874999988222203 0.02127957051165741 0  0.02109233852270731 0.786866823287435 0  0.9483709287873718 0.5504073206521916 0  0.9259842326464427 0.5519702047534598 0  0.9163209045278007 0.5719292915927929 0  0.9035374059862284 0.5537291796040291 0  0.8938951918780048 0.5738949757882954 0  0.8807940177559743 0.5546750869516996 0  0.8712661812741653 0.5757142549099102 0  0.8580668865514332 0.5563902430113601 0  0.848508161986991 0.5779004013072002 0  0.8354274200119249 0.5591176379057713 0  0.8256349826905482 0.5800610629400762 0  0.8124123591208572 0.5604454546391737 0  0.802603410938817 0.5819653950592523 0  0.7892876429890218 0.562234610648543 0  0.7794355871850538 0.583896242519796 0  0.7661469824381839 0.5648243426306435 0  0.7562387679604726 0.5860005456930413 0  0.7429651600512166 0.5669367633461588 0  0.7330846968880171 0.5879590907760761 0  0.7198577999459205 0.5688986880627463 0  0.7297050500533544 0.5479561801187277 0  0.7066243396993471 0.5499068108517552 0  0.6968285086900206 0.5707989520567972 0  0.6836266810714333 0.5519088927359967 0  0.6738604685766018 0.5727655091567184 0  0.6607284761452521 0.5538781923028128 0  0.6697149783704412 0.5321140554135094 0  0.6473436039782401 0.5350050604671006 0  0.6378867365666199 0.5557804038095817 0  0.6246915360243652 0.5362124690568238 0  0.6151175309583405 0.5575933164645619 0  0.6019784180102355 0.5380659376543677 0  0.5924099113505394 0.5593739656462906 0  0.5794110962027638 0.541110021814312 0  0.5697985396917309 0.5614600003719357 0  0.5568468707330213 0.5433212932327446 0  0.5472634011377896 0.5635652141280936 0  0.5343236363495072 0.5451361960661517 0  0.5247877773262166 0.565493591892781 0  0.5118927934227436 0.5470665328397559 0  0.5023398230005425 0.5674381114577953 0  0.5213991904098014 0.5267047787870831 0  0.4990390504096661 0.528649139287786 0  0.6328887517229864 0.5131744321062524 0  0.5085133205790763 0.5083322037773296 0  0.4861972978925295 0.5102540920324363 0  0.4956914791804768 0.4899605513008993 0  0.4734139980312694 0.4918582759645476 0  0.4826986629698439 0.4717164019717278 0  0.460570567761715 0.473509155475794 0  0.4699344541058981 0.4533140529328089 0  0.4477087341565655 0.4550973130597117 0  0.4381733274019614 0.4752901381741884 0  0.4570222843287571 0.4349938694701042 0  0.4348599018247688 0.436728068420533 0  0.5604623134382263 0.581815997002507 0  0.4443612964408632 0.416499823314016 0  0.422056299386984 0.4183730429856528 0  0.4688721528228815 0.4135009841763965 0  0.4315584877924544 0.398120546824229 0  0.4092288692044618 0.3999974286008185 0  0.7463210599443056 0.6070829843371945 0  0.4187270626688335 0.3797365044773463 0  0.3964262302393312 0.3817184136470017 0  0.3869780036193907 0.4018498778543814 0  0.3742423843122406 0.3837055716372927 0  0.3648701490102072 0.4037049758807119 0  0.3518115403926748 0.3858985036587403 0  0.3426146276710081 0.4056777495658291 0  0.3614541441355358 0.3656396497906528 0  0.339026673715919 0.3678724679736439 0  0.3485566370135618 0.3476560889674916 0  0.3264681821394378 0.3496422822523857 0  0.8219942777991693 0.5379143061758643 0  0.3358297439968608 0.3295117748868035 0  0.3137050884585635 0.3314921667582986 0  0.3229980644152205 0.3113561769498422 0  0.3007986024336577 0.3133063832007756 0  0.3441851868720173 0.3085211458266175 0  0.3101966551534752 0.2930273704914169 0  0.287793053707373 0.2950088132226583 0  0.2914417217227097 0.3337427541189321 0  0.2975120686695638 0.2743682539701985 0  0.274864585256681 0.2764253296978281 0  0.816026571618698 0.6006851919544112 0  0.2844672854128698 0.2557011565880619 0  0.2617267434509338 0.2577713002235077 0  0.3072711221189672 0.2536790056475094 0  0.2521588568690318 0.2785072139143895 0  0.2389277409161178 0.2598761196336353 0  0.248448076747058 0.2389478879785275 0  0.5053822153261678 0.4716915524631118 0  0.229548765875869 0.2806542761043101 0  0.2254561407802683 0.2411354049374563 0  0.2350621310805047 0.2199181955146378 0  0.2117782450160163 0.222165061041625 0  0.2214249125635323 0.2008136877065064 0  0.2448758256083499 0.1985732693215908 0  0.197966291680556 0.2031211006951591 0  0.1883147493074436 0.2245564097761413 0  0.8910637266939049 0.5322898364209732 0  0.1748136087708587 0.2051141748992724 0  0.1842088801696792 0.1837087814679069 0  0.1656574100807746 0.2269812054689968 0  0.3554582346764377 0.4236292557112198 0  0.3328979939923831 0.425459320867588 0  0.3460368767112177 0.4435398346083328 0  0.3238464003
[...]
<PointData  Tensors="$\sigma$"> 
<DataArray  type="Float64"  Name="$\sigma$"  NumberOfComponents="9" format="ascii">-4.7321848285270704e+01 -1.0254002509235386e+02 0.0000000000000000e+00 -1.0254002509235386e+02 -2.3395398932705299e+02 0.0000000000000000e+00 0.0000000000000000e+00 0.0000000000000000e+00 0.0000000000000000e+00  4.2306328824713250e+02 4.9191110126340716e+00 0.0000000000000000e+00 4.9191110126341115e+00 5.1505290960665670e+03 0.0000000000000000e+00 0.0000000000000000e+00 0.0000000000000000e+00 0.0000000000000000e+00  -3.7683633838976256e+01 1.1759531613093077e+02 0.0000000000000000e+00 1.1759531613093077e+02 -2.4440196009350919e+02 0.0000000000000000e+00 0.0000000000000000e+00 0.0000000000000000e+00 0.0000000000000000e+00  5.5724166735652524e-03 1.8839192660091492e-01 0.0000000000000000e+00 1.8839192660091486e-01 1.6416648319418291e+03 0.0000000000000000e+00 0.0000000000000000e+00 0.0000000000000000e+00 0.0000000000000000e+00  -4.9190297166533409e-03 -5.9286901401568524e-02 0.0000000000000000e+00 -5.9286901401568545e-02 1.5929863468184033e+03 0.0000000000000000e+00 0.0000000000000000e+00 0.0000000000000000e+00 0.0000000000000000e+00  -4.2617871634707797e+01 -1.2516645949660560e+02 0.0000000000000000e+00 -1.2516645949660558e+02 -2.3300316179037594e+01 0.0000000000000000e+00 0.0000000000000000e+00 0.0000000000000000e+00 0.0000000000000000e+00  6.0928610310658200e+01 -3.3458654846735755e+01 0.0000000000000000e+00 -3.3458654846735747e+01 4.2850566776988373e+01 0.0000000000000000e+00 0.0000000000000000e+00 0.0000000000000000e+00 0.0000000000000000e+00  -1.2558485278665929e-01 1.9341808591861267e-02 0.0000000000000000e+00 1.9341808591861364e-02 1.6425959938613348e+03 0.0000000000000000e+00 0.0000000000000000e+00 0.0000000000000000e+00 0.0000000000000000e+00  4.5658991613293404e+02 1.9387265153414413e+02 0.0000000000000000e+00 1.9387265153414413e+02 1.7170080701704831e+03 0.0000000000000000e+00 0.0000000000000000e+00 0.0000000000000000e+00 0.0000000000000000e+00  2.6250843077540503e+02 2.5753546799213279e+02 0.0000000000000000e+00 2.5753546799213279e+02 2.5244370955616355e+02 0.0000000000000000e+00 0.0000000000000000e+00 0.0000000000000000e+00 0.0000000000000000e+00  8.2119702518028976e+02 1.0096454008568077e+03 0.0000000000000000e+00 1.0096454008568077e+03 1.4933648870286615e+03 0.0000000000000000e+00 0.0000000000000000e+00 0.0000000000000000e+00 0.0000000000000000e+00  7.2606828791779890e+02 1.1830640414156862e+03 0.0000000000000000e+00 1.1830640414156860e+03 3.9276564101708900e+03 0.0000000000000000e+00 0.0000000000000000e+00 0.0000000000000000e+00 0.0000000000000000e+00  7.1703952928089609e+02 -1.2005372012412834e+03 0.0000000000000000e+00 -1.2005372012412831e+03 3.9207392801589963e+03 0.0000000000000000e+00 0.0000000000000000e+00 0.0000000000000000e+00 0.0000000000000000e+00  8.1982706951951104e+02 -9.9116375922139298e+02 0.0000000000000000e+00 -9.9116375922139309e+02 1.5731658885733018e+03 0.0000000000000000e+00 0.0000000000000000e+00 0.0000000000000000e+00 0.0000000000000000e+00  2.5418269620920782e+02 -2.6936565884496031e+02 0.0000000000000000e+00 -2.6936565884496031e+02 2.4883715289693279e+02 0.0000000000000000e+00 0.0000000000000000e+00 0.0000000000000000e+00 0.0000000000000000e+00  -1.6763497728978057e-02 -1.1116345016170034e-01 0.0000000000000000e+00 -1.1116345016170015e-01 1.6409346710161024e+03 0.0000000000000000e+00 0.0000000000000000e+00 0.0000000000000000e+00 0.0000000000000000e+00  1.9300927825202686e-02 -3.0607088748208633e-01 0.0000000000000000e+00 -3.0607088748208522e-01 1.6397836423007407e+03 0.0000000000000000e+00 0.0000000000000000e+00 0.0000000000000000e+00 0.0000000000000000e+00  7.3744672856872487e-02 -2.9280519186855358e-01 0.0000000000000000e+00 -2.9280519186855480e-01 1.6376234147382627e+03 0.0000000000000000e+00 0.0000000000000000e+00 0.0000000000000000e+00 0.0000000000000000e+00  -6.0809780534402232e-02 -3.4745570922923080e-01 0.0000000000000000e+00 -3.4745570922923041e-01 1.6343519707495254e+03 0.0000000000000000e+00 0.0000000000000000e+00 0.0000000000000000e+00 0.0000000000000000e+00  3.7502832895201788e-02 -5.7295425726924631e-01 0.0000000000000000e+00 -5.7295425726924498e-01 1.6301863590181561e+03 0.0000000000000000e+00 0.0000000000000000e+00 0.0000000000000000e+00 0.0000000000000000e+00  2.2738403327096790e-01 -9.6914887465244526e-01 0.0000000000000000e+00 -9.6914887465244748e-01 1.6255789472029235e+03 0.0000000000000000e+00 0.0000000000000000e+00 0.0000000000000000e+00 0.0000000000000000e+00  -3.0292479081630293e-02 -8.2451418345519334e-01 0.0000000000000000e+00 -8.2451418345519034e-01 1.6174131141531936e+03 0.0000000000000000e+00 0.0000000000000000e+00 0.0000000000000000e+00 0.0000000000000000e+00  5.5367027095070728e-02 -1.2564299039826510e+00 0.0000000000000000e+00 -1.2564299039826532e+00 1.6099479958718350e+03 0.0000000000000000e+00 0.0000000000000000e+00 0.0000000000000000e+00 0.0000000000000000e+00  2.3359232833194010e-01 -1.6667785284036858e+00 0.0000000000000000e+00 -1.6667785284036862e+00 1.5997528548013743e+03 0.0000000000000000e+00 0.0000000000000000e+00 0.0000000000000000e+00 0.0000000000000000e+00  4.0543803618610308e-01 -1.7583776910968918e+00 0.0000000000000000e+00 -1.7583776910968880e+00 1.5886083955379636e+03 0.0000000000000000e+00 0.0000000000000000e+00 0.0000000000000000e+00 0.0000000000000000e+00  -6.9749284007587675e-02 -2.4259768397153274e+00 0.0000000000000000e+00 -2.4259768397153239e+00 1.5673244366238391e+03 0.0000000000000000e+00 0.0000000000000000e+00 0.0000000000000000e+00 0.0000000000000000e+00  2.0065642012875258e-02 -3.9546146015206642e+00 0.0000000000000000e+00 -3.9546146015206722e+00 1.5546271342897921e+03 0.0000000000000000e+00 0.0000000000000000e+00 0.0000000000000000e+00 0.0000000000000000e+00  -8.3431197494644182e-05 -3.2233996442926420e+00 0.0000000000000000e+00 -3.2233996442926456e+00 1.5235312191840617e+03 0.0000000000000000e+00 0.0000000000000000e+00 0.0000000000000000e+00 0.0000000000000000e+00  7.9979022604210481e-01 -4.8687898678942485e+00 0.0000000000000000e+00 -4.8687898678942485e+00 1.4940279524382838e+03 0.0000000000000000e+00 0.0000000000000000e+00 0.0000000000000000e+00 0.0000000000000000e+00  1.3147971041376796e+00 -3.5641814495993884e+00 0.0000000000000000e+00 -3.5641814495993884e+00 1.4474859655983364e+03 0.0000000000000000e+00 0.0000000000000000e+00 0.0000000000000000e+00 0.0000000000000000e+00  -3.5630096658170862e-01 -7.4089496674591340e+00 0.0000000000000000e+00 -7.4089496674591340e+00 1.3891927133144152e+03 0.0000000000000000e+00 0.0000000000000000e+00 0.0000000000000000e+00 0.0000000000000000e+00  3.7579069927784179e+00 -1.7180163459857390e+01 0.0000000000000000e+00 -1.7180163459857390e+01 1.2995443542721691e+03 0.0000000000000000e+00 0.0000000000000000e+00 0.0000000000000000e+00 0.0000000000000000e+00  -8.8170892060780515e-01 -1.6976312289617578e+01 0.0000000000000000e+00 -1.6976312289617578e+01 1.1680949611038886e+03 0.0000000000000000e+00 0.0000000000000000e+00 0.0000000000000000e+00 0.0000000000000000e+00  2.8732246232029590e+00 -4.7446228651998176e+01 0.0000000000000000e+00 -4.7446228651998176e+01 9.6916282955028839e+02 0.0000000000000000e+00 0.0000000000000000e+00 0.0000000000000000e+00 0.0000000000000000e+00  -1.7819864362184813e+01 -6.2786728249623778e+01 0.0000000000000000e+00 -6.2786728249623778e+01 6.5169003047792671e+02 0.0000000000000000e+00 0.0000000000000000e+00 0.0000000000000000e+00 0.0000000000000000e+00  5.2636264697116154e+01 -6.4450964117473902e+01 0.0000000000000000e+00 -6.4450964117473902e+01 2.5253346045482934e+02 0.0000000000000000e+00 0.0000000000000000e+00 0.0000000000000000e+00 0.0000000000000000e+00  -1.2565396663399560e+00 7.8508360204900096e-02 0.0000000000000000e+00 7.8508360204897418e-02 1.5966313936580177e+03 0.0000000000000000e+00 0.0000000000000000e+00 0.0000000000000000e+00 0.0000000000000000e+00  -6.7739860622940817e+00 1.5082011396501030e-01 0.0000000000000000e+00 1.5082011396500875e-01 1.6069557517817987e+03 0.0000000000000000e+00 0.0000000000000000e+00 0.0000000000000000e+00 0.0000000000000000e+00  -1.4888949246632567e+01 4.9010563253806894e-01 0.0000000000000000e+00 4.9010563253807266e-01 1.6223408093813925e+03 0.0000000000000000e+00 0.0000000000000000e+00 0.0000000000000000e+00 0.0000000000000000e+00  -2.4731512812678059e+01 3.1398649198460521e-01 0.0000000000000000e+00 3.1398649198460854e-01 1.6397881344494012e+03 0.0000000000000000e+00 0.0000000000000000e+00 0.0000000000000000e+00 0.0000000000000000e+00  -3.2779621453637304e+01 8.8529213912708127e-01 0.0000000000000000e+00 8.8529213912708493e-01 1.6621714800917875e+03 0.0000000000000000e+00 0.0000000000000000e+00 0.0000000000000000e+00 0.0000000000000000e+00  -4.1395224833193922e+01 3.9095182250585017e-02 0.0000000000000000e+00 3.9095182250586315e-02 1.6838215921269752e+03 0.0000000000000000e+00 0.0000000000000000e+00 0.0000000000000000e+00 0.0000000000000000e+00  -4.9913239400257112e+01 -6.8667249058460736e-02 0.0000000000000000e+00 -6.8667249058458724e-02 1.7018627997409233e+03 0.0000000000000000e+00 0.0000000000000000e+00 0.0000000000000000e+00 0.0000000000000000e+00  -5.3644677452494093e+01 -1.5475121222866586e-01 0.0000000000000000e+00 -1.5475121222866470e-01 1.7219884541919132e+03 0.0000000000000000e+00 0.0000000000000000e+00 0.0000000000000000e+00 0.0000000000000000e+00  -5.7804825278028027e+01 5.9470679884678773e-02 0.0000000000000000e+00 5.9470679884677378e-02 1.7343629319693782e+03 0.0000000000000000e+00 0.0000000000000000e+00 0.0000000000000000e+00 0.0000000000000000e+00  -6.0305895272806943e+01 -2.3901637613384324e-01 0.0000000000000000e+00 -2.3901637613384341e-01 1.7466202936699169e+03 0.0000000000000000e+00 0.0000000000000000e+00 0.0000000000000000e+00 0.0000000000000000e+00  -6.0705552377225104e+01 -3.2771149942236399e-01 0.0000000000000000e+00 -3.2771149942236399e-01 1.7561380758938337e+03 0.0000000000000000e+00 0.0000000000000000e+00 0.0000000000000000e+00 0.0000000000000000e+00  -6.0011949935259516e+01 -3.5347393535176364e-01 0.0000000000000000e+00 -3.5347393535176386e-01 1.7624784379568937e+03 0.0000000000000000e+00 0.0000000000000000e+00 0.0000000000000000e+00 0.0000000000000000e+00  -5.8564160446295169e+01 -2.6765481446533845e-01 0.0000000000000000e+00 -2.6765481446533834e-01 1.7670689842918396e+03 0.0000000000000000e+00 0.0000000000000000e+00 0.0000000000000000e+00 0.0000000000000000e+00  -5.6687214862310711e+01 -2.6151240763931483e-01 0.0000000000000000e+00 -2.6151240763931549e-01 1.7698926978019711e+03 0.0000000000000000e+00 0.0000000000000000e+00 0.0000000000000000e+00 0.0000000000000000e+00  -5.4280396521683507e+01 -2.6248001469826565e-01 0.0000000000000000e+00 -2.6248001469826632e-01 1.7710369920890253e+03 0.0000000000000000e+00 0.0000000000000000e+00 0.0000000000000000e+00 0.0000000000000000e+00  -5.1855371047408134e+01 -2.5191139531453471e-01 0.0000000000000000e+00 -2.5191139531453455e-01 1.7710918749970681e+03 0.0000000000000000e+00 0.0000000000000000e+00 0.0000000000000000e+00 0.0000000000000000e+00  -4.9440606858514109e+01 -2.0203436950506687e-01 0.0000000000000000e+00 -2.0203436950506712e-01 1.7701053217317997e+03 0.0000000000000000e+00 0.0000000000000000e+00 0.0000000000000000e+00 0.0000000000000000e+00  -4.7154591041589939e+01 -1.7821455686974572e-01 0.0000000000000000e+00 -1.7821455686974536e-01 1.7684318936279574e+03 0.0000000000000000e+00 0.0000000000000000e+00 0.0000000000000000e+00 0.0000000000000000e+00  -4.4994167680332801e+01 -1.2273689471472740e-01 0.0000000000000000e+00 -1.2273689471472816e-01 1.7660967979630041e+03 0.0000000000000000e+00 0.0000000000000000e+00 0.0000000000000000e+00 0.0000000000000000e+00  -4.3026441530181472e+01 -8.3522225577229464e-02 0.0000000000000000e+00 -8.3522225577228298e-02 1.7631448174653544e+03 0.0000000000000000e+00 0.0000000000000000e+00 0.0000000000000000e+00 0.0000000000000000e+00  -4.1238121572805852e+01 -5.0555471306531166e-02 0.0000000000000000e+00 -5.0555471306531014e-02 1.7597578209954620e+03 0.0000000000000000e+00 0.0000000000000000e+00 0.0000000000000000e+00 0.0000000000000000e+00  -3.9522105051081986e+01 -2.2711551098914335e-02 0.0000000000000000e+00 -2.2711551098914033e-02 1.7558967936166962e+03 0.0000000000000000e+00 0.0000000000000000e+00 0.0000000000000000e+00 0.0000000000000000e+00  -3.7978160852617101e+01 4.9202415675212146e-03 0.0000000000000000e+00 4.9202415675214150e-03 1.7515302694942543e+03 0.0000000000000000e+00 0.0000000000000000e+00 0.0000000000000000e+00 0.0000000000000000e+00  -3.6329860561636913e+01 -2.0574314139291540e-02 0.0000000000000000e+00 -2.0574314139291731e-02 1.7466780968573512e+03 0.0000000000000000e+00 0.0000000000000000e+00 0.0000000000000000e+00 0.0000000000000000e+00  -3.4772041718547506e+01 -1.2316126564690173e-02 0.0000000000000000e+00 -1.2316126564689825e-02 1.7414705456529744e+03 0.0000000000000000e+00 0.0000000000000000e+00 0.0000000000000000e+00 0.0000000000000000e+00  -3.2984244808951317e+01 2.5585881292968172e-02 0.0000000000000000e+00 2.5585881292968043e-02 1.7355836247210414e+03 0.0000000000000000e+00 0.0000000000000000e+00 0.0000000000000000e+00 0.0000000000000000e+00  -3.1104238131841665e+01 2.3023225666710830e-02 0.0000000000000000e+00 2.3023225666710608e-02 1.7290456564571518e+03 0.0000000000000000e+00 0.0000000000000000e+00 0.0000000000000000e+00 0.0000000000000000e+00  -2.9025594449381121e+01 2.5474821317853030e-02 0.0000000000000000e+00 2.5474821317852604e-02 1.7222189367241872e+03 0.0000000000000000e+00 0.0000000000000000e+00 0.0000000000000000e+00 0.0000000000000000e+00  -2.6626487285799854e+01 5.2087656740101358e-02 0.0000000000000000e+00 5.2087656740102219e-02 1.7149571934742071e+03 0.0000000000000000e+00 0.0000000000000000e+00 0.0000000000000000e+00 0.0000000000000000e+00  -2.4183660382590876e+01 1.1617310031716160e-02 0.0000000000000000e+00 1.1617310031716555e-02 1.7068730353697308e+03 0.0000000000000000e+00 0.0000000000000000e+00 0.0000000000000000e+00 0.0000000000000000e+00  -2.1167062342966165e+01 7.1020008554725277e-03 0.0000000000000000e+00 7.1020008554719162e-03 1.6988990610971255e+03 0.0000000000000000e+00 0.0000000000000000e+00 0.0000000000000000e+00 0.0000000000000000e+00  -1.8361074833523961e+01 -5.5212397351087419e-02 0.0000000000000000e+00 -5.5212397351086948e-02 1.6902547778699816e+03 0.0000000000000000e+00 0.0000000000000000e+00 0.0000000000000000e+00 0.0000000000000000e+00  -1.5026095718459771e+01 -5.3432674862444400e-02 0.0000000000000000e+00 -5.3432674862445420e-02 1.6818062783785176e+03 0.0000000000000000e+00 0.0000000000000000e+00 0.0000000000000000e+00 0.0000000000000000e+00  -1.1829593983570055e+01 -1.0155911535479532e-01 0.0000000000000000e+00 -1.0155911535479847e-01 1.6739492878456942e+03 0.0000000000000000e+00 0.0000000000000000e+00 0.0000000000000000e+00 0.0000000000000000e+00  -8.6924535756718058e+00 -3.5212633357165957e-02 0.0000000000000000e+00 -3.5212633357164784e-02 1.6661698888705862e+03 0.0000000000000000e+00 0.0000000000000000e+00 0.0000000000000000e+00 0.0000000000000000e+00  -5.8481059226204364e+00 -1.0245310683244730e-02 0.0000000000000000e+00 -1.0245310683243723e-02 1.6587557172655925e+03 0.0000000000000000e+00 0.0000000000000000e+00 0.0000000000000000e+00 0.0000000000000000e+00  -3.4382968416363724e+00 -2.8694299321640283e-02 0.0000000000000000e+00 -2.8694299321639725e-02 1.6524924184428303e+03 0.0000000000000000e+00 0.0000000000000000e+00 0.0000000000000000e+00 0.0000000000000000e+00  -1.5709171950730452e+00 1.3751557263163511e-02 0.0000000000000000e+00 1.3751557263162796e-02 1.6472176942467677e+03 0.0000000000000000e+00 0.0000000000000000e+00 0.0000000000000000e+00 0.0000000000000000e+00  -2.2775327318345448e-01 7.0654539805795488e-02 0.0000000000000000e+00 7.0654539805795030e-02 1.6436895912272755e+03 0.0000000000000000e+00 0.0000000000000000e+00 0.0000000000000000e+00 0.0000000000000000e+00  6.5520375984048371e+01 4.6632934931640911e+01 0.0000000000000000e+00 4.6632934931640911e+01 2.0900903258159607e+02 0.0000000000000000e+00 0.0000000000000000e+00 0.0000000000000000e+00 0.0000000000000000e+00  1.9230986256639433e+01 5.1081219390181552e+01 0.0000000000000000e+00 5.1081219390181552e+01 6.8203602278978110e+02 0.0000000000000000e+00 0.0000000000000000e+00 0.0000000000000000e+00 0.0000000000000000e+00  1.9662793571383448e+00 2.6529739275448048e+01 0.0000000000000000e+00 2.6529739275448048e+01 9.8202734247926287e+02 0.0000000000000000e+00 0.0000000000000000e+00 0.0000000000000000e+00 0.0000000000000000e+00  9.4267218913890147e+00 1.9365080425543837e+01 0.0000000000000000e+00 1.9365080425543862e+01 1.1950634274019819e+03 0.0000000000000000e+00 0.0000000000000000e+00 0.0000000000000000e+00 0.0000000000000000e+00  7.4685395741924854e-01 7.1069059939014396e+00 0.0000000000000000e+00 7.1069059939014618e+00 1.3173988356239718e+03 0.0000000000000000e+00 0.0000000000000000e+00 0.0000000000000000e+00 0.0000000000000000e+00  3.3884179198478357e+00 7.1851747231758090e+00 0.0000000000000000e+00 7.1851747231758001e+00 1.4025622033792017e+03 0.0000000000000000e+00 0.0000000000000000e+00 0.0000000000000000e+00 0.0000000000000000e+00  1.4488701343695748e-01 7.4856616982820992e+00 0.0000000000000000e+00 7.4856616982820894e+00 1.4673441092571272e+03 0.0000000000000000e+00 0.0000000000000000e+00 0.0000000000000000e+00 0.0000000000000000e+00  -8.2555694282572711e-01 5.3460997381884647e+00 0.0000000000000000e+00 5.3460997381884523e+00 1.4999932962143994e+03 0.0000000000000000e+00 0.0000000000000000e+00 0.0000000000000000e+00 0.0000000000000000e+00  5.9741042794331345e-01 3.4151779942263887e+00 0.0000000000000000e+00 3.4151779942263816e+00 1.5384309126632227e+03 0.0000000000000000e+00 0.0000000000000000e+00 0.0000000000000000e+00 0.0000000000000000e+00  5.2584627258099559e-01 2.7369588785071115e+00 0.0000000000000000e+00 2.7369588785071066e+00 1.5595002737036980e+03 0.0000000000000000e+00 0.0000000000000000e+00 0.0000000000000000e+00 0.0000000000000000e+00  -3.2413895178901869e-01 7.0793718309119336e-01 0.0000000000000000e+00 7.0793718309119480e-01 1.5751066615127781e+03 0.0000000000000000e+00 0.0000000000000000e+00 0.0000000000000000e+00 0.0000000000000000e+00  6.6665298593849398e-01 8.3451123451413922e-01 0.0000000000000000e+00 8.3451123451413944e-01 1.5846976701017711e+03 0.0000000000000000e+00 0.0000000000000000e+00 0.0000000000000000e+00 0.0000000000000000e+00  -1.2269477145744734e-01 3.8821247243299045e-01 0.0000000000000000e+00 3.8821247243299023e-01 1.5919133138258157e+03 0.0000000000000000e+00 0.0000000000000000e+00 0.0000000000000000e+00 0.0000000000000000e+00  3.4652677911172191e+02 3.5636163335591181e+02 0.0000000000000000e+00 3.5636163335591175e+02 3.1193528911388262e+02 0.0000000000000000e+00 0.0000000000000000e+00 0.0000000000000000e+00 0.0000000000000000e+00  9.3484180817676577e+02 1.2018769311726433e+03 0.0000000000000000e+00 1.2018769311726433e+03 2.3476959451704138e+03 0.0000000000000000e+00 0.0000000000000000e+00 0.0000000000000000e+00 0.0000000000000000e+00  4.1663741025595533e+02 8.4902484759345396e+02 0.0000000000000000e+00 8.4902484759345396e+02 4.6799517415385380e+03 0.0000000000000000e+00 0.0000000000000000e+00 0.0000000000000000e+00 0.0000000000000000e+00  6.9014665811979512e+02 -5.4435463791547704e+02 0.0000000000000000e+00 -5.4435463791547693e+02 4.3421279260919673e+03 0.0000000000000000e+00 0.0000000000000000e+00 0.0000000000000000e+00 0.0000000000000000e+00  6.3574658565949539e+02 -1.2385580286851498e+03 0.0000000000000000e+00 -1.2385580286851498e+03 2.3954600856317411e+03 0.0000000000000000e+00 0.0000000000000000e+00 0.0000000000000000e+00 0.0000000000000000e+00  3.1229056034915311e+02 -3.9333092814578981e+02 0.0000000000000000e+00 -3.9333092814578987e+02 4.4843925190107922e+02 0.0000000000000000e+00 0.0000000000000000e+00 0.0000000000000000e+00 0.0000000000000000e+00  2.6096901709160753e-02 -1.7169060840707057e-01 0.0000000000000000e+00 -1.7169060840707084e-01 1.6421741790461629e+03 0.0000000000000000e+00 0.0000000000000000e+00 0.0