<?xml version="1.0"?>
<VTKFile type="UnstructuredGrid"  version="0.1"  >
<UnstructuredGrid>
<Piece  NumberOfPoints="2165" NumberOfCells="4161">
<Points>
<DataArray  type="Float64"  NumberOfComponents="3"  format="ascii">-3.598637933768527e-16 0.3500000000000001 0  0.05 0.4 0  -3.537405593811159e-16 0.45 0  0 1 0  1 1 0  0.9999999999999997 0.65 0  0.9999999999999997 0.5499999999999999 0  1 0 0  0 0 0  0.0191341716182545 0.3538060233744357 0  0.03535533905932737 0.3646446609406727 0  0.04619397662556433 0.3808658283817455 0  0.04619397662556434 0.4191341716182545 0  0.03535533905932738 0.4353553390593274 0  0.01913417161825449 0.4461939766255644 0  0 0.975 0  0 0.95 0  0 0.9249999999999999 0  0 0.8999999999999998 0  0 0.8749999999999998 0  0 0.8499999999999998 0  0 0.8249999999999997 0  0 0.7999999999999996 0  0 0.7749999999999996 0  0 0.7499999999999996 0  0 0.7249999999999996 0  0 0.6999999999999997 0  0 0.6749999999999998 0  0 0.6499999999999999 0  0 0.6249999999999999 0  0 0.6 0  0 0.575 0  0 0.5499999999999998 0  0 0.5249999999999999 0  0 0.4999999999999998 0  0 0.4749999999999999 0  0.975 1 0  0.95 1 0  0.925 1 0  0.9 1 0  0.875 1 0  0.85 1 0  0.825 1 0  0.8 1 0  0.775 1 0  0.75 1 0  0.725 1 0  0.7 1 0  0.675 1 0  0.65 1 0  0.625 1 0  0.6 1 0  0.575 1 0  0.55 1 0  0.525 1 0  0.5 1 0  0.475 1 0  0.45 1 0  0.425 1 0  0.4 1 0  0.375 1 0  0.35 1 0  0.325 1 0  0.3 1 0  0.275 1 0  0.25 1 0  0.225 1 0  0.2 1 0  0.175 1 0  0.15 1 0  0.125 1 0  0.09999999999999998 1 0  0.07499999999999996 1 0  0.05000000000000004 1 0  0.02500000000000002 1 0  1 0.675 0  1 0.7000000000000001 0  1 0.7250000000000001 0  1 0.7500000000000001 0  1 0.7750000000000001 0  1 0.8000000000000002 0  1 0.8250000000000002 0  1 0.8500000000000002 0  1 0.8750000000000003 0  1 0.9000000000000001 0  1 0.9250000000000002 0  1 0.9500000000000001 0  1 0.9750000000000001 0  0.9783058130441221 0.6450484433951209 0  0.9609084258765985 0.6311744900929367 0  0.9512536043909088 0.6111260466978157 0  0.9512536043909088 0.5888739533021843 0  0.9609084258765985 0.5688255099070633 0  0.9783058130441221 0.554951556604879 0  1 0.02500000000000002 0  1 0.05000000000000004 0  1 0.07500000000000008 0  1 0.1000000000000001 0  1 0.1250000000000001 0  1 0.1500000000000002 0  1 0.1750000000000002 0  1 0.2000000000000003 0  1 0.2250000000000003 0  1 0.2500000000000004 0  1 0.2750000000000004 0  1 0.3000000000000003 0  1 0.3250000000000002 0  1 0.3500000000000001 0  1 0.3750000000000001 0  1 0.3999999999999999 0  1 0.425 0  1 0.45 0  1 0.475 0  1 0.5000000000000001 0  1 0.5249999999999999 0  0.025 0 0  0.05 0 0  0.075 0 0  0.1 0 0  0.125 0 0  0.15 0 0  0.175 0 0  0.2 0 0  0.225 0 0  0.25 0 0  0.275 0 0  0.3 0 0  0.325 0 0  0.35 0 0  0.375 0 0  0.4 0 0  0.425 0 0  0.45 0 0  0.475 0 0  0.5 0 0  0.525 0 0  0.55 0 0  0.575 0 0  0.6 0 0  0.625 0 0  0.65 0 0  0.675 0 0  0.7 0 0  0.725 0 0  0.75 0 0  0.775 0 0  0.8 0 0  0.825 0 0  0.85 0 0  0.875 0 0  0.9 0 0  0.925 0 0  0.95 0 0  0.975 0 0  0 0.3250000000000001 0  0 0.3 0  0 0.275 0  0 0.2499999999999999 0  0 0.2249999999999999 0  0 0.1999999999999998 0  0 0.1749999999999998 0  0 0.1499999999999998 0  0 0.1249999999999998 0  0 0.09999999999999987 0  0 0.07499999999999984 0  0 0.04999999999999993 0  0 0.02500000000000002 0  0.06453325334544308 0.4134708543086404 0  0.5146839915088474 0.02134387884913819 0  0.4875871001393628 0.9784117024331356 0  0.9386300160094723 0.5701776715936071 0  0.0216506350946109 0.6124999999999999 0  0.9764205887290853 0.3596067946540696 0  0.3876261045932067 0.02156097490657183 0  0.6125 0.978349364905389 0  0.3612127461797463 0.9792371404802113 0  0.6374786650398092 0.02079982608537345 0  0.9387185538472446 0.6295115890709873 0  0.05482260092545593 0.3633687091864355 0  0.02445354803948679 0.7343198207875321 0  0.2624888813627476 0.02091671348578122 0  0.7375212991274043 0.9794996488945376 0  0.9793010831723812 0.2648509348664836 0  0.2625026480689301 0.9795699185263282 0  0.7362840788105066 0.02225211062275217 0  0.02159327910297104 0.2128861809896528 0  0.9786837570973538 0.7867241244631172 0  0.02419728000065929 0.8365600234152764 0  0.980043283615984 0.1624097203408714 0  0.1645857434226354 0.0205513501962844 0  0.8339481359352011 0.9784483546369231 0  0.1637584777222821 0.9774556328160621 0  0.8374916614314967 0.02165097219510076 0  0.02171915379676059 0.5370700005916152 0  0.9795335762511281 0.4365726939225819 0  0.02319480745007968 0.1370197632171214 0  0.9774462976085161 0.8592616917551974 0  0.9786941241076723 0.7122511101067891 0  0.9797883857882621 0.08781864217752949 0  0.01966314788989931 0.9125801876811624 0  0.02051815350151098 0.2882126194470174 0  0.09063226699593246 0.0214884092697174 0  0.9124408843562394 0.9818463395009377 0  0.03872465516591678 0.452731089005145 0  0.08969424365256845 0.978412979507602 0  0.9124999999999999 0.02165063509461096 0  0.02158104789437187 0.6619299176372371 0  0.9796602354625652 0.4859004208706154 0  0.3127517983598529 0.02417963694738812 0  0.4375629605000894 0.02158039900821679 0  0.5643674594196073 0.01968996000301126 0  0.5368361594956101 0.9790428840407062 0  0.4376176251051295 0.9783667484208922 0  0.6874072695660477 0.978435143102373 0  0.310604317388614 0.979558305560928 0  0.2125577044121564 0.02066685543111635 0  0.6875 0.0216506350946109 0  0.02224009810917643 0.08811420611559456 0  0.790876428529276 0.978633065284896 0  0.2125 0.978349364905389 0  0.9788033534786624 0.2116925349935155 0  0.9769441169344462 0.3150381335760689 0  0.9804648376981185 0.9123186437266726 0  0.7874999988222203 0.02127957051165741 0  0.02109233852270731 0.786866823287435 0  0.9483709287873718 0.5504073206521916 0  0.9259842326464427 0.5519702047534598 0  0.9163209045278007 0.5719292915927929 0  0.9035374059862284 0.5537291796040291 0  0.8938951918780048 0.5738949757882954 0  0.8807940177559743 0.5546750869516996 0  0.8712661812741653 0.5757142549099102 0  0.8580668865514332 0.5563902430113601 0  0.848508161986991 0.5779004013072002 0  0.8354274200119249 0.5591176379057713 0  0.8256349826905482 0.5800610629400762 0  0.8124123591208572 0.5604454546391737 0  0.802603410938817 0.5819653950592523 0  0.7892876429890218 0.562234610648543 0  0.7794355871850538 0.583896242519796 0  0.7661469824381839 0.5648243426306435 0  0.7562387679604726 0.5860005456930413 0  0.7429651600512166 0.5669367633461588 0  0.7330846968880171 0.5879590907760761 0  0.7198577999459205 0.5688986880627463 0  0.7297050500533544 0.5479561801187277 0  0.7066243396993471 0.5499068108517552 0  0.6968285086900206 0.5707989520567972 0  0.6836266810714333 0.5519088927359967 0  0.6738604685766018 0.5727655091567184 0  0.6607284761452521 0.5538781923028128 0  0.6697149783704412 0.5321140554135094 0  0.6473436039782401 0.5350050604671006 0  0.6378867365666199 0.5557804038095817 0  0.6246915360243652 0.5362124690568238 0  0.6151175309583405 0.5575933164645619 0  0.6019784180102355 0.5380659376543677 0  0.5924099113505394 0.5593739656462906 0  0.5794110962027638 0.541110021814312 0  0.5697985396917309 0.5614600003719357 0  0.5568468707330213 0.5433212932327446 0  0.5472634011377896 0.5635652141280936 0  0.5343236363495072 0.5451361960661517 0  0.5247877773262166 0.565493591892781 0  0.5118927934227436 0.5470665328397559 0  0.5023398230005425 0.5674381114577953 0  0.5213991904098014 0.5267047787870831 0  0.4990390504096661 0.528649139287786 0  0.6328887517229864 0.5131744321062524 0  0.5085133205790763 0.5083322037773296 0  0.4861972978925295 0.5102540920324363 0  0.4956914791804768 0.4899605513008993 0  0.4734139980312694 0.4918582759645476 0  0.4826986629698439 0.4717164019717278 0  0.460570567761715 0.473509155475794 0  0.4699344541058981 0.4533140529328089 0  0.4477087341565655 0.4550973130597117 0  0.4381733274019614 0.4752901381741884 0  0.4570222843287571 0.4349938694701042 0  0.4348599018247688 0.436728068420533 0  0.5604623134382263 0.581815997002507 0  0.4443612964408632 0.416499823314016 0  0.422056299386984 0.4183730429856528 0  0.4688721528228815 0.4135009841763965 0  0.4315584877924544 0.398120546824229 0  0.4092288692044618 0.3999974286008185 0  0.7463210599443056 0.6070829843371945 0  0.4187270626688335 0.3797365044773463 0  0.3964262302393312 0.3817184136470017 0  0.3869780036193907 0.4018498778543814 0  0.3742423843122406 0.3837055716372927 0  0.3648701490102072 0.4037049758807119 0  0.3518115403926748 0.3858985036587403 0  0.3426146276710081 0.4056777495658291 0  0.3614541441355358 0.3656396497906528 0  0.339026673715919 0.3678724679736439 0  0.3485566370135618 0.3476560889674916 0  0.3264681821394378 0.3496422822523857 0  0.8219942777991693 0.5379143061758643 0  0.3358297439968608 0.3295117748868035 0  0.3137050884585635 0.3314921667582986 0  0.3229980644152205 0.3113561769498422 0  0.3007986024336577 0.3133063832007756 0  0.3441851868720173 0.3085211458266175 0  0.3101966551534752 0.2930273704914169 0  0.287793053707373 0.2950088132226583 0  0.2914417217227097 0.3337427541189321 0  0.2975120686695638 0.2743682539701985 0  0.274864585256681 0.2764253296978281 0  0.816026571618698 0.6006851919544112 0  0.2844672854128698 0.2557011565880619 0  0.2617267434509338 0.2577713002235077 0  0.3072711221189672 0.2536790056475094 0  0.2521588568690318 0.2785072139143895 0  0.2389277409161178 0.2598761196336353 0  0.248448076747058 0.2389478879785275 0  0.5053822153261678 0.4716915524631118 0  0.229548765875869 0.2806542761043101 0  0.2254561407802683 0.2411354049374563 0  0.2350621310805047 0.2199181955146378 0  0.2117782450160163 0.222165061041625 0  0.2214249125635323 0.2008136877065064 0  0.2448758256083499 0.1985732693215908 0  0.197966291680556 0.2031211006951591 0  0.1883147493074436 0.2245564097761413 0  0.8910637266939049 0.5322898364209732 0  0.1748136087708587 0.2051141748992724 0  0.1842088801696792 0.1837087814679069 0  0.1656574100807746 0.2269812054689968 0  0.3554582346764377 0.4236292557112198 0  0.3328979939923831 0.425459320867588 0  0.3460368767112177 0.4435398346083328 0  0.3238464003
[...]
<PointData  Tensors="$\sigma$"> 
<DataArray  type="Float64"  Name="$\sigma$"  NumberOfComponents="9" format="ascii">4.7122965966790220e+00 -3.5821522902099940e+00 0.0000000000000000e+00 -3.5821522902099940e+00 1.6065937848035365e+00 0.0000000000000000e+00 0.0000000000000000e+00 0.0000000000000000e+00 0.0000000000000000e+00  9.1644788671542486e+01 -1.0024250215689370e+00 0.0000000000000000e+00 -1.0024250215689370e+00 6.9408090448211647e+02 0.0000000000000000e+00 0.0000000000000000e+00 0.0000000000000000e+00 0.0000000000000000e+00  4.6796642300826443e+00 5.4159153873531061e+00 0.0000000000000000e+00 5.4159153873531061e+00 1.1976641016718363e+00 0.0000000000000000e+00 0.0000000000000000e+00 0.0000000000000000e+00 0.0000000000000000e+00  -2.1597326851917106e-02 2.3841355748786354e-02 0.0000000000000000e+00 2.3841355748786361e-02 2.3524707861713350e+02 0.0000000000000000e+00 0.0000000000000000e+00 0.0000000000000000e+00 0.0000000000000000e+00  -1.3275173649010544e-01 3.0661084909932804e-03 0.0000000000000000e+00 3.0661084909932861e-03 2.2881814517180601e+02 0.0000000000000000e+00 0.0000000000000000e+00 0.0000000000000000e+00 0.0000000000000000e+00  1.3153334335122791e+01 1.3673206307614001e+00 0.0000000000000000e+00 1.3673206307614001e+00 2.5945412044430487e+01 0.0000000000000000e+00 0.0000000000000000e+00 0.0000000000000000e+00 0.0000000000000000e+00  1.5506906683030190e+01 -1.8709316619614277e+01 0.0000000000000000e+00 -1.8709316619614277e+01 2.8802167115883769e+01 0.0000000000000000e+00 0.0000000000000000e+00 0.0000000000000000e+00 0.0000000000000000e+00  -4.1406095212196951e-02 -1.0146444143536631e-02 0.0000000000000000e+00 -1.0146444143536631e-02 2.3556089080227702e+02 0.0000000000000000e+00 0.0000000000000000e+00 0.0000000000000000e+00 0.0000000000000000e+00  6.1421552831716426e+01 2.5608657306102856e+01 0.0000000000000000e+00 2.5608657306102856e+01 2.4515789139506163e+02 0.0000000000000000e+00 0.0000000000000000e+00 0.0000000000000000e+00 0.0000000000000000e+00  3.5408538659030945e+01 4.9296979583135517e+01 0.0000000000000000e+00 4.9296979583135517e+01 7.9975027201681854e+01 0.0000000000000000e+00 0.0000000000000000e+00 0.0000000000000000e+00 0.0000000000000000e+00  9.1540725284972154e+01 1.2808480515324584e+02 0.0000000000000000e+00 1.2808480515324584e+02 2.7851977727932768e+02 0.0000000000000000e+00 0.0000000000000000e+00 0.0000000000000000e+00 0.0000000000000000e+00  1.0419724783444963e+02 1.2566852043703476e+02 0.0000000000000000e+00 1.2566852043703476e+02 5.5933607935505108e+02 0.0000000000000000e+00 0.0000000000000000e+00 0.0000000000000000e+00 0.0000000000000000e+00  1.0235401443072642e+02 -1.3018128971933308e+02 0.0000000000000000e+00 -1.3018128971933308e+02 5.6308904129070686e+02 0.0000000000000000e+00 0.0000000000000000e+00 0.0000000000000000e+00 0.0000000000000000e+00  9.3339586092384991e+01 -1.2752340741301632e+02 0.0000000000000000e+00 -1.2752340741301632e+02 2.8724144797172340e+02 0.0000000000000000e+00 0.0000000000000000e+00 0.0000000000000000e+00 0.0000000000000000e+00  3.5414519384540881e+01 -4.8142977401696648e+01 0.0000000000000000e+00 -4.8142977401696648e+01 8.0729973312609687e+01 0.0000000000000000e+00 0.0000000000000000e+00 0.0000000000000000e+00 0.0000000000000000e+00  -1.1369533520720676e-02 -4.5177116458086884e-02 0.0000000000000000e+00 -4.5177116458086884e-02 2.3514948859305304e+02 0.0000000000000000e+00 0.0000000000000000e+00 0.0000000000000000e+00 0.0000000000000000e+00  -1.1578634192999208e-02 -7.5415870106613686e-02 0.0000000000000000e+00 -7.5415870106613672e-02 2.3501405750425664e+02 0.0000000000000000e+00 0.0000000000000000e+00 0.0000000000000000e+00 0.0000000000000000e+00  -2.5801951579643306e-02 -8.4300888749414854e-02 0.0000000000000000e+00 -8.4300888749414840e-02 2.3468293052751349e+02 0.0000000000000000e+00 0.0000000000000000e+00 0.0000000000000000e+00 0.0000000000000000e+00  -1.1741239055843853e-02 -1.3609391971538493e-01 0.0000000000000000e+00 -1.3609391971538493e-01 2.3424138073325432e+02 0.0000000000000000e+00 0.0000000000000000e+00 0.0000000000000000e+00 0.0000000000000000e+00  -3.5858991597577987e-02 -1.7832185421492702e-01 0.0000000000000000e+00 -1.7832185421492702e-01 2.3371697743768732e+02 0.0000000000000000e+00 0.0000000000000000e+00 0.0000000000000000e+00 0.0000000000000000e+00  -2.9252245343101928e-02 -2.5052562369855325e-01 0.0000000000000000e+00 -2.5052562369855325e-01 2.3303350925806166e+02 0.0000000000000000e+00 0.0000000000000000e+00 0.0000000000000000e+00 0.0000000000000000e+00  -8.5693033755462975e-03 -2.6778323989563163e-01 0.0000000000000000e+00 -2.6778323989563163e-01 2.3194321475113736e+02 0.0000000000000000e+00 0.0000000000000000e+00 0.0000000000000000e+00 0.0000000000000000e+00  -1.0369570219259697e-02 -3.6068435140110172e-01 0.0000000000000000e+00 -3.6068435140110172e-01 2.3090726997962506e+02 0.0000000000000000e+00 0.0000000000000000e+00 0.0000000000000000e+00 0.0000000000000000e+00  -8.0936394342958684e-02 -4.8436843682503994e-01 0.0000000000000000e+00 -4.8436843682503994e-01 2.2935372704176308e+02 0.0000000000000000e+00 0.0000000000000000e+00 0.0000000000000000e+00 0.0000000000000000e+00  1.1854047322611578e-02 -4.8521805181744249e-01 0.0000000000000000e+00 -4.8521805181744249e-01 2.2798436528730014e+02 0.0000000000000000e+00 0.0000000000000000e+00 0.0000000000000000e+00 0.0000000000000000e+00  -1.0780985876927129e-01 -6.9589693239898498e-01 0.0000000000000000e+00 -6.9589693239898498e-01 2.2489399766545370e+02 0.0000000000000000e+00 0.0000000000000000e+00 0.0000000000000000e+00 0.0000000000000000e+00  -1.0851223891467858e-01 -1.0530715671254247e+00 0.0000000000000000e+00 -1.0530715671254247e+00 2.2321838737196239e+02 0.0000000000000000e+00 0.0000000000000000e+00 0.0000000000000000e+00 0.0000000000000000e+00  -1.6048214016621012e-01 -1.0525550501529550e+00 0.0000000000000000e+00 -1.0525550501529550e+00 2.1903029330899813e+02 0.0000000000000000e+00 0.0000000000000000e+00 0.0000000000000000e+00 0.0000000000000000e+00  -1.5560084728921172e-01 -1.5295494078693939e+00 0.0000000000000000e+00 -1.5295494078693939e+00 2.1454701876061930e+02 0.0000000000000000e+00 0.0000000000000000e+00 0.0000000000000000e+00 0.0000000000000000e+00  -2.4438804785922452e-01 -1.8626459308982244e+00 0.0000000000000000e+00 -1.8626459308982244e+00 2.0810732664435881e+02 0.0000000000000000e+00 0.0000000000000000e+00 0.0000000000000000e+00 0.0000000000000000e+00  -6.4728172861242572e-01 -2.9611849004724013e+00 0.0000000000000000e+00 -2.9611849004724013e+00 2.0002814526885771e+02 0.0000000000000000e+00 0.0000000000000000e+00 0.0000000000000000e+00 0.0000000000000000e+00  -8.3857766088607955e-01 -4.9694121676009484e+00 0.0000000000000000e+00 -4.9694121676009484e+00 1.8752153209143435e+02 0.0000000000000000e+00 0.0000000000000000e+00 0.0000000000000000e+00 0.0000000000000000e+00  -6.4202018155913831e-01 -6.5960028037227909e+00 0.0000000000000000e+00 -6.5960028037227909e+00 1.6869314052389626e+02 0.0000000000000000e+00 0.0000000000000000e+00 0.0000000000000000e+00 0.0000000000000000e+00  -2.8719322451310143e+00 -1.1050823718262260e+01 0.0000000000000000e+00 -1.1050823718262260e+01 1.4220645095653245e+02 0.0000000000000000e+00 0.0000000000000000e+00 0.0000000000000000e+00 0.0000000000000000e+00  -1.8678885461059229e+00 -1.6077404050756886e+01 0.0000000000000000e+00 -1.6077404050756886e+01 1.0197530329809744e+02 0.0000000000000000e+00 0.0000000000000000e+00 0.0000000000000000e+00 0.0000000000000000e+00  5.6822975761721244e+00 -1.0127719742688708e+01 0.0000000000000000e+00 -1.0127719742688708e+01 5.5333299712672257e+01 0.0000000000000000e+00 0.0000000000000000e+00 0.0000000000000000e+00 0.0000000000000000e+00  -1.8351530870524030e-01 3.9861018670413917e-02 0.0000000000000000e+00 3.9861018670413924e-02 2.2947475357935213e+02 0.0000000000000000e+00 0.0000000000000000e+00 0.0000000000000000e+00 0.0000000000000000e+00  -9.4591364731800576e-01 8.5001428606652760e-02 0.0000000000000000e+00 8.5001428606652815e-02 2.3082514205580287e+02 0.0000000000000000e+00 0.0000000000000000e+00 0.0000000000000000e+00 0.0000000000000000e+00  -2.0665837194259202e+00 1.3889107810968526e-01 0.0000000000000000e+00 1.3889107810968529e-01 2.3285943744403295e+02 0.0000000000000000e+00 0.0000000000000000e+00 0.0000000000000000e+00 0.0000000000000000e+00  -3.4275343191920160e+00 1.6057771261043824e-01 0.0000000000000000e+00 1.6057771261043824e-01 2.3509490386615664e+02 0.0000000000000000e+00 0.0000000000000000e+00 0.0000000000000000e+00 0.0000000000000000e+00  -4.4931949246387362e+00 2.2423353282953762e-01 0.0000000000000000e+00 2.2423353282953762e-01 2.3823209085142986e+02 0.0000000000000000e+00 0.0000000000000000e+00 0.0000000000000000e+00 0.0000000000000000e+00  -5.7654821612075207e+00 7.0178955695158377e-02 0.0000000000000000e+00 7.0178955695158377e-02 2.4129003096017732e+02 0.0000000000000000e+00 0.0000000000000000e+00 0.0000000000000000e+00 0.0000000000000000e+00  -6.8362066203060463e+00 1.5992045544616973e-02 0.0000000000000000e+00 1.5992045544616973e-02 2.4364017252162679e+02 0.0000000000000000e+00 0.0000000000000000e+00 0.0000000000000000e+00 0.0000000000000000e+00  -7.1201028952604730e+00 -5.6663840319562319e-03 0.0000000000000000e+00 -5.6663840319562319e-03 2.4633638863168699e+02 0.0000000000000000e+00 0.0000000000000000e+00 0.0000000000000000e+00 0.0000000000000000e+00  -7.7885465722624332e+00 -6.6846463838784176e-03 0.0000000000000000e+00 -6.6846463838784176e-03 2.4791220642658624e+02 0.0000000000000000e+00 0.0000000000000000e+00 0.0000000000000000e+00 0.0000000000000000e+00  -8.1608000845353157e+00 -7.1278760876381367e-02 0.0000000000000000e+00 -7.1278760876381367e-02 2.4955664607263637e+02 0.0000000000000000e+00 0.0000000000000000e+00 0.0000000000000000e+00 0.0000000000000000e+00  -8.2093741714565169e+00 -1.1029716006099893e-01 0.0000000000000000e+00 -1.1029716006099893e-01 2.5091016330847120e+02 0.0000000000000000e+00 0.0000000000000000e+00 0.0000000000000000e+00 0.0000000000000000e+00  -8.0852593240473762e+00 -1.0331410963245720e-01 0.0000000000000000e+00 -1.0331410963245720e-01 2.5175264439697003e+02 0.0000000000000000e+00 0.0000000000000000e+00 0.0000000000000000e+00 0.0000000000000000e+00  -7.8962240174402671e+00 -8.7118150638493347e-02 0.0000000000000000e+00 -8.7118150638493347e-02 2.5234763263145794e+02 0.0000000000000000e+00 0.0000000000000000e+00 0.0000000000000000e+00 0.0000000000000000e+00  -7.6433102265317183e+00 -9.1557381217595379e-02 0.0000000000000000e+00 -9.1557381217595379e-02 2.5271693446632321e+02 0.0000000000000000e+00 0.0000000000000000e+00 0.0000000000000000e+00 0.0000000000000000e+00  -7.3239552442299303e+00 -8.5758616861776327e-02 0.0000000000000000e+00 -8.5758616861776327e-02 2.5285960646188954e+02 0.0000000000000000e+00 0.0000000000000000e+00 0.0000000000000000e+00 0.0000000000000000e+00  -6.9971735373867787e+00 -7.4883722507553860e-02 0.0000000000000000e+00 -7.4883722507553860e-02 2.5285875247796085e+02 0.0000000000000000e+00 0.0000000000000000e+00 0.0000000000000000e+00 0.0000000000000000e+00  -6.6772979967538557e+00 -6.2940695409195335e-02 0.0000000000000000e+00 -6.2940695409195335e-02 2.5272181180794740e+02 0.0000000000000000e+00 0.0000000000000000e+00 0.0000000000000000e+00 0.0000000000000000e+00  -6.3726725616831139e+00 -5.0989164465665045e-02 0.0000000000000000e+00 -5.0989164465665045e-02 2.5248697081525981e+02 0.0000000000000000e+00 0.0000000000000000e+00 0.0000000000000000e+00 0.0000000000000000e+00  -6.0849242849623568e+00 -3.8906246929326545e-02 0.0000000000000000e+00 -3.8906246929326545e-02 2.5216496807997760e+02 0.0000000000000000e+00 0.0000000000000000e+00 0.0000000000000000e+00 0.0000000000000000e+00  -5.8283576282667067e+00 -2.6069041866889017e-02 0.0000000000000000e+00 -2.6069041866889017e-02 2.5177013673775261e+02 0.0000000000000000e+00 0.0000000000000000e+00 0.0000000000000000e+00 0.0000000000000000e+00  -5.5906843077056747e+00 -1.6156415642130363e-02 0.0000000000000000e+00 -1.6156415642130363e-02 2.5131768344833463e+02 0.0000000000000000e+00 0.0000000000000000e+00 0.0000000000000000e+00 0.0000000000000000e+00  -5.3703106309389224e+00 -5.7156729455990242e-03 0.0000000000000000e+00 -5.7156729455990242e-03 2.5079266660376612e+02 0.0000000000000000e+00 0.0000000000000000e+00 0.0000000000000000e+00 0.0000000000000000e+00  -5.1636897941479942e+00 3.7263362236156475e-03 0.0000000000000000e+00 3.7263362236156475e-03 2.5020191004712564e+02 0.0000000000000000e+00 0.0000000000000000e+00 0.0000000000000000e+00 0.0000000000000000e+00  -4.9549433353082106e+00 1.1706104402621827e-03 0.0000000000000000e+00 1.1706104402621827e-03 2.4953318847323069e+02 0.0000000000000000e+00 0.0000000000000000e+00 0.0000000000000000e+00 0.0000000000000000e+00  -4.7296064937793894e+00 8.4953997575056197e-03 0.0000000000000000e+00 8.4953997575056197e-03 2.4882861752321682e+02 0.0000000000000000e+00 0.0000000000000000e+00 0.0000000000000000e+00 0.0000000000000000e+00  -4.4853780379584283e+00 8.1008008658685158e-03 0.0000000000000000e+00 8.1008008658685158e-03 2.4800501572409328e+02 0.0000000000000000e+00 0.0000000000000000e+00 0.0000000000000000e+00 0.0000000000000000e+00  -4.2375963773362928e+00 1.1291259787184281e-02 0.0000000000000000e+00 1.1291259787184281e-02 2.4710456968716400e+02 0.0000000000000000e+00 0.0000000000000000e+00 0.0000000000000000e+00 0.0000000000000000e+00  -3.9493208706927398e+00 -1.2644674117175422e-03 0.0000000000000000e+00 -1.2644674117175422e-03 2.4619402886974174e+02 0.0000000000000000e+00 0.0000000000000000e+00 0.0000000000000000e+00 0.0000000000000000e+00  -3.6275317435583245e+00 1.0624512291002319e-03 0.0000000000000000e+00 1.0624512291002319e-03 2.4521548233763431e+02 0.0000000000000000e+00 0.0000000000000000e+00 0.0000000000000000e+00 0.0000000000000000e+00  -3.2901089917968704e+00 5.1636695512424511e-03 0.0000000000000000e+00 5.1636695512424511e-03 2.4414442223174203e+02 0.0000000000000000e+00 0.0000000000000000e+00 0.0000000000000000e+00 0.0000000000000000e+00  -2.8811447082944435e+00 5.5727756233081311e-03 0.0000000000000000e+00 5.5727756233081311e-03 2.4306339119415108e+02 0.0000000000000000e+00 0.0000000000000000e+00 0.0000000000000000e+00 0.0000000000000000e+00  -2.5199782314843899e+00 -8.8774430207605205e-03 0.0000000000000000e+00 -8.8774430207605084e-03 2.4188626856182401e+02 0.0000000000000000e+00 0.0000000000000000e+00 0.0000000000000000e+00 0.0000000000000000e+00  -2.0558037840511387e+00 -1.9076469894355966e-02 0.0000000000000000e+00 -1.9076469894356043e-02 2.4074304503505809e+02 0.0000000000000000e+00 0.0000000000000000e+00 0.0000000000000000e+00 0.0000000000000000e+00  -1.6171155672856681e+00 -2.4201718956639078e-02 0.0000000000000000e+00 -2.4201718956639140e-02 2.3967908357518994e+02 0.0000000000000000e+00 0.0000000000000000e+00 0.0000000000000000e+00 0.0000000000000000e+00  -1.1866345218614767e+00 -1.1974389218644063e-02 0.0000000000000000e+00 -1.1974389218644061e-02 2.3863710207074601e+02 0.0000000000000000e+00 0.0000000000000000e+00 0.0000000000000000e+00 0.0000000000000000e+00  -8.0364309225166353e-01 -7.7517051036007315e-03 0.0000000000000000e+00 -7.7517051036007315e-03 2.3763583857338776e+02 0.0000000000000000e+00 0.0000000000000000e+00 0.0000000000000000e+00 0.0000000000000000e+00  -4.7566239037202979e-01 -4.9423414671423719e-03 0.0000000000000000e+00 -4.9423414671423260e-03 2.3678535406025682e+02 0.0000000000000000e+00 0.0000000000000000e+00 0.0000000000000000e+00 0.0000000000000000e+00  -2.1610651414627968e-01 1.0047383101810176e-03 0.0000000000000000e+00 1.0047383101810534e-03 2.3605333513615719e+02 0.0000000000000000e+00 0.0000000000000000e+00 0.0000000000000000e+00 0.0000000000000000e+00  -3.0475298070711053e-02 2.0210231813922102e-02 0.0000000000000000e+00 2.0210231813922081e-02 2.3558298952619865e+02 0.0000000000000000e+00 0.0000000000000000e+00 0.0000000000000000e+00 0.0000000000000000e+00  6.7328183853116883e+00 1.2668365924071532e+01 0.0000000000000000e+00 1.2668365924071532e+01 4.3514772764625988e+01 0.0000000000000000e+00 0.0000000000000000e+00 0.0000000000000000e+00 0.0000000000000000e+00  2.6359882961432601e-01 1.3718394273742538e+01 0.0000000000000000e+00 1.3718394273742538e+01 1.0773017035335876e+02 0.0000000000000000e+00 0.0000000000000000e+00 0.0000000000000000e+00 0.0000000000000000e+00  -9.8243519836552440e-01 9.6416322698251058e+00 0.0000000000000000e+00 9.6416322698251058e+00 1.4674988974494048e+02 0.0000000000000000e+00 0.0000000000000000e+00 0.0000000000000000e+00 0.0000000000000000e+00  -1.0447961666690113e+00 6.1636051588620306e+00 0.0000000000000000e+00 6.1636051588620306e+00 1.7443109772075741e+02 0.0000000000000000e+00 0.0000000000000000e+00 0.0000000000000000e+00 0.0000000000000000e+00  -7.0953008086253744e-01 3.9409521746573937e+00 0.0000000000000000e+00 3.9409521746573937e+00 1.9089268865082011e+02 0.0000000000000000e+00 0.0000000000000000e+00 0.0000000000000000e+00 0.0000000000000000e+00  -4.8429418062745216e-01 2.4941106721946675e+00 0.0000000000000000e+00 2.4941106721946675e+00 2.0221772799453507e+02 0.0000000000000000e+00 0.0000000000000000e+00 0.0000000000000000e+00 0.0000000000000000e+00  -3.1451254424412961e-01 2.4024969841465360e+00 0.0000000000000000e+00 2.4024969841465360e+00 2.1126367585527984e+02 0.0000000000000000e+00 0.0000000000000000e+00 0.0000000000000000e+00 0.0000000000000000e+00  -3.4407992968580631e-01 1.4737052992780841e+00 0.0000000000000000e+00 1.4737052992780841e+00 2.1563596102604214e+02 0.0000000000000000e+00 0.0000000000000000e+00 0.0000000000000000e+00 0.0000000000000000e+00  -6.8070593610970828e-02 9.6385211597510367e-01 0.0000000000000000e+00 9.6385211597510412e-01 2.2133169995521672e+02 0.0000000000000000e+00 0.0000000000000000e+00 0.0000000000000000e+00 0.0000000000000000e+00  -1.6983187602040781e-01 7.6367897823041420e-01 0.0000000000000000e+00 7.6367897823041453e-01 2.2427141410856265e+02 0.0000000000000000e+00 0.0000000000000000e+00 0.0000000000000000e+00 0.0000000000000000e+00  -1.0080311339241090e-01 4.3910317020353640e-01 0.0000000000000000e+00 4.3910317020353656e-01 2.2628914908249820e+02 0.0000000000000000e+00 0.0000000000000000e+00 0.0000000000000000e+00 0.0000000000000000e+00  -3.3084992348840200e-02 2.2683349681336354e-01 0.0000000000000000e+00 2.2683349681336340e-01 2.2770192119996344e+02 0.0000000000000000e+00 0.0000000000000000e+00 0.0000000000000000e+00 0.0000000000000000e+00  -4.1937277573910574e-02 1.5999327834798033e-01 0.0000000000000000e+00 1.5999327834798030e-01 2.2863838154223779e+02 0.0000000000000000e+00 0.0000000000000000e+00 0.0000000000000000e+00 0.0000000000000000e+00  4.7114587729364587e+01 6.8785203819055496e+01 0.0000000000000000e+00 6.8785203819055496e+01 1.1343547893134446e+02 0.0000000000000000e+00 0.0000000000000000e+00 0.0000000000000000e+00 0.0000000000000000e+00  1.0826298704262577e+02 1.3387789454561755e+02 0.0000000000000000e+00 1.3387789454561755e+02 3.8103908358446489e+02 0.0000000000000000e+00 0.0000000000000000e+00 0.0000000000000000e+00 0.0000000000000000e+00  7.0965245552171552e+01 8.3585359811403364e+01 0.0000000000000000e+00 8.3585359811403364e+01 6.4814914947789453e+02 0.0000000000000000e+00 0.0000000000000000e+00 0.0000000000000000e+00 0.0000000000000000e+00  1.0612179540479693e+02 -5.0945516217687995e+01 0.0000000000000000e+00 -5.0945516217687995e+01 5.7931193621976138e+02 0.0000000000000000e+00 0.0000000000000000e+00 0.0000000000000000e+00 0.0000000000000000e+00  7.7809006249320134e+01 -1.4134701984740693e+02 0.0000000000000000e+00 -1.4134701984740693e+02 3.9335115225603067e+02 0.0000000000000000e+00 0.0000000000000000e+00 0.0000000000000000e+00 0.0000000000000000e+00  3.3599620026083940e+01 -6.1284047410995662e+01 0.0000000000000000e+00 -6.1284047410995662e+01 1.2467318866740590e+02 0.0000000000000000e+00 0.0000000000000000e+00 0.0000000000000000e+00 0.0000000000000000e+00  -9.9335805445776234e-05 -5.5999055592561624e-02 0.0000000000000000e+00 -5.5999055592561624e-02 2.3548832718327091e+02 0.0000000000000000e+00 0.00000000000