<?xml version="1.0"?>
<VTKFile type="UnstructuredGrid"  version="0.1"  >
<UnstructuredGrid>
<Piece  NumberOfPoints="2165" NumberOfCells="4161">
<Points>
<DataArray  type="Float64"  NumberOfComponents="3"  format="ascii">-3.598637933768527e-16 0.3500000000000001 0  0.05 0.4 0  -3.537405593811159e-16 0.45 0  0 1 0  1 1 0  0.9999999999999997 0.65 0  0.9999999999999997 0.5499999999999999 0  1 0 0  0 0 0  0.0191341716182545 0.3538060233744357 0  0.03535533905932737 0.3646446609406727 0  0.04619397662556433 0.3808658283817455 0  0.04619397662556434 0.4191341716182545 0  0.03535533905932738 0.4353553390593274 0  0.01913417161825449 0.4461939766255644 0  0 0.975 0  0 0.95 0  0 0.9249999999999999 0  0 0.8999999999999998 0  0 0.8749999999999998 0  0 0.8499999999999998 0  0 0.8249999999999997 0  0 0.7999999999999996 0  0 0.7749999999999996 0  0 0.7499999999999996 0  0 0.7249999999999996 0  0 0.6999999999999997 0  0 0.6749999999999998 0  0 0.6499999999999999 0  0 0.6249999999999999 0  0 0.6 0  0 0.575 0  0 0.5499999999999998 0  0 0.5249999999999999 0  0 0.4999999999999998 0  0 0.4749999999999999 0  0.975 1 0  0.95 1 0  0.925 1 0  0.9 1 0  0.875 1 0  0.85 1 0  0.825 1 0  0.8 1 0  0.775 1 0  0.75 1 0  0.725 1 0  0.7 1 0  0.675 1 0  0.65 1 0  0.625 1 0  0.6 1 0  0.575 1 0  0.55 1 0  0.525 1 0  0.5 1 0  0.475 1 0  0.45 1 0  0.425 1 0  0.4 1 0  0.375 1 0  0.35 1 0  0.325 1 0  0.3 1 0  0.275 1 0  0.25 1 0  0.225 1 0  0.2 1 0  0.175 1 0  0.15 1 0  0.125 1 0  0.09999999999999998 1 0  0.07499999999999996 1 0  0.05000000000000004 1 0  0.02500000000000002 1 0  1 0.675 0  1 0.7000000000000001 0  1 0.7250000000000001 0  1 0.7500000000000001 0  1 0.7750000000000001 0  1 0.8000000000000002 0  1 0.8250000000000002 0  1 0.8500000000000002 0  1 0.8750000000000003 0  1 0.9000000000000001 0  1 0.9250000000000002 0  1 0.9500000000000001 0  1 0.9750000000000001 0  0.9783058130441221 0.6450484433951209 0  0.9609084258765985 0.6311744900929367 0  0.9512536043909088 0.6111260466978157 0  0.9512536043909088 0.5888739533021843 0  0.9609084258765985 0.5688255099070633 0  0.9783058130441221 0.554951556604879 0  1 0.02500000000000002 0  1 0.05000000000000004 0  1 0.07500000000000008 0  1 0.1000000000000001 0  1 0.1250000000000001 0  1 0.1500000000000002 0  1 0.1750000000000002 0  1 0.2000000000000003 0  1 0.2250000000000003 0  1 0.2500000000000004 0  1 0.2750000000000004 0  1 0.3000000000000003 0  1 0.3250000000000002 0  1 0.3500000000000001 0  1 0.3750000000000001 0  1 0.3999999999999999 0  1 0.425 0  1 0.45 0  1 0.475 0  1 0.5000000000000001 0  1 0.5249999999999999 0  0.025 0 0  0.05 0 0  0.075 0 0  0.1 0 0  0.125 0 0  0.15 0 0  0.175 0 0  0.2 0 0  0.225 0 0  0.25 0 0  0.275 0 0  0.3 0 0  0.325 0 0  0.35 0 0  0.375 0 0  0.4 0 0  0.425 0 0  0.45 0 0  0.475 0 0  0.5 0 0  0.525 0 0  0.55 0 0  0.575 0 0  0.6 0 0  0.625 0 0  0.65 0 0  0.675 0 0  0.7 0 0  0.725 0 0  0.75 0 0  0.775 0 0  0.8 0 0  0.825 0 0  0.85 0 0  0.875 0 0  0.9 0 0  0.925 0 0  0.95 0 0  0.975 0 0  0 0.3250000000000001 0  0 0.3 0  0 0.275 0  0 0.2499999999999999 0  0 0.2249999999999999 0  0 0.1999999999999998 0  0 0.1749999999999998 0  0 0.1499999999999998 0  0 0.1249999999999998 0  0 0.09999999999999987 0  0 0.07499999999999984 0  0 0.04999999999999993 0  0 0.02500000000000002 0  0.06453325334544308 0.4134708543086404 0  0.5146839915088474 0.02134387884913819 0  0.4875871001393628 0.9784117024331356 0  0.9386300160094723 0.5701776715936071 0  0.0216506350946109 0.6124999999999999 0  0.9764205887290853 0.3596067946540696 0  0.3876261045932067 0.02156097490657183 0  0.6125 0.978349364905389 0  0.3612127461797463 0.9792371404802113 0  0.6374786650398092 0.02079982608537345 0  0.9387185538472446 0.6295115890709873 0  0.05482260092545593 0.3633687091864355 0  0.02445354803948679 0.7343198207875321 0  0.2624888813627476 0.02091671348578122 0  0.7375212991274043 0.9794996488945376 0  0.9793010831723812 0.2648509348664836 0  0.2625026480689301 0.9795699185263282 0  0.7362840788105066 0.02225211062275217 0  0.02159327910297104 0.2128861809896528 0  0.9786837570973538 0.7867241244631172 0  0.02419728000065929 0.8365600234152764 0  0.980043283615984 0.1624097203408714 0  0.1645857434226354 0.0205513501962844 0  0.8339481359352011 0.9784483546369231 0  0.1637584777222821 0.9774556328160621 0  0.8374916614314967 0.02165097219510076 0  0.02171915379676059 0.5370700005916152 0  0.9795335762511281 0.4365726939225819 0  0.02319480745007968 0.1370197632171214 0  0.9774462976085161 0.8592616917551974 0  0.9786941241076723 0.7122511101067891 0  0.9797883857882621 0.08781864217752949 0  0.01966314788989931 0.9125801876811624 0  0.02051815350151098 0.2882126194470174 0  0.09063226699593246 0.0214884092697174 0  0.9124408843562394 0.9818463395009377 0  0.03872465516591678 0.452731089005145 0  0.08969424365256845 0.978412979507602 0  0.9124999999999999 0.02165063509461096 0  0.02158104789437187 0.6619299176372371 0  0.9796602354625652 0.4859004208706154 0  0.3127517983598529 0.02417963694738812 0  0.4375629605000894 0.02158039900821679 0  0.5643674594196073 0.01968996000301126 0  0.5368361594956101 0.9790428840407062 0  0.4376176251051295 0.9783667484208922 0  0.6874072695660477 0.978435143102373 0  0.310604317388614 0.979558305560928 0  0.2125577044121564 0.02066685543111635 0  0.6875 0.0216506350946109 0  0.02224009810917643 0.08811420611559456 0  0.790876428529276 0.978633065284896 0  0.2125 0.978349364905389 0  0.9788033534786624 0.2116925349935155 0  0.9769441169344462 0.3150381335760689 0  0.9804648376981185 0.9123186437266726 0  0.7874999988222203 0.02127957051165741 0  0.02109233852270731 0.786866823287435 0  0.9483709287873718 0.5504073206521916 0  0.9259842326464427 0.5519702047534598 0  0.9163209045278007 0.5719292915927929 0  0.9035374059862284 0.5537291796040291 0  0.8938951918780048 0.5738949757882954 0  0.8807940177559743 0.5546750869516996 0  0.8712661812741653 0.5757142549099102 0  0.8580668865514332 0.5563902430113601 0  0.848508161986991 0.5779004013072002 0  0.8354274200119249 0.5591176379057713 0  0.8256349826905482 0.5800610629400762 0  0.8124123591208572 0.5604454546391737 0  0.802603410938817 0.5819653950592523 0  0.7892876429890218 0.562234610648543 0  0.7794355871850538 0.583896242519796 0  0.7661469824381839 0.5648243426306435 0  0.7562387679604726 0.5860005456930413 0  0.7429651600512166 0.5669367633461588 0  0.7330846968880171 0.5879590907760761 0  0.7198577999459205 0.5688986880627463 0  0.7297050500533544 0.5479561801187277 0  0.7066243396993471 0.5499068108517552 0  0.6968285086900206 0.5707989520567972 0  0.6836266810714333 0.5519088927359967 0  0.6738604685766018 0.5727655091567184 0  0.6607284761452521 0.5538781923028128 0  0.6697149783704412 0.5321140554135094 0  0.6473436039782401 0.5350050604671006 0  0.6378867365666199 0.5557804038095817 0  0.6246915360243652 0.5362124690568238 0  0.6151175309583405 0.5575933164645619 0  0.6019784180102355 0.5380659376543677 0  0.5924099113505394 0.5593739656462906 0  0.5794110962027638 0.541110021814312 0  0.5697985396917309 0.5614600003719357 0  0.5568468707330213 0.5433212932327446 0  0.5472634011377896 0.5635652141280936 0  0.5343236363495072 0.5451361960661517 0  0.5247877773262166 0.565493591892781 0  0.5118927934227436 0.5470665328397559 0  0.5023398230005425 0.5674381114577953 0  0.5213991904098014 0.5267047787870831 0  0.4990390504096661 0.528649139287786 0  0.6328887517229864 0.5131744321062524 0  0.5085133205790763 0.5083322037773296 0  0.4861972978925295 0.5102540920324363 0  0.4956914791804768 0.4899605513008993 0  0.4734139980312694 0.4918582759645476 0  0.4826986629698439 0.4717164019717278 0  0.460570567761715 0.473509155475794 0  0.4699344541058981 0.4533140529328089 0  0.4477087341565655 0.4550973130597117 0  0.4381733274019614 0.4752901381741884 0  0.4570222843287571 0.4349938694701042 0  0.4348599018247688 0.436728068420533 0  0.5604623134382263 0.581815997002507 0  0.4443612964408632 0.416499823314016 0  0.422056299386984 0.4183730429856528 0  0.4688721528228815 0.4135009841763965 0  0.4315584877924544 0.398120546824229 0  0.4092288692044618 0.3999974286008185 0  0.7463210599443056 0.6070829843371945 0  0.4187270626688335 0.3797365044773463 0  0.3964262302393312 0.3817184136470017 0  0.3869780036193907 0.4018498778543814 0  0.3742423843122406 0.3837055716372927 0  0.3648701490102072 0.4037049758807119 0  0.3518115403926748 0.3858985036587403 0  0.3426146276710081 0.4056777495658291 0  0.3614541441355358 0.3656396497906528 0  0.339026673715919 0.3678724679736439 0  0.3485566370135618 0.3476560889674916 0  0.3264681821394378 0.3496422822523857 0  0.8219942777991693 0.5379143061758643 0  0.3358297439968608 0.3295117748868035 0  0.3137050884585635 0.3314921667582986 0  0.3229980644152205 0.3113561769498422 0  0.3007986024336577 0.3133063832007756 0  0.3441851868720173 0.3085211458266175 0  0.3101966551534752 0.2930273704914169 0  0.287793053707373 0.2950088132226583 0  0.2914417217227097 0.3337427541189321 0  0.2975120686695638 0.2743682539701985 0  0.274864585256681 0.2764253296978281 0  0.816026571618698 0.6006851919544112 0  0.2844672854128698 0.2557011565880619 0  0.2617267434509338 0.2577713002235077 0  0.3072711221189672 0.2536790056475094 0  0.2521588568690318 0.2785072139143895 0  0.2389277409161178 0.2598761196336353 0  0.248448076747058 0.2389478879785275 0  0.5053822153261678 0.4716915524631118 0  0.229548765875869 0.2806542761043101 0  0.2254561407802683 0.2411354049374563 0  0.2350621310805047 0.2199181955146378 0  0.2117782450160163 0.222165061041625 0  0.2214249125635323 0.2008136877065064 0  0.2448758256083499 0.1985732693215908 0  0.197966291680556 0.2031211006951591 0  0.1883147493074436 0.2245564097761413 0  0.8910637266939049 0.5322898364209732 0  0.1748136087708587 0.2051141748992724 0  0.1842088801696792 0.1837087814679069 0  0.1656574100807746 0.2269812054689968 0  0.3554582346764377 0.4236292557112198 0  0.3328979939923831 0.425459320867588 0  0.3460368767112177 0.4435398346083328 0  0.3238464003
[...]
<PointData  Tensors="$\sigma$"> 
<DataArray  type="Float64"  Name="$\sigma$"  NumberOfComponents="9" format="ascii">-1.0834492880135515e+02 -1.7041037760919770e+02 0.0000000000000000e+00 -1.7041037760919789e+02 -4.0079784771839957e+02 0.0000000000000000e+00 0.0000000000000000e+00 0.0000000000000000e+00 0.0000000000000000e+00  5.7800578827958759e+02 1.5454209679327663e+01 0.0000000000000000e+00 1.5454209679327860e+01 8.1257792562297182e+03 0.0000000000000000e+00 0.0000000000000000e+00 0.0000000000000000e+00 0.0000000000000000e+00  -8.8979951722400415e+01 1.9953021049906567e+02 0.0000000000000000e+00 1.9953021049906562e+02 -4.1759959158668676e+02 0.0000000000000000e+00 0.0000000000000000e+00 0.0000000000000000e+00 0.0000000000000000e+00  3.4558292493856474e-02 3.1529383466488081e-01 0.0000000000000000e+00 3.1529383466488087e-01 2.5790140594523450e+03 0.0000000000000000e+00 0.0000000000000000e+00 0.0000000000000000e+00 0.0000000000000000e+00  3.1999036150699456e-01 -4.4232585140900255e-02 0.0000000000000000e+00 -4.4232585140902177e-02 2.5016774284763192e+03 0.0000000000000000e+00 0.0000000000000000e+00 0.0000000000000000e+00 0.0000000000000000e+00  -1.1876012212722780e+02 -1.9684374396058038e+02 0.0000000000000000e+00 -1.9684374396058021e+02 -4.7295705843815888e+01 0.0000000000000000e+00 0.0000000000000000e+00 0.0000000000000000e+00 0.0000000000000000e+00  8.4972904044557794e+01 -4.8078192876855475e+01 0.0000000000000000e+00 -4.8078192876855475e+01 6.6748441529823765e+01 0.0000000000000000e+00 0.0000000000000000e+00 0.0000000000000000e+00 0.0000000000000000e+00  -1.0813135870587830e-01 5.0985613971029478e-02 0.0000000000000000e+00 5.0985613971029929e-02 2.5801053835294992e+03 0.0000000000000000e+00 0.0000000000000000e+00 0.0000000000000000e+00 0.0000000000000000e+00  7.3392687843845908e+02 3.0625346811190155e+02 0.0000000000000000e+00 3.0625346811190173e+02 2.7014064790829566e+03 0.0000000000000000e+00 0.0000000000000000e+00 0.0000000000000000e+00 0.0000000000000000e+00  4.1427779227092014e+02 3.7680124323266750e+02 0.0000000000000000e+00 3.7680124323266756e+02 3.4867013485585989e+02 0.0000000000000000e+00 0.0000000000000000e+00 0.0000000000000000e+00 0.0000000000000000e+00  1.3441617130067898e+03 1.6042091169675155e+03 0.0000000000000000e+00 1.6042091169675166e+03 2.2214144838191960e+03 0.0000000000000000e+00 0.0000000000000000e+00 0.0000000000000000e+00 0.0000000000000000e+00  1.1242774640766690e+03 1.9364107504880103e+03 0.0000000000000000e+00 1.9364107504880099e+03 6.1417704912419149e+03 0.0000000000000000e+00 0.0000000000000000e+00 0.0000000000000000e+00 0.0000000000000000e+00  1.1091681760398228e+03 -1.9570214836117884e+03 0.0000000000000000e+00 -1.9570214836117889e+03 6.1233834473817078e+03 0.0000000000000000e+00 0.0000000000000000e+00 0.0000000000000000e+00 0.0000000000000000e+00  1.3350799694051786e+03 -1.5737770283664433e+03 0.0000000000000000e+00 -1.5737770283664443e+03 2.3541282419500590e+03 0.0000000000000000e+00 0.0000000000000000e+00 0.0000000000000000e+00 0.0000000000000000e+00  4.0062870493251143e+02 -4.0272897748539657e+02 0.0000000000000000e+00 -4.0272897748539685e+02 3.3894019929120861e+02 0.0000000000000000e+00 0.0000000000000000e+00 0.0000000000000000e+00 0.0000000000000000e+00  -3.0430268083113205e-03 -1.2335187801864121e-01 0.0000000000000000e+00 -1.2335187801864075e-01 2.5778666981427741e+03 0.0000000000000000e+00 0.0000000000000000e+00 0.0000000000000000e+00 0.0000000000000000e+00  1.7311612333838610e-02 -4.1949863516137625e-01 0.0000000000000000e+00 -4.1949863516137464e-01 2.5759777222548787e+03 0.0000000000000000e+00 0.0000000000000000e+00 0.0000000000000000e+00 0.0000000000000000e+00  1.7114836794616040e-01 -4.2239806864826102e-01 0.0000000000000000e+00 -4.2239806864825952e-01 2.5726401340415737e+03 0.0000000000000000e+00 0.0000000000000000e+00 0.0000000000000000e+00 0.0000000000000000e+00  -1.3336268038096893e-01 -4.1345436822653964e-01 0.0000000000000000e+00 -4.1345436822654236e-01 2.5675552735065594e+03 0.0000000000000000e+00 0.0000000000000000e+00 0.0000000000000000e+00 0.0000000000000000e+00  1.0017687506674704e-01 -7.2586436914513597e-01 0.0000000000000000e+00 -7.2586436914513863e-01 2.5608338441286651e+03 0.0000000000000000e+00 0.0000000000000000e+00 0.0000000000000000e+00 0.0000000000000000e+00  4.3025498213762703e-01 -1.3397154064690830e+00 0.0000000000000000e+00 -1.3397154064690806e+00 2.5535822419132155e+03 0.0000000000000000e+00 0.0000000000000000e+00 0.0000000000000000e+00 0.0000000000000000e+00  -6.7255863312572869e-02 -1.0781791178349511e+00 0.0000000000000000e+00 -1.0781791178349440e+00 2.5408192523075591e+03 0.0000000000000000e+00 0.0000000000000000e+00 0.0000000000000000e+00 0.0000000000000000e+00  2.0518170775581636e-02 -1.6196638114212036e+00 0.0000000000000000e+00 -1.6196638114212081e+00 2.5288422403521704e+03 0.0000000000000000e+00 0.0000000000000000e+00 0.0000000000000000e+00 0.0000000000000000e+00  5.3586190009342860e-01 -2.1916647103288627e+00 0.0000000000000000e+00 -2.1916647103288662e+00 2.5131085718648196e+03 0.0000000000000000e+00 0.0000000000000000e+00 0.0000000000000000e+00 0.0000000000000000e+00  6.0289574494584952e-01 -2.5501452399800462e+00 0.0000000000000000e+00 -2.5501452399800457e+00 2.4950730430966182e+03 0.0000000000000000e+00 0.0000000000000000e+00 0.0000000000000000e+00 0.0000000000000000e+00  1.7310887541231762e-01 -3.3615566462619131e+00 0.0000000000000000e+00 -3.3615566462619011e+00 2.4621354152624649e+03 0.0000000000000000e+00 0.0000000000000000e+00 0.0000000000000000e+00 0.0000000000000000e+00  1.8944271305868751e-01 -5.5580809772986539e+00 0.0000000000000000e+00 -5.5580809772986575e+00 2.4415489140627988e+03 0.0000000000000000e+00 0.0000000000000000e+00 0.0000000000000000e+00 0.0000000000000000e+00  2.4561260141440382e-02 -4.3137662015021325e+00 0.0000000000000000e+00 -4.3137662015021281e+00 2.3924558582280697e+03 0.0000000000000000e+00 0.0000000000000000e+00 0.0000000000000000e+00 0.0000000000000000e+00  1.1890750408070394e+00 -6.5445285504182760e+00 0.0000000000000000e+00 -6.5445285504182849e+00 2.3466509439131519e+03 0.0000000000000000e+00 0.0000000000000000e+00 0.0000000000000000e+00 0.0000000000000000e+00  2.6725440068392121e+00 -4.0226697762067731e+00 0.0000000000000000e+00 -4.0226697762068042e+00 2.2730832569470003e+03 0.0000000000000000e+00 0.0000000000000000e+00 0.0000000000000000e+00 0.0000000000000000e+00  -1.2445624158980224e+00 -9.0223222129165119e+00 0.0000000000000000e+00 -9.0223222129164942e+00 2.1818083722752672e+03 0.0000000000000000e+00 0.0000000000000000e+00 0.0000000000000000e+00 0.0000000000000000e+00  8.4532268687682990e+00 -2.3924764805539176e+01 0.0000000000000000e+00 -2.3924764805539198e+01 2.0378137012224131e+03 0.0000000000000000e+00 0.0000000000000000e+00 0.0000000000000000e+00 0.0000000000000000e+00  -3.4866106153073035e+00 -1.9841846580178711e+01 0.0000000000000000e+00 -1.9841846580178682e+01 1.8376105026423538e+03 0.0000000000000000e+00 0.0000000000000000e+00 0.0000000000000000e+00 0.0000000000000000e+00  9.8769192502299727e+00 -6.9334359813299344e+01 0.0000000000000000e+00 -6.9334359813299400e+01 1.5168759338099208e+03 0.0000000000000000e+00 0.0000000000000000e+00 0.0000000000000000e+00 0.0000000000000000e+00  -2.5953832086893161e+01 -8.4347314724110305e+01 0.0000000000000000e+00 -8.4347314724110177e+01 1.0244544888019766e+03 0.0000000000000000e+00 0.0000000000000000e+00 0.0000000000000000e+00 0.0000000000000000e+00  8.4808490352831001e+01 -9.5745455773698396e+01 0.0000000000000000e+00 -9.5745455773698396e+01 3.7969565048725599e+02 0.0000000000000000e+00 0.0000000000000000e+00 0.0000000000000000e+00 0.0000000000000000e+00  -2.0342839759640641e+00 1.1109023911526508e-01 0.0000000000000000e+00 1.1109023911526196e-01 2.5072426861748390e+03 0.0000000000000000e+00 0.0000000000000000e+00 0.0000000000000000e+00 0.0000000000000000e+00  -1.0680054118270904e+01 1.1847331087315388e-01 0.0000000000000000e+00 1.1847331087315399e-01 2.5236384565060825e+03 0.0000000000000000e+00 0.0000000000000000e+00 0.0000000000000000e+00 0.0000000000000000e+00  -2.3516504780525359e+01 7.0010251017186065e-01 0.0000000000000000e+00 7.0010251017186398e-01 2.5481374644053553e+03 0.0000000000000000e+00 0.0000000000000000e+00 0.0000000000000000e+00 0.0000000000000000e+00  -3.8843996320469905e+01 2.6308545497175057e-01 0.0000000000000000e+00 2.6308545497175989e-01 2.5761250733096253e+03 0.0000000000000000e+00 0.0000000000000000e+00 0.0000000000000000e+00 0.0000000000000000e+00  -5.1775633493717635e+01 1.1624740298149214e+00 0.0000000000000000e+00 1.1624740298149239e+00 2.6111789846838033e+03 0.0000000000000000e+00 0.0000000000000000e+00 0.0000000000000000e+00 0.0000000000000000e+00  -6.5296808255572387e+01 -7.8119868070553582e-03 0.0000000000000000e+00 -7.8119868070523233e-03 2.6451126696190563e+03 0.0000000000000000e+00 0.0000000000000000e+00 0.0000000000000000e+00 0.0000000000000000e+00  -7.8686576998394145e+01 -4.8195723674667561e-02 0.0000000000000000e+00 -4.8195723674668296e-02 2.6738714288487859e+03 0.0000000000000000e+00 0.0000000000000000e+00 0.0000000000000000e+00 0.0000000000000000e+00  -8.4928854841924021e+01 -2.4396977863174460e-01 0.0000000000000000e+00 -2.4396977863174268e-01 2.7055078941575739e+03 0.0000000000000000e+00 0.0000000000000000e+00 0.0000000000000000e+00 0.0000000000000000e+00  -9.1361176523030636e+01 1.0085979050287090e-01 0.0000000000000000e+00 1.0085979050286911e-01 2.7252535552735717e+03 0.0000000000000000e+00 0.0000000000000000e+00 0.0000000000000000e+00 0.0000000000000000e+00  -9.5273912910972982e+01 -3.2841650475380962e-01 0.0000000000000000e+00 -3.2841650475380951e-01 2.7447007418439066e+03 0.0000000000000000e+00 0.0000000000000000e+00 0.0000000000000000e+00 0.0000000000000000e+00  -9.5891365485017886e+01 -3.8240601782577216e-01 0.0000000000000000e+00 -3.8240601782577199e-01 2.7596082229282870e+03 0.0000000000000000e+00 0.0000000000000000e+00 0.0000000000000000e+00 0.0000000000000000e+00  -9.4856814186939502e+01 -4.8883200366204138e-01 0.0000000000000000e+00 -4.8883200366204116e-01 2.7696716462517343e+03 0.0000000000000000e+00 0.0000000000000000e+00 0.0000000000000000e+00 0.0000000000000000e+00  -9.2554291710413253e+01 -3.4376449255872349e-01 0.0000000000000000e+00 -3.4376449255872404e-01 2.7769087985238830e+03 0.0000000000000000e+00 0.0000000000000000e+00 0.0000000000000000e+00 0.0000000000000000e+00  -8.9586294918382208e+01 -3.0661664242742620e-01 0.0000000000000000e+00 -3.0661664242742842e-01 2.7813899064428779e+03 0.0000000000000000e+00 0.0000000000000000e+00 0.0000000000000000e+00 0.0000000000000000e+00  -8.5782628392596408e+01 -3.2319196959331942e-01 0.0000000000000000e+00 -3.2319196959331836e-01 2.7832235623844645e+03 0.0000000000000000e+00 0.0000000000000000e+00 0.0000000000000000e+00 0.0000000000000000e+00  -8.1928525517053629e+01 -3.3723471546103650e-01 0.0000000000000000e+00 -3.3723471546103628e-01 2.7833303540860466e+03 0.0000000000000000e+00 0.0000000000000000e+00 0.0000000000000000e+00 0.0000000000000000e+00  -7.8126881903989059e+01 -2.4719486587711542e-01 0.0000000000000000e+00 -2.4719486587711628e-01 2.7817563354019571e+03 0.0000000000000000e+00 0.0000000000000000e+00 0.0000000000000000e+00 0.0000000000000000e+00  -7.4494421242466885e+01 -2.3577860984471688e-01 0.0000000000000000e+00 -2.3577860984471688e-01 2.7791282345155282e+03 0.0000000000000000e+00 0.0000000000000000e+00 0.0000000000000000e+00 0.0000000000000000e+00  -7.1092285029188133e+01 -1.4979211284448246e-01 0.0000000000000000e+00 -1.4979211284448299e-01 2.7754455470719486e+03 0.0000000000000000e+00 0.0000000000000000e+00 0.0000000000000000e+00 0.0000000000000000e+00  -6.7957181721090834e+01 -1.0803912889889887e-01 0.0000000000000000e+00 -1.0803912889889832e-01 2.7707757483995924e+03 0.0000000000000000e+00 0.0000000000000000e+00 0.0000000000000000e+00 0.0000000000000000e+00  -6.5138233163537393e+01 -6.3434644267302373e-02 0.0000000000000000e+00 -6.3434644267303789e-02 2.7654179082748751e+03 0.0000000000000000e+00 0.0000000000000000e+00 0.0000000000000000e+00 0.0000000000000000e+00  -6.2399787367025397e+01 -3.0717414832741631e-02 0.0000000000000000e+00 -3.0717414832741548e-02 2.7593403584790181e+03 0.0000000000000000e+00 0.0000000000000000e+00 0.0000000000000000e+00 0.0000000000000000e+00  -5.9976440600453941e+01 1.6914582139746952e-03 0.0000000000000000e+00 1.6914582139753965e-03 2.7524290611046035e+03 0.0000000000000000e+00 0.0000000000000000e+00 0.0000000000000000e+00 0.0000000000000000e+00  -5.7340832505387993e+01 -2.6521661017574888e-02 0.0000000000000000e+00 -2.6521661017574503e-02 2.7447870092040598e+03 0.0000000000000000e+00 0.0000000000000000e+00 0.0000000000000000e+00 0.0000000000000000e+00  -5.4902336715558931e+01 -3.1036277927434130e-02 0.0000000000000000e+00 -3.1036277927432972e-02 2.7365220512426408e+03 0.0000000000000000e+00 0.0000000000000000e+00 0.0000000000000000e+00 0.0000000000000000e+00  -5.2077682832951801e+01 4.1417395588736305e-02 0.0000000000000000e+00 4.1417395588737055e-02 2.7272848070760383e+03 0.0000000000000000e+00 0.0000000000000000e+00 0.0000000000000000e+00 0.0000000000000000e+00  -4.9093252455552403e+01 5.6886247222326485e-03 0.0000000000000000e+00 5.6886247222319780e-03 2.7169824814945791e+03 0.0000000000000000e+00 0.0000000000000000e+00 0.0000000000000000e+00 0.0000000000000000e+00  -4.5824897551935443e+01 4.7697397495649156e-02 0.0000000000000000e+00 4.7697397495648726e-02 2.7061710444082373e+03 0.0000000000000000e+00 0.0000000000000000e+00 0.0000000000000000e+00 0.0000000000000000e+00  -4.2030265450795071e+01 8.0369496607483645e-02 0.0000000000000000e+00 8.0369496607484436e-02 2.6947232950115590e+03 0.0000000000000000e+00 0.0000000000000000e+00 0.0000000000000000e+00 0.0000000000000000e+00  -3.8151228819206779e+01 7.5582454554799800e-03 0.0000000000000000e+00 7.5582454554808777e-03 2.6819306575761111e+03 0.0000000000000000e+00 0.0000000000000000e+00 0.0000000000000000e+00 0.0000000000000000e+00  -3.3425495003224107e+01 -1.6229063318479644e-02 0.0000000000000000e+00 -1.6229063318479849e-02 2.6693495035546789e+03 0.0000000000000000e+00 0.0000000000000000e+00 0.0000000000000000e+00 0.0000000000000000e+00  -2.8964434583679559e+01 -8.6188442813367183e-02 0.0000000000000000e+00 -8.6188442813363533e-02 2.6556821359224914e+03 0.0000000000000000e+00 0.0000000000000000e+00 0.0000000000000000e+00 0.0000000000000000e+00  -2.3711485953159443e+01 -5.4901952127936235e-02 0.0000000000000000e+00 -5.4901952127939850e-02 2.6423573541405808e+03 0.0000000000000000e+00 0.0000000000000000e+00 0.0000000000000000e+00 0.0000000000000000e+00  -1.8669055042326502e+01 -1.3861188524475784e-01 0.0000000000000000e+00 -1.3861188524475873e-01 2.6299437143227656e+03 0.0000000000000000e+00 0.0000000000000000e+00 0.0000000000000000e+00 0.0000000000000000e+00  -1.3721981760158211e+01 -4.9942236843607567e-02 0.0000000000000000e+00 -4.9942236843608025e-02 2.6176263386084061e+03 0.0000000000000000e+00 0.0000000000000000e+00 0.0000000000000000e+00 0.0000000000000000e+00  -9.2318352370944208e+00 -1.3965880711600025e-02 0.0000000000000000e+00 -1.3965880711598008e-02 2.6059195607818347e+03 0.0000000000000000e+00 0.0000000000000000e+00 0.0000000000000000e+00 0.0000000000000000e+00  -5.4164420788705065e+00 -4.6596207177919659e-02 0.0000000000000000e+00 -4.6596207177918826e-02 2.5960570244878904e+03 0.0000000000000000e+00 0.0000000000000000e+00 0.0000000000000000e+00 0.0000000000000000e+00  -2.4690779207176043e+00 2.8148463098528507e-02 0.0000000000000000e+00 2.8148463098529978e-02 2.5877815891965242e+03 0.0000000000000000e+00 0.0000000000000000e+00 0.0000000000000000e+00 0.0000000000000000e+00  -3.5252242277213147e-01 8.8883326679905769e-02 0.0000000000000000e+00 8.8883326679904159e-02 2.5821429778994334e+03 0.0000000000000000e+00 0.0000000000000000e+00 0.0000000000000000e+00 0.0000000000000000e+00  9.3378013284028768e+01 5.6264703177746931e+01 0.0000000000000000e+00 5.6264703177747052e+01 3.1091810481939729e+02 0.0000000000000000e+00 0.0000000000000000e+00 0.0000000000000000e+00 0.0000000000000000e+00  3.7605426724260333e+01 6.9040456793947584e+01 0.0000000000000000e+00 6.9040456793947740e+01 1.0709541708293546e+03 0.0000000000000000e+00 0.0000000000000000e+00 0.0000000000000000e+00 0.0000000000000000e+00  -3.1095760333396174e+00 2.9150586079795570e+01 0.0000000000000000e+00 2.9150586079795634e+01 1.5322218564411789e+03 0.0000000000000000e+00 0.0000000000000000e+00 0.0000000000000000e+00 0.0000000000000000e+00  2.1138370015117861e+01 2.8604639121804986e+01 0.0000000000000000e+00 2.8604639121805075e+01 1.8787875547174990e+03 0.0000000000000000e+00 0.0000000000000000e+00 0.0000000000000000e+00 0.0000000000000000e+00  -1.4421330538901940e+00 5.3414358249942060e+00 0.0000000000000000e+00 5.3414358249943348e+00 2.0640406612250490e+03 0.0000000000000000e+00 0.0000000000000000e+00 0.0000000000000000e+00 0.0000000000000000e+00  7.4295463549196068e+00 1.0942325127621981e+01 0.0000000000000000e+00 1.0942325127621974e+01 2.2035141258425083e+03 0.0000000000000000e+00 0.0000000000000000e+00 0.0000000000000000e+00 0.0000000000000000e+00  -5.2308694377876253e-01 9.2494251570797417e+00 0.0000000000000000e+00 9.2494251570797008e+00 2.3020425550491591e+03 0.0000000000000000e+00 0.0000000000000000e+00 0.0000000000000000e+00 0.0000000000000000e+00  -2.1765754751502467e-01 7.6697496239475598e+00 0.0000000000000000e+00 7.6697496239475278e+00 2.3560191773080192e+03 0.0000000000000000e+00 0.0000000000000000e+00 0.0000000000000000e+00 0.0000000000000000e+00  9.9879101519889357e-01 4.6297634728661938e+00 0.0000000000000000e+00 4.6297634728662027e+00 2.4151799134391017e+03 0.0000000000000000e+00 0.0000000000000000e+00 0.0000000000000000e+00 0.0000000000000000e+00  1.1645027584899468e+00 3.6386454397828696e+00 0.0000000000000000e+00 3.6386454397828607e+00 2.4486930434287997e+03 0.0000000000000000e+00 0.0000000000000000e+00 0.0000000000000000e+00 0.0000000000000000e+00  -6.6871045863244449e-01 6.2586444102002325e-01 0.0000000000000000e+00 6.2586444102002792e-01 2.4738265460216467e+03 0.0000000000000000e+00 0.0000000000000000e+00 0.0000000000000000e+00 0.0000000000000000e+00  1.2559971950979607e+00 1.2925498235373492e+00 0.0000000000000000e+00 1.2925498235373518e+00 2.4884630417366957e+03 0.0000000000000000e+00 0.0000000000000000e+00 0.0000000000000000e+00 0.0000000000000000e+00  -2.7832124537749264e-01 4.3444744616156372e-01 0.0000000000000000e+00 4.3444744616156789e-01 2.5000911088719045e+03 0.0000000000000000e+00 0.0000000000000000e+00 0.0000000000000000e+00 0.0000000000000000e+00  5.4927559478793319e+02 5.0529753730706432e+02 0.0000000000000000e+00 5.0529753730706432e+02 3.9601980992673356e+02 0.0000000000000000e+00 0.0000000000000000e+00 0.0000000000000000e+00 0.0000000000000000e+00  1.5166785844843530e+03 1.9608616539301725e+03 0.0000000000000000e+00 1.9608616539301711e+03 3.5745539315011965e+03 0.0000000000000000e+00 0.0000000000000000e+00 0.0000000000000000e+00 0.0000000000000000e+00  6.2323633288059136e+02 1.4027961230478056e+03 0.0000000000000000e+00 1.4027961230478052e+03 7.3228286810745358e+03 0.0000000000000000e+00 0.0000000000000000e+00 0.0000000000000000e+00 0.0000000000000000e+00  1.0359805544402320e+03 -9.2618581344118093e+02 0.0000000000000000e+00 -9.2618581344118081e+02 6.8686493076094284e+03 0.0000000000000000e+00 0.0000000000000000e+00 0.0000000000000000e+00 0.0000000000000000e+00  1.0239947561986278e+03 -1.9991329337203053e+03 0.0000000000000000e+00 -1.9991329337203058e+03 3.6150362735395456e+03 0.0000000000000000e+00 0.0000000000000000e+00 0.0000000000000000e+00 0.0000000000000000e+00  5.2701445526780594e+02 -5.9351287430247078e+02 0.0000000000000000e+00 -5.9351287430247112e+02 5.9040815641125369e+02 0.0000000000000000e+00 0.0000000000000000e+00 0.0000000000000000e+00 0.0000000000000000e+00  3.8945955041070110e-02 -2.0562885857983518e-01 0.0000000000000000e+00 -2.0562885857983587e-01 2.5795183696286654e+03 0.0000000000000000e+00 0.0000000000000000e+00