<?xml version="1.0"?>
<VTKFile type="UnstructuredGrid"  version="0.1"  >
<UnstructuredGrid>
<Piece  NumberOfPoints="2165" NumberOfCells="4161">
<Points>
<DataArray  type="Float64"  NumberOfComponents="3"  format="ascii">-3.598637933768527e-16 0.3500000000000001 0  0.05 0.4 0  -3.537405593811159e-16 0.45 0  0 1 0  1 1 0  0.9999999999999997 0.65 0  0.9999999999999997 0.5499999999999999 0  1 0 0  0 0 0  0.0191341716182545 0.3538060233744357 0  0.03535533905932737 0.3646446609406727 0  0.04619397662556433 0.3808658283817455 0  0.04619397662556434 0.4191341716182545 0  0.03535533905932738 0.4353553390593274 0  0.01913417161825449 0.4461939766255644 0  0 0.975 0  0 0.95 0  0 0.9249999999999999 0  0 0.8999999999999998 0  0 0.8749999999999998 0  0 0.8499999999999998 0  0 0.8249999999999997 0  0 0.7999999999999996 0  0 0.7749999999999996 0  0 0.7499999999999996 0  0 0.7249999999999996 0  0 0.6999999999999997 0  0 0.6749999999999998 0  0 0.6499999999999999 0  0 0.6249999999999999 0  0 0.6 0  0 0.575 0  0 0.5499999999999998 0  0 0.5249999999999999 0  0 0.4999999999999998 0  0 0.4749999999999999 0  0.975 1 0  0.95 1 0  0.925 1 0  0.9 1 0  0.875 1 0  0.85 1 0  0.825 1 0  0.8 1 0  0.775 1 0  0.75 1 0  0.725 1 0  0.7 1 0  0.675 1 0  0.65 1 0  0.625 1 0  0.6 1 0  0.575 1 0  0.55 1 0  0.525 1 0  0.5 1 0  0.475 1 0  0.45 1 0  0.425 1 0  0.4 1 0  0.375 1 0  0.35 1 0  0.325 1 0  0.3 1 0  0.275 1 0  0.25 1 0  0.225 1 0  0.2 1 0  0.175 1 0  0.15 1 0  0.125 1 0  0.09999999999999998 1 0  0.07499999999999996 1 0  0.05000000000000004 1 0  0.02500000000000002 1 0  1 0.675 0  1 0.7000000000000001 0  1 0.7250000000000001 0  1 0.7500000000000001 0  1 0.7750000000000001 0  1 0.8000000000000002 0  1 0.8250000000000002 0  1 0.8500000000000002 0  1 0.8750000000000003 0  1 0.9000000000000001 0  1 0.9250000000000002 0  1 0.9500000000000001 0  1 0.9750000000000001 0  0.9783058130441221 0.6450484433951209 0  0.9609084258765985 0.6311744900929367 0  0.9512536043909088 0.6111260466978157 0  0.9512536043909088 0.5888739533021843 0  0.9609084258765985 0.5688255099070633 0  0.9783058130441221 0.554951556604879 0  1 0.02500000000000002 0  1 0.05000000000000004 0  1 0.07500000000000008 0  1 0.1000000000000001 0  1 0.1250000000000001 0  1 0.1500000000000002 0  1 0.1750000000000002 0  1 0.2000000000000003 0  1 0.2250000000000003 0  1 0.2500000000000004 0  1 0.2750000000000004 0  1 0.3000000000000003 0  1 0.3250000000000002 0  1 0.3500000000000001 0  1 0.3750000000000001 0  1 0.3999999999999999 0  1 0.425 0  1 0.45 0  1 0.475 0  1 0.5000000000000001 0  1 0.5249999999999999 0  0.025 0 0  0.05 0 0  0.075 0 0  0.1 0 0  0.125 0 0  0.15 0 0  0.175 0 0  0.2 0 0  0.225 0 0  0.25 0 0  0.275 0 0  0.3 0 0  0.325 0 0  0.35 0 0  0.375 0 0  0.4 0 0  0.425 0 0  0.45 0 0  0.475 0 0  0.5 0 0  0.525 0 0  0.55 0 0  0.575 0 0  0.6 0 0  0.625 0 0  0.65 0 0  0.675 0 0  0.7 0 0  0.725 0 0  0.75 0 0  0.775 0 0  0.8 0 0  0.825 0 0  0.85 0 0  0.875 0 0  0.9 0 0  0.925 0 0  0.95 0 0  0.975 0 0  0 0.3250000000000001 0  0 0.3 0  0 0.275 0  0 0.2499999999999999 0  0 0.2249999999999999 0  0 0.1999999999999998 0  0 0.1749999999999998 0  0 0.1499999999999998 0  0 0.1249999999999998 0  0 0.09999999999999987 0  0 0.07499999999999984 0  0 0.04999999999999993 0  0 0.02500000000000002 0  0.06453325334544308 0.4134708543086404 0  0.5146839915088474 0.02134387884913819 0  0.4875871001393628 0.9784117024331356 0  0.9386300160094723 0.5701776715936071 0  0.0216506350946109 0.6124999999999999 0  0.9764205887290853 0.3596067946540696 0  0.3876261045932067 0.02156097490657183 0  0.6125 0.978349364905389 0  0.3612127461797463 0.9792371404802113 0  0.6374786650398092 0.02079982608537345 0  0.9387185538472446 0.6295115890709873 0  0.05482260092545593 0.3633687091864355 0  0.02445354803948679 0.7343198207875321 0  0.2624888813627476 0.02091671348578122 0  0.7375212991274043 0.9794996488945376 0  0.9793010831723812 0.2648509348664836 0  0.2625026480689301 0.9795699185263282 0  0.7362840788105066 0.02225211062275217 0  0.02159327910297104 0.2128861809896528 0  0.9786837570973538 0.7867241244631172 0  0.02419728000065929 0.8365600234152764 0  0.980043283615984 0.1624097203408714 0  0.1645857434226354 0.0205513501962844 0  0.8339481359352011 0.9784483546369231 0  0.1637584777222821 0.9774556328160621 0  0.8374916614314967 0.02165097219510076 0  0.02171915379676059 0.5370700005916152 0  0.9795335762511281 0.4365726939225819 0  0.02319480745007968 0.1370197632171214 0  0.9774462976085161 0.8592616917551974 0  0.9786941241076723 0.7122511101067891 0  0.9797883857882621 0.08781864217752949 0  0.01966314788989931 0.9125801876811624 0  0.02051815350151098 0.2882126194470174 0  0.09063226699593246 0.0214884092697174 0  0.9124408843562394 0.9818463395009377 0  0.03872465516591678 0.452731089005145 0  0.08969424365256845 0.978412979507602 0  0.9124999999999999 0.02165063509461096 0  0.02158104789437187 0.6619299176372371 0  0.9796602354625652 0.4859004208706154 0  0.3127517983598529 0.02417963694738812 0  0.4375629605000894 0.02158039900821679 0  0.5643674594196073 0.01968996000301126 0  0.5368361594956101 0.9790428840407062 0  0.4376176251051295 0.9783667484208922 0  0.6874072695660477 0.978435143102373 0  0.310604317388614 0.979558305560928 0  0.2125577044121564 0.02066685543111635 0  0.6875 0.0216506350946109 0  0.02224009810917643 0.08811420611559456 0  0.790876428529276 0.978633065284896 0  0.2125 0.978349364905389 0  0.9788033534786624 0.2116925349935155 0  0.9769441169344462 0.3150381335760689 0  0.9804648376981185 0.9123186437266726 0  0.7874999988222203 0.02127957051165741 0  0.02109233852270731 0.786866823287435 0  0.9483709287873718 0.5504073206521916 0  0.9259842326464427 0.5519702047534598 0  0.9163209045278007 0.5719292915927929 0  0.9035374059862284 0.5537291796040291 0  0.8938951918780048 0.5738949757882954 0  0.8807940177559743 0.5546750869516996 0  0.8712661812741653 0.5757142549099102 0  0.8580668865514332 0.5563902430113601 0  0.848508161986991 0.5779004013072002 0  0.8354274200119249 0.5591176379057713 0  0.8256349826905482 0.5800610629400762 0  0.8124123591208572 0.5604454546391737 0  0.802603410938817 0.5819653950592523 0  0.7892876429890218 0.562234610648543 0  0.7794355871850538 0.583896242519796 0  0.7661469824381839 0.5648243426306435 0  0.7562387679604726 0.5860005456930413 0  0.7429651600512166 0.5669367633461588 0  0.7330846968880171 0.5879590907760761 0  0.7198577999459205 0.5688986880627463 0  0.7297050500533544 0.5479561801187277 0  0.7066243396993471 0.5499068108517552 0  0.6968285086900206 0.5707989520567972 0  0.6836266810714333 0.5519088927359967 0  0.6738604685766018 0.5727655091567184 0  0.6607284761452521 0.5538781923028128 0  0.6697149783704412 0.5321140554135094 0  0.6473436039782401 0.5350050604671006 0  0.6378867365666199 0.5557804038095817 0  0.6246915360243652 0.5362124690568238 0  0.6151175309583405 0.5575933164645619 0  0.6019784180102355 0.5380659376543677 0  0.5924099113505394 0.5593739656462906 0  0.5794110962027638 0.541110021814312 0  0.5697985396917309 0.5614600003719357 0  0.5568468707330213 0.5433212932327446 0  0.5472634011377896 0.5635652141280936 0  0.5343236363495072 0.5451361960661517 0  0.5247877773262166 0.565493591892781 0  0.5118927934227436 0.5470665328397559 0  0.5023398230005425 0.5674381114577953 0  0.5213991904098014 0.5267047787870831 0  0.4990390504096661 0.528649139287786 0  0.6328887517229864 0.5131744321062524 0  0.5085133205790763 0.5083322037773296 0  0.4861972978925295 0.5102540920324363 0  0.4956914791804768 0.4899605513008993 0  0.4734139980312694 0.4918582759645476 0  0.4826986629698439 0.4717164019717278 0  0.460570567761715 0.473509155475794 0  0.4699344541058981 0.4533140529328089 0  0.4477087341565655 0.4550973130597117 0  0.4381733274019614 0.4752901381741884 0  0.4570222843287571 0.4349938694701042 0  0.4348599018247688 0.436728068420533 0  0.5604623134382263 0.581815997002507 0  0.4443612964408632 0.416499823314016 0  0.422056299386984 0.4183730429856528 0  0.4688721528228815 0.4135009841763965 0  0.4315584877924544 0.398120546824229 0  0.4092288692044618 0.3999974286008185 0  0.7463210599443056 0.6070829843371945 0  0.4187270626688335 0.3797365044773463 0  0.3964262302393312 0.3817184136470017 0  0.3869780036193907 0.4018498778543814 0  0.3742423843122406 0.3837055716372927 0  0.3648701490102072 0.4037049758807119 0  0.3518115403926748 0.3858985036587403 0  0.3426146276710081 0.4056777495658291 0  0.3614541441355358 0.3656396497906528 0  0.339026673715919 0.3678724679736439 0  0.3485566370135618 0.3476560889674916 0  0.3264681821394378 0.3496422822523857 0  0.8219942777991693 0.5379143061758643 0  0.3358297439968608 0.3295117748868035 0  0.3137050884585635 0.3314921667582986 0  0.3229980644152205 0.3113561769498422 0  0.3007986024336577 0.3133063832007756 0  0.3441851868720173 0.3085211458266175 0  0.3101966551534752 0.2930273704914169 0  0.287793053707373 0.2950088132226583 0  0.2914417217227097 0.3337427541189321 0  0.2975120686695638 0.2743682539701985 0  0.274864585256681 0.2764253296978281 0  0.816026571618698 0.6006851919544112 0  0.2844672854128698 0.2557011565880619 0  0.2617267434509338 0.2577713002235077 0  0.3072711221189672 0.2536790056475094 0  0.2521588568690318 0.2785072139143895 0  0.2389277409161178 0.2598761196336353 0  0.248448076747058 0.2389478879785275 0  0.5053822153261678 0.4716915524631118 0  0.229548765875869 0.2806542761043101 0  0.2254561407802683 0.2411354049374563 0  0.2350621310805047 0.2199181955146378 0  0.2117782450160163 0.222165061041625 0  0.2214249125635323 0.2008136877065064 0  0.2448758256083499 0.1985732693215908 0  0.197966291680556 0.2031211006951591 0  0.1883147493074436 0.2245564097761413 0  0.8910637266939049 0.5322898364209732 0  0.1748136087708587 0.2051141748992724 0  0.1842088801696792 0.1837087814679069 0  0.1656574100807746 0.2269812054689968 0  0.3554582346764377 0.4236292557112198 0  0.3328979939923831 0.425459320867588 0  0.3460368767112177 0.4435398346083328 0  0.3238464003
[...]
<PointData  Tensors="$\sigma$"> 
<DataArray  type="Float64"  Name="$\sigma$"  NumberOfComponents="9" format="ascii">-3.8426174398697174e+02 -5.1006443627856856e+02 0.0000000000000000e+00 -5.1006443627856959e+02 -1.1660675698389191e+03 0.0000000000000000e+00 0.0000000000000000e+00 0.0000000000000000e+00 0.0000000000000000e+00  2.7252969351002257e+03 4.6002101791834855e+00 0.0000000000000000e+00 4.6002101791815928e+00 1.4536790964089714e+04 0.0000000000000000e+00 0.0000000000000000e+00 0.0000000000000000e+00 0.0000000000000000e+00  -2.8823180957891685e+02 6.3162062102070331e+02 0.0000000000000000e+00 6.3162062102070308e+02 -1.2261442629453672e+03 0.0000000000000000e+00 0.0000000000000000e+00 0.0000000000000000e+00 0.0000000000000000e+00  8.8784010909345734e-02 1.2651219296311140e+00 0.0000000000000000e+00 1.2651219296311145e+00 7.6553742969809464e+03 0.0000000000000000e+00 0.0000000000000000e+00 0.0000000000000000e+00 0.0000000000000000e+00  2.4602866838401880e+00 5.5493753999300836e-02 0.0000000000000000e+00 5.5493753999305090e-02 7.3963251649515578e+03 0.0000000000000000e+00 0.0000000000000000e+00 0.0000000000000000e+00 0.0000000000000000e+00  -4.3787770198620319e+02 -5.2246811109311909e+02 0.0000000000000000e+00 -5.2246811109311750e+02 -1.1734463716301046e+02 0.0000000000000000e+00 0.0000000000000000e+00 0.0000000000000000e+00 0.0000000000000000e+00  2.4316069588875808e+02 -1.9073655983786327e+02 0.0000000000000000e+00 -1.9073655983786259e+02 2.5557996620911692e+02 0.0000000000000000e+00 0.0000000000000000e+00 0.0000000000000000e+00 0.0000000000000000e+00  2.0803615911527745e-01 1.6423466175068696e-01 0.0000000000000000e+00 1.6423466175069085e-01 7.6655739721043365e+03 0.0000000000000000e+00 0.0000000000000000e+00 0.0000000000000000e+00 0.0000000000000000e+00  2.2695328711997286e+03 9.1308397421421068e+02 0.0000000000000000e+00 9.1308397421421159e+02 8.0150850106335456e+03 0.0000000000000000e+00 0.0000000000000000e+00 0.0000000000000000e+00 0.0000000000000000e+00  9.8586709114901203e+02 8.7494771953956501e+02 0.0000000000000000e+00 8.7494771953956740e+02 7.6353448852592646e+02 0.0000000000000000e+00 0.0000000000000000e+00 0.0000000000000000e+00 0.0000000000000000e+00  3.9713827268233817e+03 4.7640939402891972e+03 0.0000000000000000e+00 4.7640939402891991e+03 5.3746131354089930e+03 0.0000000000000000e+00 0.0000000000000000e+00 0.0000000000000000e+00 0.0000000000000000e+00  4.1487936272442203e+03 4.6882956498615276e+03 0.0000000000000000e+00 4.6882956498615258e+03 1.2666143680015648e+04 0.0000000000000000e+00 0.0000000000000000e+00 0.0000000000000000e+00 0.0000000000000000e+00  4.2013580116579978e+03 -4.6416816337582359e+03 0.0000000000000000e+00 -4.6416816337582313e+03 1.2747908076348136e+04 0.0000000000000000e+00 0.0000000000000000e+00 0.0000000000000000e+00 0.0000000000000000e+00  4.0231044920740483e+03 -4.7048488487838204e+03 0.0000000000000000e+00 -4.7048488487838258e+03 5.6561387857895334e+03 0.0000000000000000e+00 0.0000000000000000e+00 0.0000000000000000e+00 0.0000000000000000e+00  9.3801355763321908e+02 -9.9117876863498464e+02 0.0000000000000000e+00 -9.9117876863498714e+02 6.6118482433744703e+02 0.0000000000000000e+00 0.0000000000000000e+00 0.0000000000000000e+00 0.0000000000000000e+00  1.9524180538621994e-01 -3.3299426232311036e-01 0.0000000000000000e+00 -3.3299426232310936e-01 7.6517791609585702e+03 0.0000000000000000e+00 0.0000000000000000e+00 0.0000000000000000e+00 0.0000000000000000e+00  -9.8648268984167287e-02 -1.0834173758560377e+00 0.0000000000000000e+00 -1.0834173758560295e+00 7.6447570553964397e+03 0.0000000000000000e+00 0.0000000000000000e+00 0.0000000000000000e+00 0.0000000000000000e+00  8.1048954925729688e-01 -1.2784594603454376e+00 0.0000000000000000e+00 -1.2784594603454456e+00 7.6338093521618903e+03 0.0000000000000000e+00 0.0000000000000000e+00 0.0000000000000000e+00 0.0000000000000000e+00  -5.6866654239047676e-01 -9.0994672037275459e-01 0.0000000000000000e+00 -9.0994672037275437e-01 7.6166432184046444e+03 0.0000000000000000e+00 0.0000000000000000e+00 0.0000000000000000e+00 0.0000000000000000e+00  6.1192283644701828e-01 -1.5579470749942026e+00 0.0000000000000000e+00 -1.5579470749942210e+00 7.5930666043251895e+03 0.0000000000000000e+00 0.0000000000000000e+00 0.0000000000000000e+00 0.0000000000000000e+00  1.3723947661064275e+00 -3.5787188809826560e+00 0.0000000000000000e+00 -3.5787188809826787e+00 7.5683009189430913e+03 0.0000000000000000e+00 0.0000000000000000e+00 0.0000000000000000e+00 0.0000000000000000e+00  7.8959143355683159e-02 -2.7714429406058776e+00 0.0000000000000000e+00 -2.7714429406058825e+00 7.5252722412854464e+03 0.0000000000000000e+00 0.0000000000000000e+00 0.0000000000000000e+00 0.0000000000000000e+00  -5.4790418624822479e-01 -3.4598605515394909e+00 0.0000000000000000e+00 -3.4598605515394842e+00 7.4833530865047187e+03 0.0000000000000000e+00 0.0000000000000000e+00 0.0000000000000000e+00 0.0000000000000000e+00  2.4406131560468984e+00 -5.4444331279112514e+00 0.0000000000000000e+00 -5.4444331279112479e+00 7.4313985277898419e+03 0.0000000000000000e+00 0.0000000000000000e+00 0.0000000000000000e+00 0.0000000000000000e+00  1.5383345276945193e+00 -7.6699048456102918e+00 0.0000000000000000e+00 -7.6699048456103096e+00 7.3679022327194953e+03 0.0000000000000000e+00 0.0000000000000000e+00 0.0000000000000000e+00 0.0000000000000000e+00  2.7637109186433939e+00 -9.5863731265418135e+00 0.0000000000000000e+00 -9.5863731265418437e+00 7.2599631210054304e+03 0.0000000000000000e+00 0.0000000000000000e+00 0.0000000000000000e+00 0.0000000000000000e+00  1.3694364419179719e+00 -1.5465264015871576e+01 0.0000000000000000e+00 -1.5465264015871526e+01 7.1864985340946487e+03 0.0000000000000000e+00 0.0000000000000000e+00 0.0000000000000000e+00 0.0000000000000000e+00  1.7664841133543934e+00 -1.1441894126013297e+01 0.0000000000000000e+00 -1.1441894126013425e+01 7.0255808005355948e+03 0.0000000000000000e+00 0.0000000000000000e+00 0.0000000000000000e+00 0.0000000000000000e+00  -6.9285672974316503e-01 -1.3228102037516969e+01 0.0000000000000000e+00 -1.3228102037517029e+01 6.8675427826788682e+03 0.0000000000000000e+00 0.0000000000000000e+00 0.0000000000000000e+00 0.0000000000000000e+00  1.6975897927860601e+01 -1.1340999976385385e+01 0.0000000000000000e+00 -1.1340999976385351e+01 6.6356148250765300e+03 0.0000000000000000e+00 0.0000000000000000e+00 0.0000000000000000e+00 0.0000000000000000e+00  -1.7453727420629669e+01 -1.4047959012971868e+01 0.0000000000000000e+00 -1.4047959012971653e+01 6.3262797431638301e+03 0.0000000000000000e+00 0.0000000000000000e+00 0.0000000000000000e+00 0.0000000000000000e+00  4.8634798062114648e+01 -6.4338370132941279e+01 0.0000000000000000e+00 -6.4338370132940696e+01 5.8658349292651537e+03 0.0000000000000000e+00 0.0000000000000000e+00 0.0000000000000000e+00 0.0000000000000000e+00  -2.1275183410910895e+01 -2.8536870700454109e+01 0.0000000000000000e+00 -2.8536870700454966e+01 5.2587775376201544e+03 0.0000000000000000e+00 0.0000000000000000e+00 0.0000000000000000e+00 0.0000000000000000e+00  1.4829536595250303e+01 -1.6524784592503622e+02 0.0000000000000000e+00 -1.6524784592503676e+02 4.2254228147375161e+03 0.0000000000000000e+00 0.0000000000000000e+00 0.0000000000000000e+00 0.0000000000000000e+00  -6.1206980902657804e-01 -2.1711068847698616e+02 0.0000000000000000e+00 -2.1711068847698414e+02 2.8710813851523822e+03 0.0000000000000000e+00 0.0000000000000000e+00 0.0000000000000000e+00 0.0000000000000000e+00  1.8592387837945878e+02 -1.5875370488890337e+02 0.0000000000000000e+00 -1.5875370488890343e+02 9.5308659457285410e+02 0.0000000000000000e+00 0.0000000000000000e+00 0.0000000000000000e+00 0.0000000000000000e+00  -7.1449209242320517e+00 3.6599900699157317e-01 0.0000000000000000e+00 3.6599900699156290e-01 7.4178146356799380e+03 0.0000000000000000e+00 0.0000000000000000e+00 0.0000000000000000e+00 0.0000000000000000e+00  -3.5561545399501959e+01 -1.7669234354532382e-01 0.0000000000000000e+00 -1.7669234354526511e-01 7.4742764945548552e+03 0.0000000000000000e+00 0.0000000000000000e+00 0.0000000000000000e+00 0.0000000000000000e+00  -7.8961172726623843e+01 2.1525451276001037e+00 0.0000000000000000e+00 2.1525451276000944e+00 7.5602375337862513e+03 0.0000000000000000e+00 0.0000000000000000e+00 0.0000000000000000e+00 0.0000000000000000e+00  -1.2931932435726523e+02 1.1993307459507284e-01 0.0000000000000000e+00 1.1993307459506905e-01 7.6570362257992174e+03 0.0000000000000000e+00 0.0000000000000000e+00 0.0000000000000000e+00 0.0000000000000000e+00  -1.7400843138480676e+02 2.7965492068132858e+00 0.0000000000000000e+00 2.7965492068132858e+00 7.7741160137434645e+03 0.0000000000000000e+00 0.0000000000000000e+00 0.0000000000000000e+00 0.0000000000000000e+00  -2.2016931735933449e+02 -1.6298581428912023e-01 0.0000000000000000e+00 -1.6298581428912023e-01 7.8888573008002722e+03 0.0000000000000000e+00 0.0000000000000000e+00 0.0000000000000000e+00 0.0000000000000000e+00  -2.6408652715315492e+02 1.2027060688568403e-01 0.0000000000000000e+00 1.2027060688569435e-01 7.9882400215719172e+03 0.0000000000000000e+00 0.0000000000000000e+00 0.0000000000000000e+00 0.0000000000000000e+00  -2.8704618291975453e+02 -6.7182728326720409e-01 0.0000000000000000e+00 -6.7182728326720309e-01 8.0945649319913555e+03 0.0000000000000000e+00 0.0000000000000000e+00 0.0000000000000000e+00 0.0000000000000000e+00  -3.0873787918974710e+02 2.8997423825540170e-01 0.0000000000000000e+00 2.8997423825540886e-01 8.1630192152851796e+03 0.0000000000000000e+00 0.0000000000000000e+00 0.0000000000000000e+00 0.0000000000000000e+00  -3.2195445169523208e+02 -9.2439416672151486e-01 0.0000000000000000e+00 -9.2439416672151453e-01 8.2301960582042266e+03 0.0000000000000000e+00 0.0000000000000000e+00 0.0000000000000000e+00 0.0000000000000000e+00  -3.2452369027900471e+02 -6.2219080157312145e-01 0.0000000000000000e+00 -6.2219080157312068e-01 8.2805079468416079e+03 0.0000000000000000e+00 0.0000000000000000e+00 0.0000000000000000e+00 0.0000000000000000e+00  -3.2148720396893276e+02 -1.4479403000619344e+00 0.0000000000000000e+00 -1.4479403000619384e+00 8.3154312688466362e+03 0.0000000000000000e+00 0.0000000000000000e+00 0.0000000000000000e+00 0.0000000000000000e+00  -3.1396277775038487e+02 -8.6561327643683550e-01 0.0000000000000000e+00 -8.6561327643684072e-01 8.3401035208865960e+03 0.0000000000000000e+00 0.0000000000000000e+00 0.0000000000000000e+00 0.0000000000000000e+00  -3.0417246896237498e+02 -4.7182298701111208e-01 0.0000000000000000e+00 -4.7182298701111969e-01 8.3556113599767086e+03 0.0000000000000000e+00 0.0000000000000000e+00 0.0000000000000000e+00 0.0000000000000000e+00  -2.9155356225340495e+02 -7.1929850649190774e-01 0.0000000000000000e+00 -7.1929850649189919e-01 8.3621504577816213e+03 0.0000000000000000e+00 0.0000000000000000e+00 0.0000000000000000e+00 0.0000000000000000e+00  -2.7845880650535355e+02 -9.1000249936023547e-01 0.0000000000000000e+00 -9.1000249936023947e-01 8.3626833070760222e+03 0.0000000000000000e+00 0.0000000000000000e+00 0.0000000000000000e+00 0.0000000000000000e+00  -2.6596184173624630e+02 -4.3454931519525597e-01 0.0000000000000000e+00 -4.3454931519524576e-01 8.3571728119670515e+03 0.0000000000000000e+00 0.0000000000000000e+00 0.0000000000000000e+00 0.0000000000000000e+00  -2.5353253542763071e+02 -5.9356829543967005e-01 0.0000000000000000e+00 -5.9356829543966139e-01 8.3482483053497781e+03 0.0000000000000000e+00 0.0000000000000000e+00 0.0000000000000000e+00 0.0000000000000000e+00  -2.4224852196097956e+02 -2.7787847254732645e-01 0.0000000000000000e+00 -2.7787847254733961e-01 8.3356019455567057e+03 0.0000000000000000e+00 0.0000000000000000e+00 0.0000000000000000e+00 0.0000000000000000e+00  -2.3155823510806152e+02 -2.6008518850435691e-01 0.0000000000000000e+00 -2.6008518850436546e-01 8.3194532554788875e+03 0.0000000000000000e+00 0.0000000000000000e+00 0.0000000000000000e+00 0.0000000000000000e+00  -2.2208121470487126e+02 -1.2678588473178554e-01 0.0000000000000000e+00 -1.2678588473178906e-01 8.3009276960533880e+03 0.0000000000000000e+00 0.0000000000000000e+00 0.0000000000000000e+00 0.0000000000000000e+00  -2.1275509165156959e+02 -6.0897561582711521e-02 0.0000000000000000e+00 -6.0897561582701022e-02 8.2801603532149347e+03 0.0000000000000000e+00 0.0000000000000000e+00 0.0000000000000000e+00 0.0000000000000000e+00  -2.0457120146497002e+02 -4.4874887554115089e-02 0.0000000000000000e+00 -4.4874887554104674e-02 8.2561995383328795e+03 0.0000000000000000e+00 0.0000000000000000e+00 0.0000000000000000e+00 0.0000000000000000e+00  -1.9558325757720354e+02 -2.9495935702244628e-02 0.0000000000000000e+00 -2.9495935702252396e-02 8.2298749837297401e+03 0.0000000000000000e+00 0.0000000000000000e+00 0.0000000000000000e+00 0.0000000000000000e+00  -1.8734214203623529e+02 -1.0835382947821220e-01 0.0000000000000000e+00 -1.0835382947822077e-01 8.2010467962432467e+03 0.0000000000000000e+00 0.0000000000000000e+00 0.0000000000000000e+00 0.0000000000000000e+00  -1.7774037292730659e+02 1.6767080252630584e-01 0.0000000000000000e+00 1.6767080252631686e-01 8.1694207437176410e+03 0.0000000000000000e+00 0.0000000000000000e+00 0.0000000000000000e+00 0.0000000000000000e+00  -1.6750907685000726e+02 -9.6114463179770140e-02 0.0000000000000000e+00 -9.6114463179767670e-02 8.1339247566966715e+03 0.0000000000000000e+00 0.0000000000000000e+00 0.0000000000000000e+00 0.0000000000000000e+00  -1.5637973824539199e+02 2.2030962429093540e-01 0.0000000000000000e+00 2.2030962429093498e-01 8.0964487531549976e+03 0.0000000000000000e+00 0.0000000000000000e+00 0.0000000000000000e+00 0.0000000000000000e+00  -1.4352326807785934e+02 2.2236621816670266e-01 0.0000000000000000e+00 2.2236621816669258e-01 8.0569894934451604e+03 0.0000000000000000e+00 0.0000000000000000e+00 0.0000000000000000e+00 0.0000000000000000e+00  -1.3001557866046790e+02 7.1540520555140541e-02 0.0000000000000000e+00 7.1540520555139930e-02 8.0128911828556220e+03 0.0000000000000000e+00 0.0000000000000000e+00 0.0000000000000000e+00 0.0000000000000000e+00  -1.1418258538267075e+02 -1.9356209138242331e-01 0.0000000000000000e+00 -1.9356209138242658e-01 7.9694429973811630e+03 0.0000000000000000e+00 0.0000000000000000e+00 0.0000000000000000e+00 0.0000000000000000e+00  -9.8787417747003204e+01 -2.0691105122196884e-01 0.0000000000000000e+00 -2.0691105122197140e-01 7.9221607609848288e+03 0.0000000000000000e+00 0.0000000000000000e+00 0.0000000000000000e+00 0.0000000000000000e+00  -8.0861056387458859e+01 -2.6293465018984753e-02 0.0000000000000000e+00 -2.6293465019022685e-02 7.8763786122590800e+03 0.0000000000000000e+00 0.0000000000000000e+00 0.0000000000000000e+00 0.0000000000000000e+00  -6.3837596829907163e+01 -3.3046951597721175e-01 0.0000000000000000e+00 -3.3046951597722191e-01 7.8330254253873354e+03 0.0000000000000000e+00 0.0000000000000000e+00 0.0000000000000000e+00 0.0000000000000000e+00  -4.6812057108657044e+01 -6.8757681558038020e-02 0.0000000000000000e+00 -6.8757681558041489e-02 7.7904028750389753e+03 0.0000000000000000e+00 0.0000000000000000e+00 0.0000000000000000e+00 0.0000000000000000e+00  -3.1620849341582399e+01 -6.2529344582142155e-02 0.0000000000000000e+00 -6.2529344582147803e-02 7.7496955641086997e+03 0.0000000000000000e+00 0.0000000000000000e+00 0.0000000000000000e+00 0.0000000000000000e+00  -1.8498252505814840e+01 -1.1572278771010015e-01 0.0000000000000000e+00 -1.1572278771010283e-01 7.7154807547991932e+03 0.0000000000000000e+00 0.0000000000000000e+00 0.0000000000000000e+00 0.0000000000000000e+00  -8.3855185893923228e+00 1.4251126381607704e-01 0.0000000000000000e+00 1.4251126381608167e-01 7.6870191506213796e+03 0.0000000000000000e+00 0.0000000000000000e+00 0.0000000000000000e+00 0.0000000000000000e+00  -1.1576633868533717e+00 2.6264583401995212e-01 0.0000000000000000e+00 2.6264583401995117e-01 7.6667259978743496e+03 0.0000000000000000e+00 0.0000000000000000e+00 0.0000000000000000e+00 0.0000000000000000e+00  2.4244469423971973e+00 -1.2793102714071289e+02 0.0000000000000000e+00 -1.2793102714071215e+02 5.4378120605861284e+02 0.0000000000000000e+00 0.0000000000000000e+00 0.0000000000000000e+00 0.0000000000000000e+00  2.5593010251740048e+02 2.3540299784907455e+02 0.0000000000000000e+00 2.3540299784907387e+02 3.1340017099846850e+03 0.0000000000000000e+00 0.0000000000000000e+00 0.0000000000000000e+00 0.0000000000000000e+00  -1.7169956212012858e+02 -4.1398345321588096e+01 0.0000000000000000e+00 -4.1398345321587939e+01 4.1571458822736340e+03 0.0000000000000000e+00 0.0000000000000000e+00 0.0000000000000000e+00 0.0000000000000000e+00  1.6043455940235120e+02 1.2717106802138079e+02 0.0000000000000000e+00 1.2717106802138164e+02 5.4637203937726517e+03 0.0000000000000000e+00 0.0000000000000000e+00 0.0000000000000000e+00 0.0000000000000000e+00  -6.4776950557599051e+01 -4.3028866075183942e+01 0.0000000000000000e+00 -4.3028866075183778e+01 5.8965103483889443e+03 0.0000000000000000e+00 0.0000000000000000e+00 0.0000000000000000e+00 0.0000000000000000e+00  6.0965131875679333e+01 5.6188688786892911e+01 0.0000000000000000e+00 5.6188688786892790e+01 6.4422999949077257e+03 0.0000000000000000e+00 0.0000000000000000e+00 0.0000000000000000e+00 0.0000000000000000e+00  -1.8219364105006520e+01 9.6285452399681120e+00 0.0000000000000000e+00 9.6285452399682079e+00 6.7142868004265019e+03 0.0000000000000000e+00 0.0000000000000000e+00 0.0000000000000000e+00 0.0000000000000000e+00  1.2214926543211687e+01 2.3196005066624277e+01 0.0000000000000000e+00 2.3196005066624494e+01 6.9125527741359037e+03 0.0000000000000000e+00 0.0000000000000000e+00 0.0000000000000000e+00 0.0000000000000000e+00  3.2280953994202215e+00 1.2127225518644439e+01 0.0000000000000000e+00 1.2127225518644499e+01 7.1090945318341574e+03 0.0000000000000000e+00 0.0000000000000000e+00 0.0000000000000000e+00 0.0000000000000000e+00  5.1003544133197858e+00 7.7374819118988105e+00 0.0000000000000000e+00 7.7374819118987972e+00 7.2137512516391234e+03 0.0000000000000000e+00 0.0000000000000000e+00 0.0000000000000000e+00 0.0000000000000000e+00  -2.8317985774814156e+00 1.2556484582659764e+00 0.0000000000000000e+00 1.2556484582659539e+00 7.3077272795995896e+03 0.0000000000000000e+00 0.0000000000000000e+00 0.0000000000000000e+00 0.0000000000000000e+00  5.0363810192346428e+00 4.1822267980682284e+00 0.0000000000000000e+00 4.1822267980682426e+00 7.3498404616433454e+03 0.0000000000000000e+00 0.0000000000000000e+00 0.0000000000000000e+00 0.0000000000000000e+00  -1.5675109102654181e+00 8.1515631926564025e-01 0.0000000000000000e+00 8.1515631926563470e-01 7.3928589313194370e+03 0.0000000000000000e+00 0.0000000000000000e+00 0.0000000000000000e+00 0.0000000000000000e+00  1.2562172845986806e+03 1.1404657929522905e+03 0.0000000000000000e+00 1.1404657929522923e+03 5.8046578825441884e+02 0.0000000000000000e+00 0.0000000000000000e+00 0.0000000000000000e+00 0.0000000000000000e+00  4.8475853477302499e+03 5.9551289043154620e+03 0.0000000000000000e+00 5.9551289043154575e+03 9.2887746572582091e+03 0.0000000000000000e+00 0.0000000000000000e+00 0.0000000000000000e+00 0.0000000000000000e+00  3.1750823717089847e+03 2.8360659649445279e+03 0.0000000000000000e+00 2.8360659649445270e+03 1.3966960046392327e+04 0.0000000000000000e+00 0.0000000000000000e+00 0.0000000000000000e+00 0.0000000000000000e+00  4.0178962183314056e+03 -2.7044265702495431e+03 0.0000000000000000e+00 -2.7044265702495445e+03 1.4900605138637615e+04 0.0000000000000000e+00 0.0000000000000000e+00 0.0000000000000000e+00 0.0000000000000000e+00  2.8270557319815944e+03 -5.5522072734825315e+03 0.0000000000000000e+00 -5.5522072734825297e+03 8.4093681653149779e+03 0.0000000000000000e+00 0.0000000000000000e+00 0.0000000000000000e+00 0.0000000000000000e+00  1.8800539714815584e+03 -1.5712875431037910e+03 0.0000000000000000e+00 -1.5712875431037899e+03 1.0612163213265369e+03 0.0000000000000000e+00 0.0000000000000000e+00 0.0000000000000000e+00 0.0000000000000000e+00  7.4446663975743191e-02 -4.3988866226365436e-01 0.0000000000000000e+00 -4.3988866226365531e-01 7.6640288811691771e+03 0.0000000000000000e+00 0.0000000000000