<?xml version="1.0"?>
<VTKFile type="UnstructuredGrid"  version="0.1"  >
<UnstructuredGrid>
<Piece  NumberOfPoints="2165" NumberOfCells="4161">
<Points>
<DataArray  type="Float64"  NumberOfComponents="3"  format="ascii">-3.598637933768527e-16 0.3500000000000001 0  0.05 0.4 0  -3.537405593811159e-16 0.45 0  0 1 0  1 1 0  0.9999999999999997 0.65 0  0.9999999999999997 0.5499999999999999 0  1 0 0  0 0 0  0.0191341716182545 0.3538060233744357 0  0.03535533905932737 0.3646446609406727 0  0.04619397662556433 0.3808658283817455 0  0.04619397662556434 0.4191341716182545 0  0.03535533905932738 0.4353553390593274 0  0.01913417161825449 0.4461939766255644 0  0 0.975 0  0 0.95 0  0 0.9249999999999999 0  0 0.8999999999999998 0  0 0.8749999999999998 0  0 0.8499999999999998 0  0 0.8249999999999997 0  0 0.7999999999999996 0  0 0.7749999999999996 0  0 0.7499999999999996 0  0 0.7249999999999996 0  0 0.6999999999999997 0  0 0.6749999999999998 0  0 0.6499999999999999 0  0 0.6249999999999999 0  0 0.6 0  0 0.575 0  0 0.5499999999999998 0  0 0.5249999999999999 0  0 0.4999999999999998 0  0 0.4749999999999999 0  0.975 1 0  0.95 1 0  0.925 1 0  0.9 1 0  0.875 1 0  0.85 1 0  0.825 1 0  0.8 1 0  0.775 1 0  0.75 1 0  0.725 1 0  0.7 1 0  0.675 1 0  0.65 1 0  0.625 1 0  0.6 1 0  0.575 1 0  0.55 1 0  0.525 1 0  0.5 1 0  0.475 1 0  0.45 1 0  0.425 1 0  0.4 1 0  0.375 1 0  0.35 1 0  0.325 1 0  0.3 1 0  0.275 1 0  0.25 1 0  0.225 1 0  0.2 1 0  0.175 1 0  0.15 1 0  0.125 1 0  0.09999999999999998 1 0  0.07499999999999996 1 0  0.05000000000000004 1 0  0.02500000000000002 1 0  1 0.675 0  1 0.7000000000000001 0  1 0.7250000000000001 0  1 0.7500000000000001 0  1 0.7750000000000001 0  1 0.8000000000000002 0  1 0.8250000000000002 0  1 0.8500000000000002 0  1 0.8750000000000003 0  1 0.9000000000000001 0  1 0.9250000000000002 0  1 0.9500000000000001 0  1 0.9750000000000001 0  0.9783058130441221 0.6450484433951209 0  0.9609084258765985 0.6311744900929367 0  0.9512536043909088 0.6111260466978157 0  0.9512536043909088 0.5888739533021843 0  0.9609084258765985 0.5688255099070633 0  0.9783058130441221 0.554951556604879 0  1 0.02500000000000002 0  1 0.05000000000000004 0  1 0.07500000000000008 0  1 0.1000000000000001 0  1 0.1250000000000001 0  1 0.1500000000000002 0  1 0.1750000000000002 0  1 0.2000000000000003 0  1 0.2250000000000003 0  1 0.2500000000000004 0  1 0.2750000000000004 0  1 0.3000000000000003 0  1 0.3250000000000002 0  1 0.3500000000000001 0  1 0.3750000000000001 0  1 0.3999999999999999 0  1 0.425 0  1 0.45 0  1 0.475 0  1 0.5000000000000001 0  1 0.5249999999999999 0  0.025 0 0  0.05 0 0  0.075 0 0  0.1 0 0  0.125 0 0  0.15 0 0  0.175 0 0  0.2 0 0  0.225 0 0  0.25 0 0  0.275 0 0  0.3 0 0  0.325 0 0  0.35 0 0  0.375 0 0  0.4 0 0  0.425 0 0  0.45 0 0  0.475 0 0  0.5 0 0  0.525 0 0  0.55 0 0  0.575 0 0  0.6 0 0  0.625 0 0  0.65 0 0  0.675 0 0  0.7 0 0  0.725 0 0  0.75 0 0  0.775 0 0  0.8 0 0  0.825 0 0  0.85 0 0  0.875 0 0  0.9 0 0  0.925 0 0  0.95 0 0  0.975 0 0  0 0.3250000000000001 0  0 0.3 0  0 0.275 0  0 0.2499999999999999 0  0 0.2249999999999999 0  0 0.1999999999999998 0  0 0.1749999999999998 0  0 0.1499999999999998 0  0 0.1249999999999998 0  0 0.09999999999999987 0  0 0.07499999999999984 0  0 0.04999999999999993 0  0 0.02500000000000002 0  0.06453325334544308 0.4134708543086404 0  0.5146839915088474 0.02134387884913819 0  0.4875871001393628 0.9784117024331356 0  0.9386300160094723 0.5701776715936071 0  0.0216506350946109 0.6124999999999999 0  0.9764205887290853 0.3596067946540696 0  0.3876261045932067 0.02156097490657183 0  0.6125 0.978349364905389 0  0.3612127461797463 0.9792371404802113 0  0.6374786650398092 0.02079982608537345 0  0.9387185538472446 0.6295115890709873 0  0.05482260092545593 0.3633687091864355 0  0.02445354803948679 0.7343198207875321 0  0.2624888813627476 0.02091671348578122 0  0.7375212991274043 0.9794996488945376 0  0.9793010831723812 0.2648509348664836 0  0.2625026480689301 0.9795699185263282 0  0.7362840788105066 0.02225211062275217 0  0.02159327910297104 0.2128861809896528 0  0.9786837570973538 0.7867241244631172 0  0.02419728000065929 0.8365600234152764 0  0.980043283615984 0.1624097203408714 0  0.1645857434226354 0.0205513501962844 0  0.8339481359352011 0.9784483546369231 0  0.1637584777222821 0.9774556328160621 0  0.8374916614314967 0.02165097219510076 0  0.02171915379676059 0.5370700005916152 0  0.9795335762511281 0.4365726939225819 0  0.02319480745007968 0.1370197632171214 0  0.9774462976085161 0.8592616917551974 0  0.9786941241076723 0.7122511101067891 0  0.9797883857882621 0.08781864217752949 0  0.01966314788989931 0.9125801876811624 0  0.02051815350151098 0.2882126194470174 0  0.09063226699593246 0.0214884092697174 0  0.9124408843562394 0.9818463395009377 0  0.03872465516591678 0.452731089005145 0  0.08969424365256845 0.978412979507602 0  0.9124999999999999 0.02165063509461096 0  0.02158104789437187 0.6619299176372371 0  0.9796602354625652 0.4859004208706154 0  0.3127517983598529 0.02417963694738812 0  0.4375629605000894 0.02158039900821679 0  0.5643674594196073 0.01968996000301126 0  0.5368361594956101 0.9790428840407062 0  0.4376176251051295 0.9783667484208922 0  0.6874072695660477 0.978435143102373 0  0.310604317388614 0.979558305560928 0  0.2125577044121564 0.02066685543111635 0  0.6875 0.0216506350946109 0  0.02224009810917643 0.08811420611559456 0  0.790876428529276 0.978633065284896 0  0.2125 0.978349364905389 0  0.9788033534786624 0.2116925349935155 0  0.9769441169344462 0.3150381335760689 0  0.9804648376981185 0.9123186437266726 0  0.7874999988222203 0.02127957051165741 0  0.02109233852270731 0.786866823287435 0  0.9483709287873718 0.5504073206521916 0  0.9259842326464427 0.5519702047534598 0  0.9163209045278007 0.5719292915927929 0  0.9035374059862284 0.5537291796040291 0  0.8938951918780048 0.5738949757882954 0  0.8807940177559743 0.5546750869516996 0  0.8712661812741653 0.5757142549099102 0  0.8580668865514332 0.5563902430113601 0  0.848508161986991 0.5779004013072002 0  0.8354274200119249 0.5591176379057713 0  0.8256349826905482 0.5800610629400762 0  0.8124123591208572 0.5604454546391737 0  0.802603410938817 0.5819653950592523 0  0.7892876429890218 0.562234610648543 0  0.7794355871850538 0.583896242519796 0  0.7661469824381839 0.5648243426306435 0  0.7562387679604726 0.5860005456930413 0  0.7429651600512166 0.5669367633461588 0  0.7330846968880171 0.5879590907760761 0  0.7198577999459205 0.5688986880627463 0  0.7297050500533544 0.5479561801187277 0  0.7066243396993471 0.5499068108517552 0  0.6968285086900206 0.5707989520567972 0  0.6836266810714333 0.5519088927359967 0  0.6738604685766018 0.5727655091567184 0  0.6607284761452521 0.5538781923028128 0  0.6697149783704412 0.5321140554135094 0  0.6473436039782401 0.5350050604671006 0  0.6378867365666199 0.5557804038095817 0  0.6246915360243652 0.5362124690568238 0  0.6151175309583405 0.5575933164645619 0  0.6019784180102355 0.5380659376543677 0  0.5924099113505394 0.5593739656462906 0  0.5794110962027638 0.541110021814312 0  0.5697985396917309 0.5614600003719357 0  0.5568468707330213 0.5433212932327446 0  0.5472634011377896 0.5635652141280936 0  0.5343236363495072 0.5451361960661517 0  0.5247877773262166 0.565493591892781 0  0.5118927934227436 0.5470665328397559 0  0.5023398230005425 0.5674381114577953 0  0.5213991904098014 0.5267047787870831 0  0.4990390504096661 0.528649139287786 0  0.6328887517229864 0.5131744321062524 0  0.5085133205790763 0.5083322037773296 0  0.4861972978925295 0.5102540920324363 0  0.4956914791804768 0.4899605513008993 0  0.4734139980312694 0.4918582759645476 0  0.4826986629698439 0.4717164019717278 0  0.460570567761715 0.473509155475794 0  0.4699344541058981 0.4533140529328089 0  0.4477087341565655 0.4550973130597117 0  0.4381733274019614 0.4752901381741884 0  0.4570222843287571 0.4349938694701042 0  0.4348599018247688 0.436728068420533 0  0.5604623134382263 0.581815997002507 0  0.4443612964408632 0.416499823314016 0  0.422056299386984 0.4183730429856528 0  0.4688721528228815 0.4135009841763965 0  0.4315584877924544 0.398120546824229 0  0.4092288692044618 0.3999974286008185 0  0.7463210599443056 0.6070829843371945 0  0.4187270626688335 0.3797365044773463 0  0.3964262302393312 0.3817184136470017 0  0.3869780036193907 0.4018498778543814 0  0.3742423843122406 0.3837055716372927 0  0.3648701490102072 0.4037049758807119 0  0.3518115403926748 0.3858985036587403 0  0.3426146276710081 0.4056777495658291 0  0.3614541441355358 0.3656396497906528 0  0.339026673715919 0.3678724679736439 0  0.3485566370135618 0.3476560889674916 0  0.3264681821394378 0.3496422822523857 0  0.8219942777991693 0.5379143061758643 0  0.3358297439968608 0.3295117748868035 0  0.3137050884585635 0.3314921667582986 0  0.3229980644152205 0.3113561769498422 0  0.3007986024336577 0.3133063832007756 0  0.3441851868720173 0.3085211458266175 0  0.3101966551534752 0.2930273704914169 0  0.287793053707373 0.2950088132226583 0  0.2914417217227097 0.3337427541189321 0  0.2975120686695638 0.2743682539701985 0  0.274864585256681 0.2764253296978281 0  0.816026571618698 0.6006851919544112 0  0.2844672854128698 0.2557011565880619 0  0.2617267434509338 0.2577713002235077 0  0.3072711221189672 0.2536790056475094 0  0.2521588568690318 0.2785072139143895 0  0.2389277409161178 0.2598761196336353 0  0.248448076747058 0.2389478879785275 0  0.5053822153261678 0.4716915524631118 0  0.229548765875869 0.2806542761043101 0  0.2254561407802683 0.2411354049374563 0  0.2350621310805047 0.2199181955146378 0  0.2117782450160163 0.222165061041625 0  0.2214249125635323 0.2008136877065064 0  0.2448758256083499 0.1985732693215908 0  0.197966291680556 0.2031211006951591 0  0.1883147493074436 0.2245564097761413 0  0.8910637266939049 0.5322898364209732 0  0.1748136087708587 0.2051141748992724 0  0.1842088801696792 0.1837087814679069 0  0.1656574100807746 0.2269812054689968 0  0.3554582346764377 0.4236292557112198 0  0.3328979939923831 0.425459320867588 0  0.3460368767112177 0.4435398346083328 0  0.3238464003
[...]
<PointData  Tensors="$\sigma$"> 
<DataArray  type="Float64"  Name="$\sigma$"  NumberOfComponents="9" format="ascii">-4.2002849000144965e+02 -6.4620113822601854e+02 0.0000000000000000e+00 -6.4620113822601900e+02 -1.2277603990606094e+03 0.0000000000000000e+00 0.0000000000000000e+00 0.0000000000000000e+00 0.0000000000000000e+00  1.9199971334367835e+03 1.1127833833350415e+01 0.0000000000000000e+00 1.1127833833348205e+01 1.4326226382925426e+04 0.0000000000000000e+00 0.0000000000000000e+00 0.0000000000000000e+00 0.0000000000000000e+00  -3.0737829539272212e+02 7.4134029752371134e+02 0.0000000000000000e+00 7.4134029752371009e+02 -1.2874910290889527e+03 0.0000000000000000e+00 0.0000000000000000e+00 0.0000000000000000e+00 0.0000000000000000e+00  9.1761390745395785e-02 1.6305195901701806e+00 0.0000000000000000e+00 1.6305195901701812e+00 8.7487019548376011e+03 0.0000000000000000e+00 0.0000000000000000e+00 0.0000000000000000e+00 0.0000000000000000e+00  3.1299613191217617e+00 -1.0712005926983367e-02 0.0000000000000000e+00 -1.0712005926985379e-02 8.4010653363745514e+03 0.0000000000000000e+00 0.0000000000000000e+00 0.0000000000000000e+00 0.0000000000000000e+00  -4.8496403597218244e+02 -6.0903992572922846e+02 0.0000000000000000e+00 -6.0903992572922698e+02 -4.0758257237278805e+01 0.0000000000000000e+00 0.0000000000000000e+00 0.0000000000000000e+00 0.0000000000000000e+00  2.5004357399553447e+02 -1.8469492560435432e+02 0.0000000000000000e+00 -1.8469492560435310e+02 2.3292765988101428e+02 0.0000000000000000e+00 0.0000000000000000e+00 0.0000000000000000e+00 0.0000000000000000e+00  2.6116223061885746e-01 1.9894866652144746e-01 0.0000000000000000e+00 1.9894866652145091e-01 8.7474438310041951e+03 0.0000000000000000e+00 0.0000000000000000e+00 0.0000000000000000e+00 0.0000000000000000e+00  2.5986126654118621e+03 1.0421591614867225e+03 0.0000000000000000e+00 1.0421591614867239e+03 9.1388087119827960e+03 0.0000000000000000e+00 0.0000000000000000e+00 0.0000000000000000e+00 0.0000000000000000e+00  1.0190720352155301e+03 1.0480765453664833e+03 0.0000000000000000e+00 1.0480765453664860e+03 7.8402349859863239e+02 0.0000000000000000e+00 0.0000000000000000e+00 0.0000000000000000e+00 0.0000000000000000e+00  4.4190477806017288e+03 5.4425228074136794e+03 0.0000000000000000e+00 5.4425228074136776e+03 6.2723948031650443e+03 0.0000000000000000e+00 0.0000000000000000e+00 0.0000000000000000e+00 0.0000000000000000e+00  4.6046514565319439e+03 4.6676171795100672e+03 0.0000000000000000e+00 4.6676171795100654e+03 1.2815419449910245e+04 0.0000000000000000e+00 0.0000000000000000e+00 0.0000000000000000e+00 0.0000000000000000e+00  4.7655617944516453e+03 -4.7105980627136832e+03 0.0000000000000000e+00 -4.7105980627136796e+03 1.2903548652283633e+04 0.0000000000000000e+00 0.0000000000000000e+00 0.0000000000000000e+00 0.0000000000000000e+00  4.5351463761254072e+03 -5.4665067730266965e+03 0.0000000000000000e+00 -5.4665067730266965e+03 6.4079102160859275e+03 0.0000000000000000e+00 0.0000000000000000e+00 0.0000000000000000e+00 0.0000000000000000e+00  9.9813302279713128e+02 -1.1257304367208146e+03 0.0000000000000000e+00 -1.1257304367208208e+03 6.6673844054211554e+02 0.0000000000000000e+00 0.0000000000000000e+00 0.0000000000000000e+00 0.0000000000000000e+00  2.6408504258452253e-01 -4.3885602551305491e-01 0.0000000000000000e+00 -4.3885602551305536e-01 8.7441575944901178e+03 0.0000000000000000e+00 0.0000000000000000e+00 0.0000000000000000e+00 0.0000000000000000e+00  -1.4567593114012414e-01 -1.3625915976614471e+00 0.0000000000000000e+00 -1.3625915976614389e+00 8.7353072335424713e+03 0.0000000000000000e+00 0.0000000000000000e+00 0.0000000000000000e+00 0.0000000000000000e+00  1.0255202622914334e+00 -1.5835039717731756e+00 0.0000000000000000e+00 -1.5835039717731858e+00 8.7217224354922855e+03 0.0000000000000000e+00 0.0000000000000000e+00 0.0000000000000000e+00 0.0000000000000000e+00  -7.1221577903149191e-01 -1.1362616473976390e+00 0.0000000000000000e+00 -1.1362616473976510e+00 8.7001714852610912e+03 0.0000000000000000e+00 0.0000000000000000e+00 0.0000000000000000e+00 0.0000000000000000e+00  8.0912965386725100e-01 -1.9040515439347905e+00 0.0000000000000000e+00 -1.9040515439347934e+00 8.6707519769231840e+03 0.0000000000000000e+00 0.0000000000000000e+00 0.0000000000000000e+00 0.0000000000000000e+00  1.6365404078782813e+00 -4.4288379088750718e+00 0.0000000000000000e+00 -4.4288379088750949e+00 8.6397923149137005e+03 0.0000000000000000e+00 0.0000000000000000e+00 0.0000000000000000e+00 0.0000000000000000e+00  1.7700105941610575e-01 -3.4317281435764504e+00 0.0000000000000000e+00 -3.4317281435764704e+00 8.5862501218281213e+03 0.0000000000000000e+00 0.0000000000000000e+00 0.0000000000000000e+00 0.0000000000000000e+00  -7.3197187193964730e-01 -4.1856435225531241e+00 0.0000000000000000e+00 -4.1856435225531063e+00 8.5340012280726951e+03 0.0000000000000000e+00 0.0000000000000000e+00 0.0000000000000000e+00 0.0000000000000000e+00  3.0637553391622041e+00 -6.6597150143229706e+00 0.0000000000000000e+00 -6.6597150143229076e+00 8.4694950794658525e+03 0.0000000000000000e+00 0.0000000000000000e+00 0.0000000000000000e+00 0.0000000000000000e+00  1.8426599687798253e+00 -9.5426337142157589e+00 0.0000000000000000e+00 -9.5426337142157589e+00 8.3910725150417238e+03 0.0000000000000000e+00 0.0000000000000000e+00 0.0000000000000000e+00 0.0000000000000000e+00  3.8827644752533841e+00 -1.1624711962828139e+01 0.0000000000000000e+00 -1.1624711962828227e+01 8.2577679004771398e+03 0.0000000000000000e+00 0.0000000000000000e+00 0.0000000000000000e+00 0.0000000000000000e+00  1.7120489927209646e+00 -1.8876781959730689e+01 0.0000000000000000e+00 -1.8876781959730607e+01 8.1674894849403490e+03 0.0000000000000000e+00 0.0000000000000000e+00 0.0000000000000000e+00 0.0000000000000000e+00  2.5504965487245590e+00 -1.3618137965389984e+01 0.0000000000000000e+00 -1.3618137965390217e+01 7.9710403923934691e+03 0.0000000000000000e+00 0.0000000000000000e+00 0.0000000000000000e+00 0.0000000000000000e+00  -1.6441396675023014e+00 -1.4540611573746643e+01 0.0000000000000000e+00 -1.4540611573746689e+01 7.7774500682601565e+03 0.0000000000000000e+00 0.0000000000000000e+00 0.0000000000000000e+00 0.0000000000000000e+00  2.1702442847118693e+01 -1.3736659881618316e+01 0.0000000000000000e+00 -1.3736659881618218e+01 7.5019543501342523e+03 0.0000000000000000e+00 0.0000000000000000e+00 0.0000000000000000e+00 0.0000000000000000e+00  -2.2750471117035602e+01 -1.3619719612750274e+01 0.0000000000000000e+00 -1.3619719612750037e+01 7.1263047819950698e+03 0.0000000000000000e+00 0.0000000000000000e+00 0.0000000000000000e+00 0.0000000000000000e+00  5.7953424791663750e+01 -7.1702793886987266e+01 0.0000000000000000e+00 -7.1702793886986441e+01 6.5883480971460313e+03 0.0000000000000000e+00 0.0000000000000000e+00 0.0000000000000000e+00 0.0000000000000000e+00  -1.3981240144277928e+01 -3.3336009739519298e+01 0.0000000000000000e+00 -3.3336009739520115e+01 5.8931545833719019e+03 0.0000000000000000e+00 0.0000000000000000e+00 0.0000000000000000e+00 0.0000000000000000e+00  -2.6108413111017267e+01 -1.5294861173618565e+02 0.0000000000000000e+00 -1.5294861173618702e+02 4.6709571555433085e+03 0.0000000000000000e+00 0.0000000000000000e+00 0.0000000000000000e+00 0.0000000000000000e+00  7.4524857826439543e+01 -2.8114903654568570e+02 0.0000000000000000e+00 -2.8114903654568479e+02 3.2263054561208050e+03 0.0000000000000000e+00 0.0000000000000000e+00 0.0000000000000000e+00 0.0000000000000000e+00  1.7105231031212372e+02 -1.0833966075893150e+02 0.0000000000000000e+00 -1.0833966075893370e+02 1.0628665799268783e+03 0.0000000000000000e+00 0.0000000000000000e+00 0.0000000000000000e+00 0.0000000000000000e+00  -8.9216280994370791e+00 3.4720153226082562e-01 0.0000000000000000e+00 3.4720153226082762e-01 8.4309842317865423e+03 0.0000000000000000e+00 0.0000000000000000e+00 0.0000000000000000e+00 0.0000000000000000e+00  -4.4285412084249273e+01 -4.3788033784916824e-01 0.0000000000000000e+00 -4.3788033784910213e-01 8.5038946999453547e+03 0.0000000000000000e+00 0.0000000000000000e+00 0.0000000000000000e+00 0.0000000000000000e+00  -9.8469450187484384e+01 2.5270079269413572e+00 0.0000000000000000e+00 2.5270079269413772e+00 8.6140875491960960e+03 0.0000000000000000e+00 0.0000000000000000e+00 0.0000000000000000e+00 0.0000000000000000e+00  -1.6137039494673249e+02 1.5649125497026496e-02 0.0000000000000000e+00 1.5649125497017011e-02 8.7371485528927751e+03 0.0000000000000000e+00 0.0000000000000000e+00 0.0000000000000000e+00 0.0000000000000000e+00  -2.1731896683970967e+02 3.4551247115696389e+00 0.0000000000000000e+00 3.4551247115696260e+00 8.8859141806299613e+03 0.0000000000000000e+00 0.0000000000000000e+00 0.0000000000000000e+00 0.0000000000000000e+00  -2.7562761501840208e+02 -1.5039592577974803e-01 0.0000000000000000e+00 -1.5039592577975497e-01 9.0319041702461618e+03 0.0000000000000000e+00 0.0000000000000000e+00 0.0000000000000000e+00 0.0000000000000000e+00  -3.3085635945487252e+02 1.3307819674115948e-01 0.0000000000000000e+00 1.3307819674116608e-01 9.1585148108289231e+03 0.0000000000000000e+00 0.0000000000000000e+00 0.0000000000000000e+00 0.0000000000000000e+00  -3.6020821555595791e+02 -8.0559609543813582e-01 0.0000000000000000e+00 -8.0559609543813482e-01 9.2943215352995121e+03 0.0000000000000000e+00 0.0000000000000000e+00 0.0000000000000000e+00 0.0000000000000000e+00  -3.8809066365149624e+02 4.0559101609293741e-01 0.0000000000000000e+00 4.0559101609294779e-01 9.3821076079848099e+03 0.0000000000000000e+00 0.0000000000000000e+00 0.0000000000000000e+00 0.0000000000000000e+00  -4.0524770546279262e+02 -1.1262162598016847e+00 0.0000000000000000e+00 -1.1262162598016845e+00 9.4684422352290912e+03 0.0000000000000000e+00 0.0000000000000000e+00 0.0000000000000000e+00 0.0000000000000000e+00  -4.0900986821169323e+02 -7.4819092199586712e-01 0.0000000000000000e+00 -7.4819092199586834e-01 9.5333927509060177e+03 0.0000000000000000e+00 0.0000000000000000e+00 0.0000000000000000e+00 0.0000000000000000e+00  -4.0556353334379475e+02 -1.8139096840786368e+00 0.0000000000000000e+00 -1.8139096840786400e+00 9.5787284478177589e+03 0.0000000000000000e+00 0.0000000000000000e+00 0.0000000000000000e+00 0.0000000000000000e+00  -3.9636507671547332e+02 -1.0901764373827185e+00 0.0000000000000000e+00 -1.0901764373827156e+00 9.6108731858934188e+03 0.0000000000000000e+00 0.0000000000000000e+00 0.0000000000000000e+00 0.0000000000000000e+00  -3.8418892401125970e+02 -5.7236271054047050e-01 0.0000000000000000e+00 -5.7236271054047416e-01 9.6313247240269266e+03 0.0000000000000000e+00 0.0000000000000000e+00 0.0000000000000000e+00 0.0000000000000000e+00  -3.6834093088637485e+02 -9.2319573294735846e-01 0.0000000000000000e+00 -9.2319573294734747e-01 9.6402195348209825e+03 0.0000000000000000e+00 0.0000000000000000e+00 0.0000000000000000e+00 0.0000000000000000e+00  -3.5178213797250544e+02 -1.1557847788096089e+00 0.0000000000000000e+00 -1.1557847788096050e+00 9.6413605726140759e+03 0.0000000000000000e+00 0.0000000000000000e+00 0.0000000000000000e+00 0.0000000000000000e+00  -3.3592388842535593e+02 -5.5512383298718804e-01 0.0000000000000000e+00 -5.5512383298718404e-01 9.6347425151937587e+03 0.0000000000000000e+00 0.0000000000000000e+00 0.0000000000000000e+00 0.0000000000000000e+00  -3.2006792791495576e+02 -7.6292899904390310e-01 0.0000000000000000e+00 -7.6292899904389155e-01 9.6236815493560734e+03 0.0000000000000000e+00 0.0000000000000000e+00 0.0000000000000000e+00 0.0000000000000000e+00  -3.0564906510559598e+02 -3.6575842767234545e-01 0.0000000000000000e+00 -3.6575842767236094e-01 9.6078211046784709e+03 0.0000000000000000e+00 0.0000000000000000e+00 0.0000000000000000e+00 0.0000000000000000e+00  -2.9193324002989203e+02 -3.4552869002730657e-01 0.0000000000000000e+00 -3.4552869002731379e-01 9.5874688396672154e+03 0.0000000000000000e+00 0.0000000000000000e+00 0.0000000000000000e+00 0.0000000000000000e+00  -2.7974970620306095e+02 -1.7900246302269085e-01 0.0000000000000000e+00 -1.7900246302270320e-01 9.5640620603882016e+03 0.0000000000000000e+00 0.0000000000000000e+00 0.0000000000000000e+00 0.0000000000000000e+00  -2.6775576270156455e+02 -9.3283927148343215e-02 0.0000000000000000e+00 -9.3283927148333987e-02 9.5378098202513174e+03 0.0000000000000000e+00 0.0000000000000000e+00 0.0000000000000000e+00 0.0000000000000000e+00  -2.5720714991893783e+02 -8.0686982832200244e-02 0.0000000000000000e+00 -8.0686982832184215e-02 9.5075035508398123e+03 0.0000000000000000e+00 0.0000000000000000e+00 0.0000000000000000e+00 0.0000000000000000e+00  -2.4567533068019225e+02 -4.9950431507356320e-02 0.0000000000000000e+00 -4.9950431507368692e-02 9.4741998521201494e+03 0.0000000000000000e+00 0.0000000000000000e+00 0.0000000000000000e+00 0.0000000000000000e+00  -2.3509240151286031e+02 -1.3939558015682549e-01 0.0000000000000000e+00 -1.3939558015684034e-01 9.4377483693189042e+03 0.0000000000000000e+00 0.0000000000000000e+00 0.0000000000000000e+00 0.0000000000000000e+00  -2.2286198265463139e+02 2.0475569607345637e-01 0.0000000000000000e+00 2.0475569607346350e-01 9.3977915060522737e+03 0.0000000000000000e+00 0.0000000000000000e+00 0.0000000000000000e+00 0.0000000000000000e+00  -2.0984164913602615e+02 -1.2974923857954881e-01 0.0000000000000000e+00 -1.2974923857955187e-01 9.3529830832122607e+03 0.0000000000000000e+00 0.0000000000000000e+00 0.0000000000000000e+00 0.0000000000000000e+00  -1.9575762026585528e+02 2.7548692452354784e-01 0.0000000000000000e+00 2.7548692452355172e-01 9.3057088024581499e+03 0.0000000000000000e+00 0.0000000000000000e+00 0.0000000000000000e+00 0.0000000000000000e+00  -1.7955718217510253e+02 2.6797982634469886e-01 0.0000000000000000e+00 2.6797982634468953e-01 9.2559541675386845e+03 0.0000000000000000e+00 0.0000000000000000e+00 0.0000000000000000e+00 0.0000000000000000e+00  -1.6253843861170887e+02 1.0304276039730972e-01 0.0000000000000000e+00 1.0304276039731038e-01 9.2004392379625606e+03 0.0000000000000000e+00 0.0000000000000000e+00 0.0000000000000000e+00 0.0000000000000000e+00  -1.4269563660937652e+02 -2.4792016006057721e-01 0.0000000000000000e+00 -2.4792016006058049e-01 9.1457064649128079e+03 0.0000000000000000e+00 0.0000000000000000e+00 0.0000000000000000e+00 0.0000000000000000e+00  -1.2341085954570418e+02 -2.3656390580618583e-01 0.0000000000000000e+00 -2.3656390580620376e-01 9.0861738457912197e+03 0.0000000000000000e+00 0.0000000000000000e+00 0.0000000000000000e+00 0.0000000000000000e+00  -1.0098502253899447e+02 -5.5995830312263791e-03 0.0000000000000000e+00 -5.5995830312679249e-03 9.0285720258229030e+03 0.0000000000000000e+00 0.0000000000000000e+00 0.0000000000000000e+00 0.0000000000000000e+00  -7.9740554784363425e+01 -3.9009510551951077e-01 0.0000000000000000e+00 -3.9009510551952314e-01 8.9738844581952599e+03 0.0000000000000000e+00 0.0000000000000000e+00 0.0000000000000000e+00 0.0000000000000000e+00  -5.8459792220441045e+01 -5.3056434638088311e-02 0.0000000000000000e+00 -5.3056434638107414e-02 8.9201925534806105e+03 0.0000000000000000e+00 0.0000000000000000e+00 0.0000000000000000e+00 0.0000000000000000e+00  -3.9508396645835809e+01 -6.1550394277148139e-02 0.0000000000000000e+00 -6.1550394277148139e-02 8.8688129087330162e+03 0.0000000000000000e+00 0.0000000000000000e+00 0.0000000000000000e+00 0.0000000000000000e+00  -2.3124531943977669e+01 -1.1834142485192643e-01 0.0000000000000000e+00 -1.1834142485194686e-01 8.8255046332055208e+03 0.0000000000000000e+00 0.0000000000000000e+00 0.0000000000000000e+00 0.0000000000000000e+00  -1.0479407409986294e+01 1.9473121422847892e-01 0.0000000000000000e+00 1.9473121422847947e-01 8.7893931913944834e+03 0.0000000000000000e+00 0.0000000000000000e+00 0.0000000000000000e+00 0.0000000000000000e+00  -1.4482440283700910e+00 3.5579465264631149e-01 0.0000000000000000e+00 3.5579465264631421e-01 8.7634929250719561e+03 0.0000000000000000e+00 0.0000000000000000e+00 0.0000000000000000e+00 0.0000000000000000e+00  -1.0705883753550303e+02 -2.2237784607194899e+02 0.0000000000000000e+00 -2.2237784607194959e+02 5.3860659312557129e+02 0.0000000000000000e+00 0.0000000000000000e+00 0.0000000000000000e+00 0.0000000000000000e+00  2.9636948981781183e+02 2.9143501083250197e+02 0.0000000000000000e+00 2.9143501083250163e+02 3.4966918394118238e+03 0.0000000000000000e+00 0.0000000000000000e+00 0.0000000000000000e+00 0.0000000000000000e+00  -2.6403391179854788e+02 -9.7723171170281489e+01 0.0000000000000000e+00 -9.7723171170281333e+01 4.5143442980852687e+03 0.0000000000000000e+00 0.0000000000000000e+00 0.0000000000000000e+00 0.0000000000000000e+00  2.4087114398118138e+02 1.7280445658238088e+02 0.0000000000000000e+00 1.7280445658238065e+02 6.1290940658464297e+03 0.0000000000000000e+00 0.0000000000000000e+00 0.0000000000000000e+00 0.0000000000000000e+00  -1.0724027166525019e+02 -7.0452537052630319e+01 0.0000000000000000e+00 -7.0452537052630490e+01 6.5652143916539580e+03 0.0000000000000000e+00 0.0000000000000000e+00 0.0000000000000000e+00 0.0000000000000000e+00  8.6125912253071476e+01 7.2463049726083796e+01 0.0000000000000000e+00 7.2463049726083668e+01 7.2381621024432079e+03 0.0000000000000000e+00 0.0000000000000000e+00 0.0000000000000000e+00 0.0000000000000000e+00  -2.7331374198993242e+01 6.5267391301148772e+00 0.0000000000000000e+00 6.5267391301150841e+00 7.5609435784461602e+03 0.0000000000000000e+00 0.0000000000000000e+00 0.0000000000000000e+00 0.0000000000000000e+00  1.8549449959826717e+01 2.7743735345245529e+01 0.0000000000000000e+00 2.7743735345245749e+01 7.8018046790227017e+03 0.0000000000000000e+00 0.0000000000000000e+00 0.0000000000000000e+00 0.0000000000000000e+00  3.9897483736571515e+00 1.4764547571261046e+01 0.0000000000000000e+00 1.4764547571260946e+01 8.0460916302501282e+03 0.0000000000000000e+00 0.0000000000000000e+00 0.0000000000000000e+00 0.0000000000000000e+00  6.4188044784956277e+00 8.9554877226137855e+00 0.0000000000000000e+00 8.9554877226137997e+00 8.1722125932882673e+03 0.0000000000000000e+00 0.0000000000000000e+00 0.0000000000000000e+00 0.0000000000000000e+00  -3.3107178563221829e+00 1.6510120651472162e+00 0.0000000000000000e+00 1.6510120651471494e+00 8.2909755248375604e+03 0.0000000000000000e+00 0.0000000000000000e+00 0.0000000000000000e+00 0.0000000000000000e+00  6.2900451135934814e+00 5.1695059696640770e+00 0.0000000000000000e+00 5.1695059696640584e+00 8.3424698739970536e+03 0.0000000000000000e+00 0.0000000000000000e+00 0.0000000000000000e+00 0.0000000000000000e+00  -1.9730342808023260e+00 1.1357542127909173e+00 0.0000000000000000e+00 1.1357542127909339e+00 8.3965916369510414e+03 0.0000000000000000e+00 0.0000000000000000e+00 0.0000000000000000e+00 0.0000000000000000e+00  1.3035907284728623e+03 1.3793475895614185e+03 0.0000000000000000e+00 1.3793475895614208e+03 4.2202913204279992e+02 0.0000000000000000e+00 0.0000000000000000e+00 0.0000000000000000e+00 0.0000000000000000e+00  5.8600236085704237e+03 6.0618053803505254e+03 0.0000000000000000e+00 6.0618053803505172e+03 1.0018879755362665e+04 0.0000000000000000e+00 0.0000000000000000e+00 0.0000000000000000e+00 0.0000000000000000e+00  2.5207748239755574e+03 2.6774284233134986e+03 0.0000000000000000e+00 2.6774284233134995e+03 1.3521871042851355e+04 0.0000000000000000e+00 0.0000000000000000e+00 0.0000000000000000e+00 0.0000000000000000e+00  3.0591048719261007e+03 -2.5264179716588319e+03 0.0000000000000000e+00 -2.5264179716588328e+03 1.4000802884186289e+04 0.0000000000000000e+00 0.0000000000000000e+00 0.0000000000000000e+00 0.0000000000000000e+00  3.5828997288571563e+03 -5.6548909783665940e+03 0.0000000000000000e+00 -5.6548909783665940e+03 8.9135882522748034e+03 0.0000000000000000e+00 0.0000000000000000e+00 0.0000000000000000e+00 0.0000000000000000e+00  2.1948284245554937e+03 -1.8016001114664073e+03 0.0000000000000000e+00 -1.8016001114664080e+03 1.1312701019134463e+03 0.0000000000000000e+00 0.0000000000000000e+00 0.0000000000000000e+00 0.0000000000000000e+00  9.8937432986793708e-02 -6.0513035984383590e-01 0.0000000000000000e+00 -6.0513035984383590e-01 8.7454428543686408e+03 0.0000000000000000e+00 0.0000000000