<?xml version="1.0"?>
<VTKFile type="UnstructuredGrid"  version="0.1"  >
<UnstructuredGrid>
<Piece  NumberOfPoints="2165" NumberOfCells="4161">
<Points>
<DataArray  type="Float64"  NumberOfComponents="3"  format="ascii">-3.598637933768527e-16 0.3500000000000001 0  0.05 0.4 0  -3.537405593811159e-16 0.45 0  0 1 0  1 1 0  0.9999999999999997 0.65 0  0.9999999999999997 0.5499999999999999 0  1 0 0  0 0 0  0.0191341716182545 0.3538060233744357 0  0.03535533905932737 0.3646446609406727 0  0.04619397662556433 0.3808658283817455 0  0.04619397662556434 0.4191341716182545 0  0.03535533905932738 0.4353553390593274 0  0.01913417161825449 0.4461939766255644 0  0 0.975 0  0 0.95 0  0 0.9249999999999999 0  0 0.8999999999999998 0  0 0.8749999999999998 0  0 0.8499999999999998 0  0 0.8249999999999997 0  0 0.7999999999999996 0  0 0.7749999999999996 0  0 0.7499999999999996 0  0 0.7249999999999996 0  0 0.6999999999999997 0  0 0.6749999999999998 0  0 0.6499999999999999 0  0 0.6249999999999999 0  0 0.6 0  0 0.575 0  0 0.5499999999999998 0  0 0.5249999999999999 0  0 0.4999999999999998 0  0 0.4749999999999999 0  0.975 1 0  0.95 1 0  0.925 1 0  0.9 1 0  0.875 1 0  0.85 1 0  0.825 1 0  0.8 1 0  0.775 1 0  0.75 1 0  0.725 1 0  0.7 1 0  0.675 1 0  0.65 1 0  0.625 1 0  0.6 1 0  0.575 1 0  0.55 1 0  0.525 1 0  0.5 1 0  0.475 1 0  0.45 1 0  0.425 1 0  0.4 1 0  0.375 1 0  0.35 1 0  0.325 1 0  0.3 1 0  0.275 1 0  0.25 1 0  0.225 1 0  0.2 1 0  0.175 1 0  0.15 1 0  0.125 1 0  0.09999999999999998 1 0  0.07499999999999996 1 0  0.05000000000000004 1 0  0.02500000000000002 1 0  1 0.675 0  1 0.7000000000000001 0  1 0.7250000000000001 0  1 0.7500000000000001 0  1 0.7750000000000001 0  1 0.8000000000000002 0  1 0.8250000000000002 0  1 0.8500000000000002 0  1 0.8750000000000003 0  1 0.9000000000000001 0  1 0.9250000000000002 0  1 0.9500000000000001 0  1 0.9750000000000001 0  0.9783058130441221 0.6450484433951209 0  0.9609084258765985 0.6311744900929367 0  0.9512536043909088 0.6111260466978157 0  0.9512536043909088 0.5888739533021843 0  0.9609084258765985 0.5688255099070633 0  0.9783058130441221 0.554951556604879 0  1 0.02500000000000002 0  1 0.05000000000000004 0  1 0.07500000000000008 0  1 0.1000000000000001 0  1 0.1250000000000001 0  1 0.1500000000000002 0  1 0.1750000000000002 0  1 0.2000000000000003 0  1 0.2250000000000003 0  1 0.2500000000000004 0  1 0.2750000000000004 0  1 0.3000000000000003 0  1 0.3250000000000002 0  1 0.3500000000000001 0  1 0.3750000000000001 0  1 0.3999999999999999 0  1 0.425 0  1 0.45 0  1 0.475 0  1 0.5000000000000001 0  1 0.5249999999999999 0  0.025 0 0  0.05 0 0  0.075 0 0  0.1 0 0  0.125 0 0  0.15 0 0  0.175 0 0  0.2 0 0  0.225 0 0  0.25 0 0  0.275 0 0  0.3 0 0  0.325 0 0  0.35 0 0  0.375 0 0  0.4 0 0  0.425 0 0  0.45 0 0  0.475 0 0  0.5 0 0  0.525 0 0  0.55 0 0  0.575 0 0  0.6 0 0  0.625 0 0  0.65 0 0  0.675 0 0  0.7 0 0  0.725 0 0  0.75 0 0  0.775 0 0  0.8 0 0  0.825 0 0  0.85 0 0  0.875 0 0  0.9 0 0  0.925 0 0  0.95 0 0  0.975 0 0  0 0.3250000000000001 0  0 0.3 0  0 0.275 0  0 0.2499999999999999 0  0 0.2249999999999999 0  0 0.1999999999999998 0  0 0.1749999999999998 0  0 0.1499999999999998 0  0 0.1249999999999998 0  0 0.09999999999999987 0  0 0.07499999999999984 0  0 0.04999999999999993 0  0 0.02500000000000002 0  0.06453325334544308 0.4134708543086404 0  0.5146839915088474 0.02134387884913819 0  0.4875871001393628 0.9784117024331356 0  0.9386300160094723 0.5701776715936071 0  0.0216506350946109 0.6124999999999999 0  0.9764205887290853 0.3596067946540696 0  0.3876261045932067 0.02156097490657183 0  0.6125 0.978349364905389 0  0.3612127461797463 0.9792371404802113 0  0.6374786650398092 0.02079982608537345 0  0.9387185538472446 0.6295115890709873 0  0.05482260092545593 0.3633687091864355 0  0.02445354803948679 0.7343198207875321 0  0.2624888813627476 0.02091671348578122 0  0.7375212991274043 0.9794996488945376 0  0.9793010831723812 0.2648509348664836 0  0.2625026480689301 0.9795699185263282 0  0.7362840788105066 0.02225211062275217 0  0.02159327910297104 0.2128861809896528 0  0.9786837570973538 0.7867241244631172 0  0.02419728000065929 0.8365600234152764 0  0.980043283615984 0.1624097203408714 0  0.1645857434226354 0.0205513501962844 0  0.8339481359352011 0.9784483546369231 0  0.1637584777222821 0.9774556328160621 0  0.8374916614314967 0.02165097219510076 0  0.02171915379676059 0.5370700005916152 0  0.9795335762511281 0.4365726939225819 0  0.02319480745007968 0.1370197632171214 0  0.9774462976085161 0.8592616917551974 0  0.9786941241076723 0.7122511101067891 0  0.9797883857882621 0.08781864217752949 0  0.01966314788989931 0.9125801876811624 0  0.02051815350151098 0.2882126194470174 0  0.09063226699593246 0.0214884092697174 0  0.9124408843562394 0.9818463395009377 0  0.03872465516591678 0.452731089005145 0  0.08969424365256845 0.978412979507602 0  0.9124999999999999 0.02165063509461096 0  0.02158104789437187 0.6619299176372371 0  0.9796602354625652 0.4859004208706154 0  0.3127517983598529 0.02417963694738812 0  0.4375629605000894 0.02158039900821679 0  0.5643674594196073 0.01968996000301126 0  0.5368361594956101 0.9790428840407062 0  0.4376176251051295 0.9783667484208922 0  0.6874072695660477 0.978435143102373 0  0.310604317388614 0.979558305560928 0  0.2125577044121564 0.02066685543111635 0  0.6875 0.0216506350946109 0  0.02224009810917643 0.08811420611559456 0  0.790876428529276 0.978633065284896 0  0.2125 0.978349364905389 0  0.9788033534786624 0.2116925349935155 0  0.9769441169344462 0.3150381335760689 0  0.9804648376981185 0.9123186437266726 0  0.7874999988222203 0.02127957051165741 0  0.02109233852270731 0.786866823287435 0  0.9483709287873718 0.5504073206521916 0  0.9259842326464427 0.5519702047534598 0  0.9163209045278007 0.5719292915927929 0  0.9035374059862284 0.5537291796040291 0  0.8938951918780048 0.5738949757882954 0  0.8807940177559743 0.5546750869516996 0  0.8712661812741653 0.5757142549099102 0  0.8580668865514332 0.5563902430113601 0  0.848508161986991 0.5779004013072002 0  0.8354274200119249 0.5591176379057713 0  0.8256349826905482 0.5800610629400762 0  0.8124123591208572 0.5604454546391737 0  0.802603410938817 0.5819653950592523 0  0.7892876429890218 0.562234610648543 0  0.7794355871850538 0.583896242519796 0  0.7661469824381839 0.5648243426306435 0  0.7562387679604726 0.5860005456930413 0  0.7429651600512166 0.5669367633461588 0  0.7330846968880171 0.5879590907760761 0  0.7198577999459205 0.5688986880627463 0  0.7297050500533544 0.5479561801187277 0  0.7066243396993471 0.5499068108517552 0  0.6968285086900206 0.5707989520567972 0  0.6836266810714333 0.5519088927359967 0  0.6738604685766018 0.5727655091567184 0  0.6607284761452521 0.5538781923028128 0  0.6697149783704412 0.5321140554135094 0  0.6473436039782401 0.5350050604671006 0  0.6378867365666199 0.5557804038095817 0  0.6246915360243652 0.5362124690568238 0  0.6151175309583405 0.5575933164645619 0  0.6019784180102355 0.5380659376543677 0  0.5924099113505394 0.5593739656462906 0  0.5794110962027638 0.541110021814312 0  0.5697985396917309 0.5614600003719357 0  0.5568468707330213 0.5433212932327446 0  0.5472634011377896 0.5635652141280936 0  0.5343236363495072 0.5451361960661517 0  0.5247877773262166 0.565493591892781 0  0.5118927934227436 0.5470665328397559 0  0.5023398230005425 0.5674381114577953 0  0.5213991904098014 0.5267047787870831 0  0.4990390504096661 0.528649139287786 0  0.6328887517229864 0.5131744321062524 0  0.5085133205790763 0.5083322037773296 0  0.4861972978925295 0.5102540920324363 0  0.4956914791804768 0.4899605513008993 0  0.4734139980312694 0.4918582759645476 0  0.4826986629698439 0.4717164019717278 0  0.460570567761715 0.473509155475794 0  0.4699344541058981 0.4533140529328089 0  0.4477087341565655 0.4550973130597117 0  0.4381733274019614 0.4752901381741884 0  0.4570222843287571 0.4349938694701042 0  0.4348599018247688 0.436728068420533 0  0.5604623134382263 0.581815997002507 0  0.4443612964408632 0.416499823314016 0  0.422056299386984 0.4183730429856528 0  0.4688721528228815 0.4135009841763965 0  0.4315584877924544 0.398120546824229 0  0.4092288692044618 0.3999974286008185 0  0.7463210599443056 0.6070829843371945 0  0.4187270626688335 0.3797365044773463 0  0.3964262302393312 0.3817184136470017 0  0.3869780036193907 0.4018498778543814 0  0.3742423843122406 0.3837055716372927 0  0.3648701490102072 0.4037049758807119 0  0.3518115403926748 0.3858985036587403 0  0.3426146276710081 0.4056777495658291 0  0.3614541441355358 0.3656396497906528 0  0.339026673715919 0.3678724679736439 0  0.3485566370135618 0.3476560889674916 0  0.3264681821394378 0.3496422822523857 0  0.8219942777991693 0.5379143061758643 0  0.3358297439968608 0.3295117748868035 0  0.3137050884585635 0.3314921667582986 0  0.3229980644152205 0.3113561769498422 0  0.3007986024336577 0.3133063832007756 0  0.3441851868720173 0.3085211458266175 0  0.3101966551534752 0.2930273704914169 0  0.287793053707373 0.2950088132226583 0  0.2914417217227097 0.3337427541189321 0  0.2975120686695638 0.2743682539701985 0  0.274864585256681 0.2764253296978281 0  0.816026571618698 0.6006851919544112 0  0.2844672854128698 0.2557011565880619 0  0.2617267434509338 0.2577713002235077 0  0.3072711221189672 0.2536790056475094 0  0.2521588568690318 0.2785072139143895 0  0.2389277409161178 0.2598761196336353 0  0.248448076747058 0.2389478879785275 0  0.5053822153261678 0.4716915524631118 0  0.229548765875869 0.2806542761043101 0  0.2254561407802683 0.2411354049374563 0  0.2350621310805047 0.2199181955146378 0  0.2117782450160163 0.222165061041625 0  0.2214249125635323 0.2008136877065064 0  0.2448758256083499 0.1985732693215908 0  0.197966291680556 0.2031211006951591 0  0.1883147493074436 0.2245564097761413 0  0.8910637266939049 0.5322898364209732 0  0.1748136087708587 0.2051141748992724 0  0.1842088801696792 0.1837087814679069 0  0.1656574100807746 0.2269812054689968 0  0.3554582346764377 0.4236292557112198 0  0.3328979939923831 0.425459320867588 0  0.3460368767112177 0.4435398346083328 0  0.3238464003
[...]
<PointData  Tensors="$\sigma$"> 
<DataArray  type="Float64"  Name="$\sigma$"  NumberOfComponents="9" format="ascii">-1.5646016544281841e+02 -2.2001786794250057e+02 0.0000000000000000e+00 -2.2001786794250057e+02 -5.2555052274058005e+02 0.0000000000000000e+00 0.0000000000000000e+00 0.0000000000000000e+00 0.0000000000000000e+00  6.8412731181267702e+02 2.4786836051838737e+01 0.0000000000000000e+00 2.4786836051838577e+01 1.0355766887330001e+04 0.0000000000000000e+00 0.0000000000000000e+00 0.0000000000000000e+00 0.0000000000000000e+00  -1.3008493249443089e+02 2.6156598274443024e+02 0.0000000000000000e+00 2.6156598274443019e+02 -5.4801950444274883e+02 0.0000000000000000e+00 0.0000000000000000e+00 0.0000000000000000e+00 0.0000000000000000e+00  5.1726443554971226e-02 4.1599799195452525e-01 0.0000000000000000e+00 4.1599799195452497e-01 3.2819910186751413e+03 0.0000000000000000e+00 0.0000000000000000e+00 0.0000000000000000e+00 0.0000000000000000e+00  5.9872154582722437e-01 -2.4805569986523175e-02 0.0000000000000000e+00 -2.4805569986523758e-02 3.1830620885842568e+03 0.0000000000000000e+00 0.0000000000000000e+00 0.0000000000000000e+00 0.0000000000000000e+00  -1.7703344369678874e+02 -2.4064698986790739e+02 0.0000000000000000e+00 -2.4064698986790714e+02 -6.2726342279356622e+01 0.0000000000000000e+00 0.0000000000000000e+00 0.0000000000000000e+00 0.0000000000000000e+00  1.0751597380172089e+02 -6.5028292439022309e+01 0.0000000000000000e+00 -6.5028292439022152e+01 9.1456471265306902e+01 0.0000000000000000e+00 0.0000000000000000e+00 0.0000000000000000e+00 0.0000000000000000e+00  -7.5072557189695660e-02 7.3511853859629189e-02 0.0000000000000000e+00 7.3511853859630216e-02 3.2831594266981265e+03 0.0000000000000000e+00 0.0000000000000000e+00 0.0000000000000000e+00 0.0000000000000000e+00  9.4476726337953596e+02 3.9052261585986543e+02 0.0000000000000000e+00 3.9052261585986548e+02 3.4408640344008372e+03 0.0000000000000000e+00 0.0000000000000000e+00 0.0000000000000000e+00 0.0000000000000000e+00  5.2866284958260474e+02 4.6430490750962684e+02 0.0000000000000000e+00 4.6430490750962684e+02 4.1989539288423322e+02 0.0000000000000000e+00 0.0000000000000000e+00 0.0000000000000000e+00 0.0000000000000000e+00  1.7431041908981742e+03 2.0511252736832826e+03 0.0000000000000000e+00 2.0511252736832826e+03 2.7571346648640729e+03 0.0000000000000000e+00 0.0000000000000000e+00 0.0000000000000000e+00 0.0000000000000000e+00  1.4183448673874775e+03 2.5079619904442702e+03 0.0000000000000000e+00 2.5079619904442698e+03 7.7956271982220842e+03 0.0000000000000000e+00 0.0000000000000000e+00 0.0000000000000000e+00 0.0000000000000000e+00  1.3987774851986749e+03 -2.5301162152539705e+03 0.0000000000000000e+00 -2.5301162152539714e+03 7.7665169004404870e+03 0.0000000000000000e+00 0.0000000000000000e+00 0.0000000000000000e+00 0.0000000000000000e+00  1.7264065896635036e+03 -2.0129837424630400e+03 0.0000000000000000e+00 -2.0129837424630402e+03 2.9298996118264586e+03 0.0000000000000000e+00 0.0000000000000000e+00 0.0000000000000000e+00 0.0000000000000000e+00  5.1213630485173974e+02 -5.0115843125663565e+02 0.0000000000000000e+00 -5.0115843125663685e+02 4.0563055165262051e+02 0.0000000000000000e+00 0.0000000000000000e+00 0.0000000000000000e+00 0.0000000000000000e+00  1.4287635580100372e-02 -1.3326549588088157e-01 0.0000000000000000e+00 -1.3326549588088027e-01 3.2805492241058419e+03 0.0000000000000000e+00 0.0000000000000000e+00 0.0000000000000000e+00 0.0000000000000000e+00  9.5545933815602089e-03 -4.9405261515677606e-01 0.0000000000000000e+00 -4.9405261515677462e-01 3.2780930594391516e+03 0.0000000000000000e+00 0.0000000000000000e+00 0.0000000000000000e+00 0.0000000000000000e+00  2.4797091201483354e-01 -5.1753393150104854e-01 0.0000000000000000e+00 -5.1753393150104721e-01 3.2738748576263542e+03 0.0000000000000000e+00 0.0000000000000000e+00 0.0000000000000000e+00 0.0000000000000000e+00  -1.9037486241715437e-01 -4.5535335095792634e-01 0.0000000000000000e+00 -4.5535335095792556e-01 3.2674453095978938e+03 0.0000000000000000e+00 0.0000000000000000e+00 0.0000000000000000e+00 0.0000000000000000e+00  1.5062795852858457e-01 -8.1859220632029006e-01 0.0000000000000000e+00 -8.1859220632029461e-01 3.2587881880962859e+03 0.0000000000000000e+00 0.0000000000000000e+00 0.0000000000000000e+00 0.0000000000000000e+00  5.7257062084631638e-01 -1.5926554718629169e+00 0.0000000000000000e+00 -1.5926554718629140e+00 3.2495470413131516e+03 0.0000000000000000e+00 0.0000000000000000e+00 0.0000000000000000e+00 0.0000000000000000e+00  -8.3036563175685946e-02 -1.2531836809720793e+00 0.0000000000000000e+00 -1.2531836809720782e+00 3.2333568874535094e+03 0.0000000000000000e+00 0.0000000000000000e+00 0.0000000000000000e+00 0.0000000000000000e+00  -2.9165915965822759e-02 -1.8344446925628883e+00 0.0000000000000000e+00 -1.8344446925628870e+00 3.2179568832045647e+03 0.0000000000000000e+00 0.0000000000000000e+00 0.0000000000000000e+00 0.0000000000000000e+00  7.7020747814801382e-01 -2.5394087903499210e+00 0.0000000000000000e+00 -2.5394087903499218e+00 3.1981108938016746e+03 0.0000000000000000e+00 0.0000000000000000e+00 0.0000000000000000e+00 0.0000000000000000e+00  7.2704055581310756e-01 -3.1240823953028003e+00 0.0000000000000000e+00 -3.1240823953027932e+00 3.1748263480586238e+03 0.0000000000000000e+00 0.0000000000000000e+00 0.0000000000000000e+00 0.0000000000000000e+00  4.0520065174320891e-01 -4.0389957318771552e+00 0.0000000000000000e+00 -4.0389957318771499e+00 3.1332697516807880e+03 0.0000000000000000e+00 0.0000000000000000e+00 0.0000000000000000e+00 0.0000000000000000e+00  3.4691690144441173e-01 -6.6850830530003318e+00 0.0000000000000000e+00 -6.6850830530003220e+00 3.1066259118447151e+03 0.0000000000000000e+00 0.0000000000000000e+00 0.0000000000000000e+00 0.0000000000000000e+00  8.9031865015908762e-02 -5.0747807352376677e+00 0.0000000000000000e+00 -5.0747807352376837e+00 3.0441909205549264e+03 0.0000000000000000e+00 0.0000000000000000e+00 0.0000000000000000e+00 0.0000000000000000e+00  1.3176204530229585e+00 -7.6122592100723168e+00 0.0000000000000000e+00 -7.6122592100723345e+00 2.9859427954099638e+03 0.0000000000000000e+00 0.0000000000000000e+00 0.0000000000000000e+00 0.0000000000000000e+00  3.9290840337203443e+00 -4.4111434861108298e+00 0.0000000000000000e+00 -4.4111434861108796e+00 2.8922772602254840e+03 0.0000000000000000e+00 0.0000000000000000e+00 0.0000000000000000e+00 0.0000000000000000e+00  -2.3456560625140970e+00 -9.9625839824441496e+00 0.0000000000000000e+00 -9.9625839824440643e+00 2.7763303939233724e+03 0.0000000000000000e+00 0.0000000000000000e+00 0.0000000000000000e+00 0.0000000000000000e+00  1.2610988856029174e+01 -2.8818452952865421e+01 0.0000000000000000e+00 -2.8818452952865503e+01 2.5911561618578421e+03 0.0000000000000000e+00 0.0000000000000000e+00 0.0000000000000000e+00 0.0000000000000000e+00  -5.8393099011674927e+00 -2.1276000128143149e+01 0.0000000000000000e+00 -2.1276000128143110e+01 2.3401992652417994e+03 0.0000000000000000e+00 0.0000000000000000e+00 0.0000000000000000e+00 0.0000000000000000e+00  1.4563592285646672e+01 -8.5397800429452161e+01 0.0000000000000000e+00 -8.5397800429452403e+01 1.9265600449178962e+03 0.0000000000000000e+00 0.0000000000000000e+00 0.0000000000000000e+00 0.0000000000000000e+00  -3.0782147050046632e+01 -9.9971305698356247e+01 0.0000000000000000e+00 -9.9971305698356048e+01 1.3051949061498481e+03 0.0000000000000000e+00 0.0000000000000000e+00 0.0000000000000000e+00 0.0000000000000000e+00  1.0777397794773276e+02 -1.1692154139718153e+02 0.0000000000000000e+00 -1.1692154139718129e+02 4.7551296215620556e+02 0.0000000000000000e+00 0.0000000000000000e+00 0.0000000000000000e+00 0.0000000000000000e+00  -2.6307318808489533e+00 1.4354698482349862e-01 0.0000000000000000e+00 1.4354698482349240e-01 3.1901137387706231e+03 0.0000000000000000e+00 0.0000000000000000e+00 0.0000000000000000e+00 0.0000000000000000e+00  -1.3599482227539045e+01 8.5700021254239478e-02 0.0000000000000000e+00 8.5700021254250122e-02 3.2110546513828654e+03 0.0000000000000000e+00 0.0000000000000000e+00 0.0000000000000000e+00 0.0000000000000000e+00  -2.9992457400005858e+01 8.6762546386535500e-01 0.0000000000000000e+00 8.6762546386536099e-01 3.2424605239585553e+03 0.0000000000000000e+00 0.0000000000000000e+00 0.0000000000000000e+00 0.0000000000000000e+00  -4.9395986890031139e+01 2.1425621344721241e-01 0.0000000000000000e+00 2.1425621344722162e-01 3.2784020364242297e+03 0.0000000000000000e+00 0.0000000000000000e+00 0.0000000000000000e+00 0.0000000000000000e+00  -6.6030331696489242e+01 1.3418055234648054e+00 0.0000000000000000e+00 1.3418055234648090e+00 3.3228869029408461e+03 0.0000000000000000e+00 0.0000000000000000e+00 0.0000000000000000e+00 0.0000000000000000e+00  -8.3263086642734763e+01 -4.4184287511324284e-02 0.0000000000000000e+00 -4.4184287511317352e-02 3.3660262004191491e+03 0.0000000000000000e+00 0.0000000000000000e+00 0.0000000000000000e+00 0.0000000000000000e+00  -1.0026061262568628e+02 -1.6762152625282731e-02 0.0000000000000000e+00 -1.6762152625280257e-02 3.4028748939791567e+03 0.0000000000000000e+00 0.0000000000000000e+00 0.0000000000000000e+00 0.0000000000000000e+00  -1.0841758673514850e+02 -3.0492878827906256e-01 0.0000000000000000e+00 -3.0492878827906089e-01 3.4430966996327757e+03 0.0000000000000000e+00 0.0000000000000000e+00 0.0000000000000000e+00 0.0000000000000000e+00  -1.1656186705416336e+02 1.2675967578838815e-01 0.0000000000000000e+00 1.2675967578838537e-01 3.4683984355504890e+03 0.0000000000000000e+00 0.0000000000000000e+00 0.0000000000000000e+00 0.0000000000000000e+00  -1.2152077168679038e+02 -3.9475008386551463e-01 0.0000000000000000e+00 -3.9475008386551413e-01 3.4932690864675151e+03 0.0000000000000000e+00 0.0000000000000000e+00 0.0000000000000000e+00 0.0000000000000000e+00  -1.2231109171512158e+02 -4.0695966378919279e-01 0.0000000000000000e+00 -4.0695966378919202e-01 3.5122039259849771e+03 0.0000000000000000e+00 0.0000000000000000e+00 0.0000000000000000e+00 0.0000000000000000e+00  -1.2101788302444065e+02 -5.9163608206099672e-01 0.0000000000000000e+00 -5.9163608206099827e-01 3.5250738952819765e+03 0.0000000000000000e+00 0.0000000000000000e+00 0.0000000000000000e+00 0.0000000000000000e+00  -1.1807652906759617e+02 -3.9456620239362517e-01 0.0000000000000000e+00 -3.9456620239362583e-01 3.5342864392441720e+03 0.0000000000000000e+00 0.0000000000000000e+00 0.0000000000000000e+00 0.0000000000000000e+00  -1.1428823180490670e+02 -3.2686370812851384e-01 0.0000000000000000e+00 -3.2686370812851717e-01 3.5400149499900508e+03 0.0000000000000000e+00 0.0000000000000000e+00 0.0000000000000000e+00 0.0000000000000000e+00  -1.0943943735823329e+02 -3.5961168270131183e-01 0.0000000000000000e+00 -3.5961168270131222e-01 3.5423705851995810e+03 0.0000000000000000e+00 0.0000000000000000e+00 0.0000000000000000e+00 0.0000000000000000e+00  -1.0450198776053935e+02 -3.9863061148465945e-01 0.0000000000000000e+00 -3.9863061148465867e-01 3.5425225400824093e+03 0.0000000000000000e+00 0.0000000000000000e+00 0.0000000000000000e+00 0.0000000000000000e+00  -9.9670708736823755e+01 -2.7036432718329789e-01 0.0000000000000000e+00 -2.7036432718329656e-01 3.5405008601832646e+03 0.0000000000000000e+00 0.0000000000000000e+00 0.0000000000000000e+00 0.0000000000000000e+00  -9.5017000452028441e+01 -2.7517201496495447e-01 0.0000000000000000e+00 -2.7517201496495736e-01 3.5371590156204147e+03 0.0000000000000000e+00 0.0000000000000000e+00 0.0000000000000000e+00 0.0000000000000000e+00  -9.0688902233223487e+01 -1.6433334142468115e-01 0.0000000000000000e+00 -1.6433334142468414e-01 3.5324648640032242e+03 0.0000000000000000e+00 0.0000000000000000e+00 0.0000000000000000e+00 0.0000000000000000e+00  -8.6672908310201692e+01 -1.2496352947011850e-01 0.0000000000000000e+00 -1.2496352947011762e-01 3.5265042229086166e+03 0.0000000000000000e+00 0.0000000000000000e+00 0.0000000000000000e+00 0.0000000000000000e+00  -8.3080802404041250e+01 -7.1274017113335322e-02 0.0000000000000000e+00 -7.1274017113336072e-02 3.5196669533383010e+03 0.0000000000000000e+00 0.0000000000000000e+00 0.0000000000000000e+00 0.0000000000000000e+00  -7.9572588530107296e+01 -3.6235738984918907e-02 0.0000000000000000e+00 -3.6235738984918948e-02 3.5119333009367829e+03 0.0000000000000000e+00 0.0000000000000000e+00 0.0000000000000000e+00 0.0000000000000000e+00  -7.6489463331801929e+01 -2.7683393716752829e-03 0.0000000000000000e+00 -2.7683393716748821e-03 3.5031073999758264e+03 0.0000000000000000e+00 0.0000000000000000e+00 0.0000000000000000e+00 0.0000000000000000e+00  -7.3112140454134973e+01 -2.8810801467210847e-02 0.0000000000000000e+00 -2.8810801467211010e-02 3.4933734742861461e+03 0.0000000000000000e+00 0.0000000000000000e+00 0.0000000000000000e+00 0.0000000000000000e+00  -7.0012352366729559e+01 -4.4105356722726030e-02 0.0000000000000000e+00 -4.4105356722725440e-02 3.4828038136059245e+03 0.0000000000000000e+00 0.0000000000000000e+00 0.0000000000000000e+00 0.0000000000000000e+00  -6.6409057146502064e+01 5.5044030795313233e-02 0.0000000000000000e+00 5.5044030795313760e-02 3.4710596298430050e+03 0.0000000000000000e+00 0.0000000000000000e+00 0.0000000000000000e+00 0.0000000000000000e+00  -6.2594510853902051e+01 -1.0894129107777878e-02 0.0000000000000000e+00 -1.0894129107777891e-02 3.4579321493269799e+03 0.0000000000000000e+00 0.0000000000000000e+00 0.0000000000000000e+00 0.0000000000000000e+00  -5.8432542334225978e+01 6.5780431944396187e-02 0.0000000000000000e+00 6.5780431944396187e-02 3.4441275249100090e+03 0.0000000000000000e+00 0.0000000000000000e+00 0.0000000000000000e+00 0.0000000000000000e+00  -5.3594650131576799e+01 9.8498665610045250e-02 0.0000000000000000e+00 9.8498665610044042e-02 3.4295417784680808e+03 0.0000000000000000e+00 0.0000000000000000e+00 0.0000000000000000e+00 0.0000000000000000e+00  -4.8627115303030195e+01 6.9254553773032395e-03 0.0000000000000000e+00 6.9254553773028301e-03 3.4132191134538057e+03 0.0000000000000000e+00 0.0000000000000000e+00 0.0000000000000000e+00 0.0000000000000000e+00  -4.2628301627226875e+01 -3.7960703785599514e-02 0.0000000000000000e+00 -3.7960703785602977e-02 3.3971818956425250e+03 0.0000000000000000e+00 0.0000000000000000e+00 0.0000000000000000e+00 0.0000000000000000e+00  -3.6920306923675518e+01 -1.0668007808575541e-01 0.0000000000000000e+00 -1.0668007808575256e-01 3.3797407024159402e+03 0.0000000000000000e+00 0.0000000000000000e+00 0.0000000000000000e+00 0.0000000000000000e+00  -3.0226797988054404e+01 -5.2691730548194843e-02 0.0000000000000000e+00 -5.2691730548201164e-02 3.3627657279041900e+03 0.0000000000000000e+00 0.0000000000000000e+00 0.0000000000000000e+00 0.0000000000000000e+00  -2.3805223651516911e+01 -1.6286163411307611e-01 0.0000000000000000e+00 -1.6286163411307694e-01 3.3469185448936255e+03 0.0000000000000000e+00 0.0000000000000000e+00 0.0000000000000000e+00 0.0000000000000000e+00  -1.7493241657261233e+01 -5.9358212827206151e-02 0.0000000000000000e+00 -5.9358212827206436e-02 3.3311955339267874e+03 0.0000000000000000e+00 0.0000000000000000e+00 0.0000000000000000e+00 0.0000000000000000e+00  -1.1775220296206127e+01 -1.9950627386879534e-02 0.0000000000000000e+00 -1.9950627386878726e-02 3.3162635862723923e+03 0.0000000000000000e+00 0.0000000000000000e+00 0.0000000000000000e+00 0.0000000000000000e+00  -6.8998734211945107e+00 -5.9848210699272937e-02 0.0000000000000000e+00 -5.9848210699272909e-02 3.3037086917677525e+03 0.0000000000000000e+00 0.0000000000000000e+00 0.0000000000000000e+00 0.0000000000000000e+00  -3.1405961188713527e+00 4.0378354751511601e-02 0.0000000000000000e+00 4.0378354751514405e-02 3.2931978598846431e+03 0.0000000000000000e+00 0.0000000000000000e+00 0.0000000000000000e+00 0.0000000000000000e+00  -4.4380705548553784e-01 1.0208225233210654e-01 0.0000000000000000e+00 1.0208225233210540e-01 3.2859589706281404e+03 0.0000000000000000e+00 0.0000000000000000e+00 0.0000000000000000e+00 0.0000000000000000e+00  1.0729547804162205e+02 5.8018109803095371e+01 0.0000000000000000e+00 5.8018109803095683e+01 3.8149288818375993e+02 0.0000000000000000e+00 0.0000000000000000e+00 0.0000000000000000e+00 0.0000000000000000e+00  5.6132123496913451e+01 8.3906203297288087e+01 0.0000000000000000e+00 8.3906203297288044e+01 1.3663100339407565e+03 0.0000000000000000e+00 0.0000000000000000e+00 0.0000000000000000e+00 0.0000000000000000e+00  -1.1192936805405994e+01 2.8523894624547690e+01 0.0000000000000000e+00 2.8523894624547715e+01 1.9427299274779664e+03 0.0000000000000000e+00 0.0000000000000000e+00 0.0000000000000000e+00 0.0000000000000000e+00  3.1959958595598593e+01 3.6802824028211781e+01 0.0000000000000000e+00 3.6802824028212036e+01 2.3933215244033186e+03 0.0000000000000000e+00 0.0000000000000000e+00 0.0000000000000000e+00 0.0000000000000000e+00  -4.8446031576215285e+00 2.4802979569375667e+00 0.0000000000000000e+00 2.4802979569376036e+00 2.6219836688207765e+03 0.0000000000000000e+00 0.0000000000000000e+00 0.0000000000000000e+00 0.0000000000000000e+00  1.1389295811537625e+01 1.4391212909399512e+01 0.0000000000000000e+00 1.4391212909399499e+01 2.8051417296300583e+03 0.0000000000000000e+00 0.0000000000000000e+00 0.0000000000000000e+00 0.0000000000000000e+00  -1.5604643875835864e+00 9.9840110214954105e+00 0.0000000000000000e+00 9.9840110214953768e+00 2.9273397902813840e+03 0.0000000000000000e+00 0.0000000000000000e+00 0.0000000000000000e+00 0.0000000000000000e+00  6.5266779922648921e-01 9.4427786327074106e+00 0.0000000000000000e+00 9.4427786327073697e+00 2.9980424924509648e+03 0.0000000000000000e+00 0.0000000000000000e+00 0.0000000000000000e+00 0.0000000000000000e+00  1.2460603004521145e+00 5.4176378468012301e+00 0.0000000000000000e+00 5.4176378468012567e+00 3.0726122291420525e+03 0.0000000000000000e+00 0.0000000000000000e+00 0.0000000000000000e+00 0.0000000000000000e+00  1.6773193870750174e+00 4.2128280567052814e+00 0.0000000000000000e+00 4.2128280567052947e+00 3.1153732725492778e+03 0.0000000000000000e+00 0.0000000000000000e+00 0.0000000000000000e+00 0.0000000000000000e+00  -9.6309286170042063e-01 5.6102724110841362e-01 0.0000000000000000e+00 5.6102724110841451e-01 3.1478960531104690e+03 0.0000000000000000e+00 0.0000000000000000e+00 0.0000000000000000e+00 0.0000000000000000e+00  1.7152307465383212e+00 1.6395361043013787e+00 0.0000000000000000e+00 1.6395361043013843e+00 3.1660968769765941e+03 0.0000000000000000e+00 0.0000000000000000e+00 0.0000000000000000e+00 0.0000000000000000e+00  -4.1656378761066815e-01 4.5011562270953998e-01 0.0000000000000000e+00 4.5011562270954736e-01 3.1811752269308040e+03 0.0000000000000000e+00 0.0000000000000000e+00 0.0000000000000000e+00 0.0000000000000000e+00  7.0308580888211327e+02 6.0883369368491469e+02 0.0000000000000000e+00 6.0883369368491515e+02 4.5719512729965356e+02 0.0000000000000000e+00 0.0000000000000000e+00 0.0000000000000000e+00 0.0000000000000000e+00  1.9610436741853580e+03 2.5405810450153072e+03 0.0000000000000000e+00 2.5405810450153053e+03 4.4780573127648058e+03 0.0000000000000000e+00 0.0000000000000000e+00 0.0000000000000000e+00 0.0000000000000000e+00  7.7405553259718874e+02 1.8222575469462006e+03 0.0000000000000000e+00 1.8222575469461988e+03 9.2900347711656650e+03 0.0000000000000000e+00 0.0000000000000000e+00 0.0000000000000000e+00 0.0000000000000000e+00  1.2823605221613407e+03 -1.2230094612391072e+03 0.0000000000000000e+00 -1.2230094612391069e+03 8.7612386683554832e+03 0.0000000000000000e+00 0.0000000000000000e+00 0.0000000000000000e+00 0.0000000000000000e+00  1.3165841349691721e+03 -2.5720272291366432e+03 0.0000000000000000e+00 -2.5720272291366450e+03 4.5095658160632174e+03 0.0000000000000000e+00 0.0000000000000000e+00 0.0000000000000000e+00 0.0000000000000000e+00  6.9961165629563550e+02 -7.3934140100489435e+02 0.0000000000000000e+00 -7.3934140100489390e+02 6.8346945956181480e+02 0.0000000000000000e+00 0.0000000000000000e+00 0.0000000000000000e+00 0.0000000000000000e+00  4.5031868919764947e-02 -2.2277165265818819e-01 0.0000000000000000e+00 -2.2277165265818852e-01 3.2824633159136206e+03 0.0000000000000000e+00 0.0000000000000000e