<?xml version="1.0"?>
<VTKFile type="UnstructuredGrid"  version="0.1"  >
<UnstructuredGrid>
<Piece  NumberOfPoints="2165" NumberOfCells="4161">
<Points>
<DataArray  type="Float64"  NumberOfComponents="3"  format="ascii">-3.598637933768527e-16 0.3500000000000001 0  0.05 0.4 0  -3.537405593811159e-16 0.45 0  0 1 0  1 1 0  0.9999999999999997 0.65 0  0.9999999999999997 0.5499999999999999 0  1 0 0  0 0 0  0.0191341716182545 0.3538060233744357 0  0.03535533905932737 0.3646446609406727 0  0.04619397662556433 0.3808658283817455 0  0.04619397662556434 0.4191341716182545 0  0.03535533905932738 0.4353553390593274 0  0.01913417161825449 0.4461939766255644 0  0 0.975 0  0 0.95 0  0 0.9249999999999999 0  0 0.8999999999999998 0  0 0.8749999999999998 0  0 0.8499999999999998 0  0 0.8249999999999997 0  0 0.7999999999999996 0  0 0.7749999999999996 0  0 0.7499999999999996 0  0 0.7249999999999996 0  0 0.6999999999999997 0  0 0.6749999999999998 0  0 0.6499999999999999 0  0 0.6249999999999999 0  0 0.6 0  0 0.575 0  0 0.5499999999999998 0  0 0.5249999999999999 0  0 0.4999999999999998 0  0 0.4749999999999999 0  0.975 1 0  0.95 1 0  0.925 1 0  0.9 1 0  0.875 1 0  0.85 1 0  0.825 1 0  0.8 1 0  0.775 1 0  0.75 1 0  0.725 1 0  0.7 1 0  0.675 1 0  0.65 1 0  0.625 1 0  0.6 1 0  0.575 1 0  0.55 1 0  0.525 1 0  0.5 1 0  0.475 1 0  0.45 1 0  0.425 1 0  0.4 1 0  0.375 1 0  0.35 1 0  0.325 1 0  0.3 1 0  0.275 1 0  0.25 1 0  0.225 1 0  0.2 1 0  0.175 1 0  0.15 1 0  0.125 1 0  0.09999999999999998 1 0  0.07499999999999996 1 0  0.05000000000000004 1 0  0.02500000000000002 1 0  1 0.675 0  1 0.7000000000000001 0  1 0.7250000000000001 0  1 0.7500000000000001 0  1 0.7750000000000001 0  1 0.8000000000000002 0  1 0.8250000000000002 0  1 0.8500000000000002 0  1 0.8750000000000003 0  1 0.9000000000000001 0  1 0.9250000000000002 0  1 0.9500000000000001 0  1 0.9750000000000001 0  0.9783058130441221 0.6450484433951209 0  0.9609084258765985 0.6311744900929367 0  0.9512536043909088 0.6111260466978157 0  0.9512536043909088 0.5888739533021843 0  0.9609084258765985 0.5688255099070633 0  0.9783058130441221 0.554951556604879 0  1 0.02500000000000002 0  1 0.05000000000000004 0  1 0.07500000000000008 0  1 0.1000000000000001 0  1 0.1250000000000001 0  1 0.1500000000000002 0  1 0.1750000000000002 0  1 0.2000000000000003 0  1 0.2250000000000003 0  1 0.2500000000000004 0  1 0.2750000000000004 0  1 0.3000000000000003 0  1 0.3250000000000002 0  1 0.3500000000000001 0  1 0.3750000000000001 0  1 0.3999999999999999 0  1 0.425 0  1 0.45 0  1 0.475 0  1 0.5000000000000001 0  1 0.5249999999999999 0  0.025 0 0  0.05 0 0  0.075 0 0  0.1 0 0  0.125 0 0  0.15 0 0  0.175 0 0  0.2 0 0  0.225 0 0  0.25 0 0  0.275 0 0  0.3 0 0  0.325 0 0  0.35 0 0  0.375 0 0  0.4 0 0  0.425 0 0  0.45 0 0  0.475 0 0  0.5 0 0  0.525 0 0  0.55 0 0  0.575 0 0  0.6 0 0  0.625 0 0  0.65 0 0  0.675 0 0  0.7 0 0  0.725 0 0  0.75 0 0  0.775 0 0  0.8 0 0  0.825 0 0  0.85 0 0  0.875 0 0  0.9 0 0  0.925 0 0  0.95 0 0  0.975 0 0  0 0.3250000000000001 0  0 0.3 0  0 0.275 0  0 0.2499999999999999 0  0 0.2249999999999999 0  0 0.1999999999999998 0  0 0.1749999999999998 0  0 0.1499999999999998 0  0 0.1249999999999998 0  0 0.09999999999999987 0  0 0.07499999999999984 0  0 0.04999999999999993 0  0 0.02500000000000002 0  0.06453325334544308 0.4134708543086404 0  0.5146839915088474 0.02134387884913819 0  0.4875871001393628 0.9784117024331356 0  0.9386300160094723 0.5701776715936071 0  0.0216506350946109 0.6124999999999999 0  0.9764205887290853 0.3596067946540696 0  0.3876261045932067 0.02156097490657183 0  0.6125 0.978349364905389 0  0.3612127461797463 0.9792371404802113 0  0.6374786650398092 0.02079982608537345 0  0.9387185538472446 0.6295115890709873 0  0.05482260092545593 0.3633687091864355 0  0.02445354803948679 0.7343198207875321 0  0.2624888813627476 0.02091671348578122 0  0.7375212991274043 0.9794996488945376 0  0.9793010831723812 0.2648509348664836 0  0.2625026480689301 0.9795699185263282 0  0.7362840788105066 0.02225211062275217 0  0.02159327910297104 0.2128861809896528 0  0.9786837570973538 0.7867241244631172 0  0.02419728000065929 0.8365600234152764 0  0.980043283615984 0.1624097203408714 0  0.1645857434226354 0.0205513501962844 0  0.8339481359352011 0.9784483546369231 0  0.1637584777222821 0.9774556328160621 0  0.8374916614314967 0.02165097219510076 0  0.02171915379676059 0.5370700005916152 0  0.9795335762511281 0.4365726939225819 0  0.02319480745007968 0.1370197632171214 0  0.9774462976085161 0.8592616917551974 0  0.9786941241076723 0.7122511101067891 0  0.9797883857882621 0.08781864217752949 0  0.01966314788989931 0.9125801876811624 0  0.02051815350151098 0.2882126194470174 0  0.09063226699593246 0.0214884092697174 0  0.9124408843562394 0.9818463395009377 0  0.03872465516591678 0.452731089005145 0  0.08969424365256845 0.978412979507602 0  0.9124999999999999 0.02165063509461096 0  0.02158104789437187 0.6619299176372371 0  0.9796602354625652 0.4859004208706154 0  0.3127517983598529 0.02417963694738812 0  0.4375629605000894 0.02158039900821679 0  0.5643674594196073 0.01968996000301126 0  0.5368361594956101 0.9790428840407062 0  0.4376176251051295 0.9783667484208922 0  0.6874072695660477 0.978435143102373 0  0.310604317388614 0.979558305560928 0  0.2125577044121564 0.02066685543111635 0  0.6875 0.0216506350946109 0  0.02224009810917643 0.08811420611559456 0  0.790876428529276 0.978633065284896 0  0.2125 0.978349364905389 0  0.9788033534786624 0.2116925349935155 0  0.9769441169344462 0.3150381335760689 0  0.9804648376981185 0.9123186437266726 0  0.7874999988222203 0.02127957051165741 0  0.02109233852270731 0.786866823287435 0  0.9483709287873718 0.5504073206521916 0  0.9259842326464427 0.5519702047534598 0  0.9163209045278007 0.5719292915927929 0  0.9035374059862284 0.5537291796040291 0  0.8938951918780048 0.5738949757882954 0  0.8807940177559743 0.5546750869516996 0  0.8712661812741653 0.5757142549099102 0  0.8580668865514332 0.5563902430113601 0  0.848508161986991 0.5779004013072002 0  0.8354274200119249 0.5591176379057713 0  0.8256349826905482 0.5800610629400762 0  0.8124123591208572 0.5604454546391737 0  0.802603410938817 0.5819653950592523 0  0.7892876429890218 0.562234610648543 0  0.7794355871850538 0.583896242519796 0  0.7661469824381839 0.5648243426306435 0  0.7562387679604726 0.5860005456930413 0  0.7429651600512166 0.5669367633461588 0  0.7330846968880171 0.5879590907760761 0  0.7198577999459205 0.5688986880627463 0  0.7297050500533544 0.5479561801187277 0  0.7066243396993471 0.5499068108517552 0  0.6968285086900206 0.5707989520567972 0  0.6836266810714333 0.5519088927359967 0  0.6738604685766018 0.5727655091567184 0  0.6607284761452521 0.5538781923028128 0  0.6697149783704412 0.5321140554135094 0  0.6473436039782401 0.5350050604671006 0  0.6378867365666199 0.5557804038095817 0  0.6246915360243652 0.5362124690568238 0  0.6151175309583405 0.5575933164645619 0  0.6019784180102355 0.5380659376543677 0  0.5924099113505394 0.5593739656462906 0  0.5794110962027638 0.541110021814312 0  0.5697985396917309 0.5614600003719357 0  0.5568468707330213 0.5433212932327446 0  0.5472634011377896 0.5635652141280936 0  0.5343236363495072 0.5451361960661517 0  0.5247877773262166 0.565493591892781 0  0.5118927934227436 0.5470665328397559 0  0.5023398230005425 0.5674381114577953 0  0.5213991904098014 0.5267047787870831 0  0.4990390504096661 0.528649139287786 0  0.6328887517229864 0.5131744321062524 0  0.5085133205790763 0.5083322037773296 0  0.4861972978925295 0.5102540920324363 0  0.4956914791804768 0.4899605513008993 0  0.4734139980312694 0.4918582759645476 0  0.4826986629698439 0.4717164019717278 0  0.460570567761715 0.473509155475794 0  0.4699344541058981 0.4533140529328089 0  0.4477087341565655 0.4550973130597117 0  0.4381733274019614 0.4752901381741884 0  0.4570222843287571 0.4349938694701042 0  0.4348599018247688 0.436728068420533 0  0.5604623134382263 0.581815997002507 0  0.4443612964408632 0.416499823314016 0  0.422056299386984 0.4183730429856528 0  0.4688721528228815 0.4135009841763965 0  0.4315584877924544 0.398120546824229 0  0.4092288692044618 0.3999974286008185 0  0.7463210599443056 0.6070829843371945 0  0.4187270626688335 0.3797365044773463 0  0.3964262302393312 0.3817184136470017 0  0.3869780036193907 0.4018498778543814 0  0.3742423843122406 0.3837055716372927 0  0.3648701490102072 0.4037049758807119 0  0.3518115403926748 0.3858985036587403 0  0.3426146276710081 0.4056777495658291 0  0.3614541441355358 0.3656396497906528 0  0.339026673715919 0.3678724679736439 0  0.3485566370135618 0.3476560889674916 0  0.3264681821394378 0.3496422822523857 0  0.8219942777991693 0.5379143061758643 0  0.3358297439968608 0.3295117748868035 0  0.3137050884585635 0.3314921667582986 0  0.3229980644152205 0.3113561769498422 0  0.3007986024336577 0.3133063832007756 0  0.3441851868720173 0.3085211458266175 0  0.3101966551534752 0.2930273704914169 0  0.287793053707373 0.2950088132226583 0  0.2914417217227097 0.3337427541189321 0  0.2975120686695638 0.2743682539701985 0  0.274864585256681 0.2764253296978281 0  0.816026571618698 0.6006851919544112 0  0.2844672854128698 0.2557011565880619 0  0.2617267434509338 0.2577713002235077 0  0.3072711221189672 0.2536790056475094 0  0.2521588568690318 0.2785072139143895 0  0.2389277409161178 0.2598761196336353 0  0.248448076747058 0.2389478879785275 0  0.5053822153261678 0.4716915524631118 0  0.229548765875869 0.2806542761043101 0  0.2254561407802683 0.2411354049374563 0  0.2350621310805047 0.2199181955146378 0  0.2117782450160163 0.222165061041625 0  0.2214249125635323 0.2008136877065064 0  0.2448758256083499 0.1985732693215908 0  0.197966291680556 0.2031211006951591 0  0.1883147493074436 0.2245564097761413 0  0.8910637266939049 0.5322898364209732 0  0.1748136087708587 0.2051141748992724 0  0.1842088801696792 0.1837087814679069 0  0.1656574100807746 0.2269812054689968 0  0.3554582346764377 0.4236292557112198 0  0.3328979939923831 0.425459320867588 0  0.3460368767112177 0.4435398346083328 0  0.3238464003
[...]
<PointData  Tensors="$\sigma$"> 
<DataArray  type="Float64"  Name="$\sigma$"  NumberOfComponents="9" format="ascii">-2.2162275987648783e+02 -2.8456750305899249e+02 0.0000000000000000e+00 -2.8456750305899249e+02 -6.9120636599816862e+02 0.0000000000000000e+00 0.0000000000000000e+00 0.0000000000000000e+00 0.0000000000000000e+00  8.3779100541143487e+02 3.8260358009025367e+01 0.0000000000000000e+00 3.8260358009024813e+01 1.3308856042449763e+04 0.0000000000000000e+00 0.0000000000000000e+00 0.0000000000000000e+00 0.0000000000000000e+00  -1.8653856070042806e+02 3.4434065319843631e+02 0.0000000000000000e+00 3.4434065319843592e+02 -7.2236872032264978e+02 0.0000000000000000e+00 0.0000000000000000e+00 0.0000000000000000e+00 0.0000000000000000e+00  6.9043251949036183e-02 5.5515849728698863e-01 0.0000000000000000e+00 5.5515849728698874e-01 4.2192348017723180e+03 0.0000000000000000e+00 0.0000000000000000e+00 0.0000000000000000e+00 0.0000000000000000e+00  9.8857750282975332e-01 5.9741538416341845e-03 0.0000000000000000e+00 5.9741538416350345e-03 4.0914555179650024e+03 0.0000000000000000e+00 0.0000000000000000e+00 0.0000000000000000e+00 0.0000000000000000e+00  -2.5334966736413170e+02 -2.8853049452634446e+02 0.0000000000000000e+00 -2.8853049452634332e+02 -8.1682987398086652e+01 0.0000000000000000e+00 0.0000000000000000e+00 0.0000000000000000e+00 0.0000000000000000e+00  1.4348393443238606e+02 -9.4449538446593479e+01 0.0000000000000000e+00 -9.4449538446593010e+01 1.3181616732878871e+02 0.0000000000000000e+00 0.0000000000000000e+00 0.0000000000000000e+00 0.0000000000000000e+00  -1.4605880188358258e-02 9.9196075786091312e-02 0.0000000000000000e+00 9.9196075786093463e-02 4.2204969889870426e+03 0.0000000000000000e+00 0.0000000000000000e+00 0.0000000000000000e+00 0.0000000000000000e+00  1.2280542075399699e+03 5.0297900213528135e+02 0.0000000000000000e+00 5.0297900213528152e+02 4.4277981115418688e+03 0.0000000000000000e+00 0.0000000000000000e+00 0.0000000000000000e+00 0.0000000000000000e+00  6.8131704639198404e+02 5.7974501866003880e+02 0.0000000000000000e+00 5.7974501866003982e+02 5.1391452513730962e+02 0.0000000000000000e+00 0.0000000000000000e+00 0.0000000000000000e+00 0.0000000000000000e+00  2.2815664835913399e+03 2.6475286123157321e+03 0.0000000000000000e+00 2.6475286123157321e+03 3.4629764343084421e+03 0.0000000000000000e+00 0.0000000000000000e+00 0.0000000000000000e+00 0.0000000000000000e+00  1.8018770971476563e+03 3.2756758033870042e+03 0.0000000000000000e+00 3.2756758033870042e+03 9.9974215356298246e+03 0.0000000000000000e+00 0.0000000000000000e+00 0.0000000000000000e+00 0.0000000000000000e+00  1.7771600215590163e+03 -3.2992471425706663e+03 0.0000000000000000e+00 -3.2992471425706672e+03 9.9512990295615709e+03 0.0000000000000000e+00 0.0000000000000000e+00 0.0000000000000000e+00 0.0000000000000000e+00  2.2529327913859534e+03 -2.6008440161791768e+03 0.0000000000000000e+00 -2.6008440161791777e+03 3.6890961184345392e+03 0.0000000000000000e+00 0.0000000000000000e+00 0.0000000000000000e+00 0.0000000000000000e+00  6.6215634049896710e+02 -6.3101745279965633e+02 0.0000000000000000e+00 -6.3101745279965735e+02 4.9439961274303982e+02 0.0000000000000000e+00 0.0000000000000000e+00 0.0000000000000000e+00 0.0000000000000000e+00  4.4142156095598163e-02 -1.5014000786574899e-01 0.0000000000000000e+00 -1.5014000786574885e-01 4.2174246158022797e+03 0.0000000000000000e+00 0.0000000000000000e+00 0.0000000000000000e+00 0.0000000000000000e+00  -6.5897991877683281e-03 -5.8399008988399104e-01 0.0000000000000000e+00 -5.8399008988399004e-01 4.2141948206876705e+03 0.0000000000000000e+00 0.0000000000000000e+00 0.0000000000000000e+00 0.0000000000000000e+00  3.5282605380864457e-01 -6.4275038187675315e-01 0.0000000000000000e+00 -6.4275038187675027e-01 4.2088109253992970e+03 0.0000000000000000e+00 0.0000000000000000e+00 0.0000000000000000e+00 0.0000000000000000e+00  -2.6558784714878131e-01 -5.0734195046360631e-01 0.0000000000000000e+00 -5.0734195046360231e-01 4.2005900281676504e+03 0.0000000000000000e+00 0.0000000000000000e+00 0.0000000000000000e+00 0.0000000000000000e+00  2.2457962586123872e-01 -9.2297071968566891e-01 0.0000000000000000e+00 -9.2297071968567268e-01 4.1893423504933453e+03 0.0000000000000000e+00 0.0000000000000000e+00 0.0000000000000000e+00 0.0000000000000000e+00  7.4592005678380280e-01 -1.9071246134828734e+00 0.0000000000000000e+00 -1.9071246134828803e+00 4.1774487896506425e+03 0.0000000000000000e+00 0.0000000000000000e+00 0.0000000000000000e+00 0.0000000000000000e+00  -8.4981227994971487e-02 -1.4757324863504475e+00 0.0000000000000000e+00 -1.4757324863504448e+00 4.1566875492438458e+03 0.0000000000000000e+00 0.0000000000000000e+00 0.0000000000000000e+00 0.0000000000000000e+00  -1.1804654744576655e-01 -2.0709437487036197e+00 0.0000000000000000e+00 -2.0709437487036220e+00 4.1367006919651576e+03 0.0000000000000000e+00 0.0000000000000000e+00 0.0000000000000000e+00 0.0000000000000000e+00  1.0875929251793937e+00 -2.9708863406822332e+00 0.0000000000000000e+00 -2.9708863406822275e+00 4.1114030599436692e+03 0.0000000000000000e+00 0.0000000000000000e+00 0.0000000000000000e+00 0.0000000000000000e+00  8.7253423375667949e-01 -3.8640658525778355e+00 0.0000000000000000e+00 -3.8640658525778426e+00 4.0810484102472160e+03 0.0000000000000000e+00 0.0000000000000000e+00 0.0000000000000000e+00 0.0000000000000000e+00  7.6683831414576531e-01 -4.9324974057198521e+00 0.0000000000000000e+00 -4.9324974057198574e+00 4.0281034795838414e+03 0.0000000000000000e+00 0.0000000000000000e+00 0.0000000000000000e+00 0.0000000000000000e+00  5.6848473079702178e-01 -8.1150859535595892e+00 0.0000000000000000e+00 -8.1150859535595519e+00 3.9932227879889447e+03 0.0000000000000000e+00 0.0000000000000000e+00 0.0000000000000000e+00 0.0000000000000000e+00  2.6127427521498015e-01 -6.0661522526817366e+00 0.0000000000000000e+00 -6.0661522526817580e+00 3.9132404914095273e+03 0.0000000000000000e+00 0.0000000000000000e+00 0.0000000000000000e+00 0.0000000000000000e+00  1.2756521289815281e+00 -8.7880339227107243e+00 0.0000000000000000e+00 -8.7880339227107385e+00 3.8379924444101184e+03 0.0000000000000000e+00 0.0000000000000000e+00 0.0000000000000000e+00 0.0000000000000000e+00  5.9460262532048000e+00 -5.0688199176989848e+00 0.0000000000000000e+00 -5.0688199176989306e+00 3.7180479192035546e+03 0.0000000000000000e+00 0.0000000000000000e+00 0.0000000000000000e+00 0.0000000000000000e+00  -4.3751738075249653e+00 -1.0878924260019678e+01 0.0000000000000000e+00 -1.0878924260019433e+01 3.5686354602142037e+03 0.0000000000000000e+00 0.0000000000000000e+00 0.0000000000000000e+00 0.0000000000000000e+00  1.8974848602103865e+01 -3.5305465946913316e+01 0.0000000000000000e+00 -3.5305465946913309e+01 3.3290985321696430e+03 0.0000000000000000e+00 0.0000000000000000e+00 0.0000000000000000e+00 0.0000000000000000e+00  -9.3483387155538864e+00 -2.2443232599355660e+01 0.0000000000000000e+00 -2.2443232599355763e+01 3.0101339268634570e+03 0.0000000000000000e+00 0.0000000000000000e+00 0.0000000000000000e+00 0.0000000000000000e+00  1.9953862303568275e+01 -1.0647022894652800e+02 0.0000000000000000e+00 -1.0647022894652797e+02 2.4721871530531198e+03 0.0000000000000000e+00 0.0000000000000000e+00 0.0000000000000000e+00 0.0000000000000000e+00  -3.6080461282366066e+01 -1.2055782599767288e+02 0.0000000000000000e+00 -1.2055782599767248e+02 1.6799989933741585e+03 0.0000000000000000e+00 0.0000000000000000e+00 0.0000000000000000e+00 0.0000000000000000e+00  1.3676410820637361e+02 -1.4287147101796984e+02 0.0000000000000000e+00 -1.4287147101796958e+02 6.0372408107480339e+02 0.0000000000000000e+00 0.0000000000000000e+00 0.0000000000000000e+00 0.0000000000000000e+00  -3.4340760081084984e+00 1.9354752492588662e-01 0.0000000000000000e+00 1.9354752492588365e-01 4.1005753168805404e+03 0.0000000000000000e+00 0.0000000000000000e+00 0.0000000000000000e+00 0.0000000000000000e+00  -1.7476070790643345e+01 3.9785802467374398e-02 0.0000000000000000e+00 3.9785802467385029e-02 4.1275528565667091e+03 0.0000000000000000e+00 0.0000000000000000e+00 0.0000000000000000e+00 0.0000000000000000e+00  -3.8621756530486273e+01 1.1012446108975134e+00 0.0000000000000000e+00 1.1012446108975236e+00 4.1682410664163071e+03 0.0000000000000000e+00 0.0000000000000000e+00 0.0000000000000000e+00 0.0000000000000000e+00  -6.3437822883093801e+01 1.5618517635825768e-01 0.0000000000000000e+00 1.5618517635826204e-01 4.2147897596285675e+03 0.0000000000000000e+00 0.0000000000000000e+00 0.0000000000000000e+00 0.0000000000000000e+00  -8.5043364291829093e+01 1.5615751612860078e+00 0.0000000000000000e+00 1.5615751612859987e+00 4.2717755247484001e+03 0.0000000000000000e+00 0.0000000000000000e+00 0.0000000000000000e+00 0.0000000000000000e+00  -1.0726170885675349e+02 -9.0743272555802626e-02 0.0000000000000000e+00 -9.0743272555783558e-02 4.3272002802862789e+03 0.0000000000000000e+00 0.0000000000000000e+00 0.0000000000000000e+00 0.0000000000000000e+00  -1.2901688863836134e+02 3.1007099298683144e-02 0.0000000000000000e+00 3.1007099298691977e-02 4.3748803813386521e+03 0.0000000000000000e+00 0.0000000000000000e+00 0.0000000000000000e+00 0.0000000000000000e+00  -1.3976158133097994e+02 -3.7884815462549887e-01 0.0000000000000000e+00 -3.7884815462549221e-01 4.4265022155458200e+03 0.0000000000000000e+00 0.0000000000000000e+00 0.0000000000000000e+00 0.0000000000000000e+00  -1.5019328803725219e+02 1.5684022757464253e-01 0.0000000000000000e+00 1.5684022757464172e-01 4.4592368160561455e+03 0.0000000000000000e+00 0.0000000000000000e+00 0.0000000000000000e+00 0.0000000000000000e+00  -1.5653509346639115e+02 -4.8214157500541777e-01 0.0000000000000000e+00 -4.8214157500541960e-01 4.4913677200387547e+03 0.0000000000000000e+00 0.0000000000000000e+00 0.0000000000000000e+00 0.0000000000000000e+00  -1.5756800947510817e+02 -4.2687663307092688e-01 0.0000000000000000e+00 -4.2687663307092666e-01 4.5156556960912712e+03 0.0000000000000000e+00 0.0000000000000000e+00 0.0000000000000000e+00 0.0000000000000000e+00  -1.5592522736794865e+02 -7.3028514369739639e-01 0.0000000000000000e+00 -7.3028514369739628e-01 4.5322825329737207e+03 0.0000000000000000e+00 0.0000000000000000e+00 0.0000000000000000e+00 0.0000000000000000e+00  -1.5213436589699839e+02 -4.5913072622237283e-01 0.0000000000000000e+00 -4.5913072622237555e-01 4.5441239081681733e+03 0.0000000000000000e+00 0.0000000000000000e+00 0.0000000000000000e+00 0.0000000000000000e+00  -1.4725180097174626e+02 -3.4168220569526669e-01 0.0000000000000000e+00 -3.4168220569527030e-01 4.5515163415554180e+03 0.0000000000000000e+00 0.0000000000000000e+00 0.0000000000000000e+00 0.0000000000000000e+00  -1.4101124232449041e+02 -4.0299359967860887e-01 0.0000000000000000e+00 -4.0299359967860854e-01 4.5545738431246264e+03 0.0000000000000000e+00 0.0000000000000000e+00 0.0000000000000000e+00 0.0000000000000000e+00  -1.3461993268665185e+02 -4.7888251505575796e-01 0.0000000000000000e+00 -4.7888251505575896e-01 4.5547903623016055e+03 0.0000000000000000e+00 0.0000000000000000e+00 0.0000000000000000e+00 0.0000000000000000e+00  -1.2842581184145112e+02 -2.9154184941423117e-01 0.0000000000000000e+00 -2.9154184941422651e-01 4.5521655682869450e+03 0.0000000000000000e+00 0.0000000000000000e+00 0.0000000000000000e+00 0.0000000000000000e+00  -1.2239969857788928e+02 -3.2467225081458889e-01 0.0000000000000000e+00 -3.2467225081459128e-01 4.5478744030307053e+03 0.0000000000000000e+00 0.0000000000000000e+00 0.0000000000000000e+00 0.0000000000000000e+00  -1.1684218010003643e+02 -1.7873647917488178e-01 0.0000000000000000e+00 -1.7873647917488833e-01 4.5418314659737143e+03 0.0000000000000000e+00 0.0000000000000000e+00 0.0000000000000000e+00 0.0000000000000000e+00  -1.1164782391283066e+02 -1.4629925506518918e-01 0.0000000000000000e+00 -1.4629925506518709e-01 4.5341460368059334e+03 0.0000000000000000e+00 0.0000000000000000e+00 0.0000000000000000e+00 0.0000000000000000e+00  -1.0702363427091791e+02 -8.0000263396516169e-02 0.0000000000000000e+00 -8.0000263396516294e-02 4.5253338535954645e+03 0.0000000000000000e+00 0.0000000000000000e+00 0.0000000000000000e+00 0.0000000000000000e+00  -1.0248883709496604e+02 -4.2693518442346347e-02 0.0000000000000000e+00 -4.2693518442345250e-02 4.5153983089732856e+03 0.0000000000000000e+00 0.0000000000000000e+00 0.0000000000000000e+00 0.0000000000000000e+00  -9.8522732683330673e+01 -1.0755559101422861e-02 0.0000000000000000e+00 -1.0755559101421860e-02 4.5040145117982192e+03 0.0000000000000000e+00 0.0000000000000000e+00 0.0000000000000000e+00 0.0000000000000000e+00  -9.4158389002318700e+01 -2.9953700868567773e-02 0.0000000000000000e+00 -2.9953700868565129e-02 4.4914898785492605e+03 0.0000000000000000e+00 0.0000000000000000e+00 0.0000000000000000e+00 0.0000000000000000e+00  -9.0174419278965658e+01 -5.9912263944840442e-02 0.0000000000000000e+00 -5.9912263944841955e-02 4.4778370167407402e+03 0.0000000000000000e+00 0.0000000000000000e+00 0.0000000000000000e+00 0.0000000000000000e+00  -8.5533039856688319e+01 7.4125041532896827e-02 0.0000000000000000e+00 7.4125041532896965e-02 4.4627527075205699e+03 0.0000000000000000e+00 0.0000000000000000e+00 0.0000000000000000e+00 0.0000000000000000e+00  -8.0609938115058853e+01 -3.4374343393157189e-02 0.0000000000000000e+00 -3.4374343393156426e-02 4.4458558961172894e+03 0.0000000000000000e+00 0.0000000000000000e+00 0.0000000000000000e+00 0.0000000000000000e+00  -7.5254030215769347e+01 9.1031701894424777e-02 0.0000000000000000e+00 9.1031701894423278e-02 4.4280548827536959e+03 0.0000000000000000e+00 0.0000000000000000e+00 0.0000000000000000e+00 0.0000000000000000e+00  -6.9029774445985112e+01 1.1936135474087670e-01 0.0000000000000000e+00 1.1936135474087470e-01 4.4092827390224375e+03 0.0000000000000000e+00 0.0000000000000000e+00 0.0000000000000000e+00 0.0000000000000000e+00  -6.2599163303684243e+01 9.1273562768915042e-03 0.0000000000000000e+00 9.1273562768920385e-03 4.3882570755392426e+03 0.0000000000000000e+00 0.0000000000000000e+00 0.0000000000000000e+00 0.0000000000000000e+00  -5.4910697908512347e+01 -7.0714002299615303e-02 0.0000000000000000e+00 -7.0714002299620202e-02 4.3676064414955190e+03 0.0000000000000000e+00 0.0000000000000000e+00 0.0000000000000000e+00 0.0000000000000000e+00  -4.7534107410973775e+01 -1.3056550933942154e-01 0.0000000000000000e+00 -1.3056550933942049e-01 4.3451287249250463e+03 0.0000000000000000e+00 0.0000000000000000e+00 0.0000000000000000e+00 0.0000000000000000e+00  -3.8916407029751262e+01 -4.7923283985226696e-02 0.0000000000000000e+00 -4.7923283985232788e-02 4.3232937819373692e+03 0.0000000000000000e+00 0.0000000000000000e+00 0.0000000000000000e+00 0.0000000000000000e+00  -3.0663852113543555e+01 -1.9230051457456532e-01 0.0000000000000000e+00 -1.9230051457456232e-01 4.3028448995220069e+03 0.0000000000000000e+00 0.0000000000000000e+00 0.0000000000000000e+00 0.0000000000000000e+00  -2.2521153521479114e+01 -6.8605371299099840e-02 0.0000000000000000e+00 -6.8605371299104684e-02 4.2825847954877572e+03 0.0000000000000000e+00 0.0000000000000000e+00 0.0000000000000000e+00 0.0000000000000000e+00  -1.5172751252049332e+01 -3.0591850467450141e-02 0.0000000000000000e+00 -3.0591850467448122e-02 4.2633427703291027e+03 0.0000000000000000e+00 0.0000000000000000e+00 0.0000000000000000e+00 0.0000000000000000e+00  -8.8798435553848325e+00 -7.6341636828267820e-02 0.0000000000000000e+00 -7.6341636828266904e-02 4.2471982025909938e+03 0.0000000000000000e+00 0.0000000000000000e+00 0.0000000000000000e+00 0.0000000000000000e+00  -4.0352997710185701e+00 5.7087436921765419e-02 0.0000000000000000e+00 5.7087436921771220e-02 4.2337228056283484e+03 0.0000000000000000e+00 0.0000000000000000e+00 0.0000000000000000e+00 0.0000000000000000e+00  -5.6416159524751819e-01 1.1981732268921953e-01 0.0000000000000000e+00 1.1981732268921816e-01 4.2243355701138644e+03 0.0000000000000000e+00 0.0000000000000000e+00 0.0000000000000000e+00 0.0000000000000000e+00  1.1911641424918811e+02 5.4779280390465651e+01 0.0000000000000000e+00 5.4779280390466120e+01 4.6949021504069117e+02 0.0000000000000000e+00 0.0000000000000000e+00 0.0000000000000000e+00 0.0000000000000000e+00  8.6499201216599587e+01 1.0615489296433543e+02 0.0000000000000000e+00 1.0615489296433515e+02 1.7640434496394116e+03 0.0000000000000000e+00 0.0000000000000000e+00 0.0000000000000000e+00 0.0000000000000000e+00  -2.6853497436732805e+01 2.5114840516603156e+01 0.0000000000000000e+00 2.5114840516603234e+01 2.4880410162011544e+03 0.0000000000000000e+00 0.0000000000000000e+00 0.0000000000000000e+00 0.0000000000000000e+00  4.8472859202929868e+01 4.9112403820299278e+01 0.0000000000000000e+00 4.9112403820299498e+01 3.0809448775826086e+03 0.0000000000000000e+00 0.0000000000000000e+00 0.0000000000000000e+00 0.0000000000000000e+00  -1.1323663312984472e+01 -3.1948181599433805e+00 0.0000000000000000e+00 -3.1948181599432113e+00 3.3637219944717344e+03 0.0000000000000000e+00 0.0000000000000000e+00 0.0000000000000000e+00 0.0000000000000000e+00  1.8000700699656630e+01 1.9943973669145425e+01 0.0000000000000000e+00 1.9943973669145450e+01 3.6085301125725523e+03 0.0000000000000000e+00 0.0000000000000000e+00 0.0000000000000000e+00 0.0000000000000000e+00  -3.6299699968979984e+00 1.0324107252195999e+01 0.0000000000000000e+00 1.0324107252195981e+01 3.7602976591413681e+03 0.0000000000000000e+00 0.0000000000000000e+00 0.0000000000000000e+00 0.0000000000000000e+00  2.2862512793633298e+00 1.1837896880433366e+01 0.0000000000000000e+00 1.1837896880433348e+01 3.8539863335870250e+03 0.0000000000000000e+00 0.0000000000000000e+00 0.0000000000000000e+00 0.0000000000000000e+00  1.5375277878568692e+00 6.3756142048577429e+00 0.0000000000000000e+00 6.3756142048577580e+00 3.9492425776437813e+03 0.0000000000000000e+00 0.0000000000000000e+00 0.0000000000000000e+00 0.0000000000000000e+00  2.3843665339429854e+00 4.8678585083916293e+00 0.0000000000000000e+00 4.8678585083916532e+00 4.0039946816445276e+03 0.0000000000000000e+00 0.0000000000000000e+00 0.0000000000000000e+00 0.0000000000000000e+00  -1.3730355145647208e+00 5.0014484889423894e-01 0.0000000000000000e+00 5.0014484889426869e-01 4.0467511543643068e+03 0.0000000000000000e+00 0.0000000000000000e+00 0.0000000000000000e+00 0.0000000000000000e+00  2.3403168232648617e+00 2.0942002205394310e+00 0.0000000000000000e+00 2.0942002205394270e+00 4.0694228818312431e+03 0.0000000000000000e+00 0.0000000000000000e+00 0.0000000000000000e+00 0.0000000000000000e+00  -6.2024540557697916e-01 4.5971790363692328e-01 0.0000000000000000e+00 4.5971790363692694e-01 4.0892744019773622e+03 0.0000000000000000e+00 0.0000000000000000e+00 0.0000000000000000e+00 0.0000000000000000e+00  9.0885390091048566e+02 7.3982531044038353e+02 0.0000000000000000e+00 7.3982531044038330e+02 5.3841735652072157e+02 0.0000000000000000e+00 0.0000000000000000e+00 0.0000000000000000e+00 0.0000000000000000e+00  2.5623831346436691e+03 3.3238015169628334e+03 0.0000000000000000e+00 3.3238015169628302e+03 5.6684276217674387e+03 0.0000000000000000e+00 0.0000000000000000e+00 0.0000000000000000e+00 0.0000000000000000e+00  9.7116740619519589e+02 2.3829629019229428e+03 0.0000000000000000e+00 2.3829629019229428e+03 1.1897379151046996e+04 0.0000000000000000e+00 0.0000000000000000e+00 0.0000000000000000e+00 0.0000000000000000e+00  1.5984375217631916e+03 -1.6272310163811198e+03 0.0000000000000000e+00 -1.6272310163811214e+03 1.1280934039559026e+04 0.0000000000000000e+00 0.0000000000000000e+00 0.0000000000000000e+00 0.0000000000000000e+00  1.7067557414191986e+03 -3.3373820588483663e+03 0.0000000000000000e+00 -3.3373820588483668e+03 5.6863932087083485e+03 0.0000000000000000e+00 0.0000000000000000e+00 0.0000000000000000e+00 0.0000000000000000e+00  9.4210691856397807e+02 -9.2987237328034939e+02 0.0000000000000000e+00 -9.2987237328034701e+02 7.9626600595485297e+02 0.0000000000000000e+00 0.0000000000000000e+00 0.0000000000000000e+00 0.0000000000000000e+00  4.9813550902926440e-02 -2.4063290478611293e-01 0.0000000000000000e+00 -2.4063290478611390e-01 4.2196674367585638e+03 0.0000000000000000e+00 0.0000000000000000e+