<?xml version="1.0"?>
<VTKFile type="UnstructuredGrid"  version="0.1"  >
<UnstructuredGrid>
<Piece  NumberOfPoints="2165" NumberOfCells="4161">
<Points>
<DataArray  type="Float64"  NumberOfComponents="3"  format="ascii">-3.598637933768527e-16 0.3500000000000001 0  0.05 0.4 0  -3.537405593811159e-16 0.45 0  0 1 0  1 1 0  0.9999999999999997 0.65 0  0.9999999999999997 0.5499999999999999 0  1 0 0  0 0 0  0.0191341716182545 0.3538060233744357 0  0.03535533905932737 0.3646446609406727 0  0.04619397662556433 0.3808658283817455 0  0.04619397662556434 0.4191341716182545 0  0.03535533905932738 0.4353553390593274 0  0.01913417161825449 0.4461939766255644 0  0 0.975 0  0 0.95 0  0 0.9249999999999999 0  0 0.8999999999999998 0  0 0.8749999999999998 0  0 0.8499999999999998 0  0 0.8249999999999997 0  0 0.7999999999999996 0  0 0.7749999999999996 0  0 0.7499999999999996 0  0 0.7249999999999996 0  0 0.6999999999999997 0  0 0.6749999999999998 0  0 0.6499999999999999 0  0 0.6249999999999999 0  0 0.6 0  0 0.575 0  0 0.5499999999999998 0  0 0.5249999999999999 0  0 0.4999999999999998 0  0 0.4749999999999999 0  0.975 1 0  0.95 1 0  0.925 1 0  0.9 1 0  0.875 1 0  0.85 1 0  0.825 1 0  0.8 1 0  0.775 1 0  0.75 1 0  0.725 1 0  0.7 1 0  0.675 1 0  0.65 1 0  0.625 1 0  0.6 1 0  0.575 1 0  0.55 1 0  0.525 1 0  0.5 1 0  0.475 1 0  0.45 1 0  0.425 1 0  0.4 1 0  0.375 1 0  0.35 1 0  0.325 1 0  0.3 1 0  0.275 1 0  0.25 1 0  0.225 1 0  0.2 1 0  0.175 1 0  0.15 1 0  0.125 1 0  0.09999999999999998 1 0  0.07499999999999996 1 0  0.05000000000000004 1 0  0.02500000000000002 1 0  1 0.675 0  1 0.7000000000000001 0  1 0.7250000000000001 0  1 0.7500000000000001 0  1 0.7750000000000001 0  1 0.8000000000000002 0  1 0.8250000000000002 0  1 0.8500000000000002 0  1 0.8750000000000003 0  1 0.9000000000000001 0  1 0.9250000000000002 0  1 0.9500000000000001 0  1 0.9750000000000001 0  0.9783058130441221 0.6450484433951209 0  0.9609084258765985 0.6311744900929367 0  0.9512536043909088 0.6111260466978157 0  0.9512536043909088 0.5888739533021843 0  0.9609084258765985 0.5688255099070633 0  0.9783058130441221 0.554951556604879 0  1 0.02500000000000002 0  1 0.05000000000000004 0  1 0.07500000000000008 0  1 0.1000000000000001 0  1 0.1250000000000001 0  1 0.1500000000000002 0  1 0.1750000000000002 0  1 0.2000000000000003 0  1 0.2250000000000003 0  1 0.2500000000000004 0  1 0.2750000000000004 0  1 0.3000000000000003 0  1 0.3250000000000002 0  1 0.3500000000000001 0  1 0.3750000000000001 0  1 0.3999999999999999 0  1 0.425 0  1 0.45 0  1 0.475 0  1 0.5000000000000001 0  1 0.5249999999999999 0  0.025 0 0  0.05 0 0  0.075 0 0  0.1 0 0  0.125 0 0  0.15 0 0  0.175 0 0  0.2 0 0  0.225 0 0  0.25 0 0  0.275 0 0  0.3 0 0  0.325 0 0  0.35 0 0  0.375 0 0  0.4 0 0  0.425 0 0  0.45 0 0  0.475 0 0  0.5 0 0  0.525 0 0  0.55 0 0  0.575 0 0  0.6 0 0  0.625 0 0  0.65 0 0  0.675 0 0  0.7 0 0  0.725 0 0  0.75 0 0  0.775 0 0  0.8 0 0  0.825 0 0  0.85 0 0  0.875 0 0  0.9 0 0  0.925 0 0  0.95 0 0  0.975 0 0  0 0.3250000000000001 0  0 0.3 0  0 0.275 0  0 0.2499999999999999 0  0 0.2249999999999999 0  0 0.1999999999999998 0  0 0.1749999999999998 0  0 0.1499999999999998 0  0 0.1249999999999998 0  0 0.09999999999999987 0  0 0.07499999999999984 0  0 0.04999999999999993 0  0 0.02500000000000002 0  0.06453325334544308 0.4134708543086404 0  0.5146839915088474 0.02134387884913819 0  0.4875871001393628 0.9784117024331356 0  0.9386300160094723 0.5701776715936071 0  0.0216506350946109 0.6124999999999999 0  0.9764205887290853 0.3596067946540696 0  0.3876261045932067 0.02156097490657183 0  0.6125 0.978349364905389 0  0.3612127461797463 0.9792371404802113 0  0.6374786650398092 0.02079982608537345 0  0.9387185538472446 0.6295115890709873 0  0.05482260092545593 0.3633687091864355 0  0.02445354803948679 0.7343198207875321 0  0.2624888813627476 0.02091671348578122 0  0.7375212991274043 0.9794996488945376 0  0.9793010831723812 0.2648509348664836 0  0.2625026480689301 0.9795699185263282 0  0.7362840788105066 0.02225211062275217 0  0.02159327910297104 0.2128861809896528 0  0.9786837570973538 0.7867241244631172 0  0.02419728000065929 0.8365600234152764 0  0.980043283615984 0.1624097203408714 0  0.1645857434226354 0.0205513501962844 0  0.8339481359352011 0.9784483546369231 0  0.1637584777222821 0.9774556328160621 0  0.8374916614314967 0.02165097219510076 0  0.02171915379676059 0.5370700005916152 0  0.9795335762511281 0.4365726939225819 0  0.02319480745007968 0.1370197632171214 0  0.9774462976085161 0.8592616917551974 0  0.9786941241076723 0.7122511101067891 0  0.9797883857882621 0.08781864217752949 0  0.01966314788989931 0.9125801876811624 0  0.02051815350151098 0.2882126194470174 0  0.09063226699593246 0.0214884092697174 0  0.9124408843562394 0.9818463395009377 0  0.03872465516591678 0.452731089005145 0  0.08969424365256845 0.978412979507602 0  0.9124999999999999 0.02165063509461096 0  0.02158104789437187 0.6619299176372371 0  0.9796602354625652 0.4859004208706154 0  0.3127517983598529 0.02417963694738812 0  0.4375629605000894 0.02158039900821679 0  0.5643674594196073 0.01968996000301126 0  0.5368361594956101 0.9790428840407062 0  0.4376176251051295 0.9783667484208922 0  0.6874072695660477 0.978435143102373 0  0.310604317388614 0.979558305560928 0  0.2125577044121564 0.02066685543111635 0  0.6875 0.0216506350946109 0  0.02224009810917643 0.08811420611559456 0  0.790876428529276 0.978633065284896 0  0.2125 0.978349364905389 0  0.9788033534786624 0.2116925349935155 0  0.9769441169344462 0.3150381335760689 0  0.9804648376981185 0.9123186437266726 0  0.7874999988222203 0.02127957051165741 0  0.02109233852270731 0.786866823287435 0  0.9483709287873718 0.5504073206521916 0  0.9259842326464427 0.5519702047534598 0  0.9163209045278007 0.5719292915927929 0  0.9035374059862284 0.5537291796040291 0  0.8938951918780048 0.5738949757882954 0  0.8807940177559743 0.5546750869516996 0  0.8712661812741653 0.5757142549099102 0  0.8580668865514332 0.5563902430113601 0  0.848508161986991 0.5779004013072002 0  0.8354274200119249 0.5591176379057713 0  0.8256349826905482 0.5800610629400762 0  0.8124123591208572 0.5604454546391737 0  0.802603410938817 0.5819653950592523 0  0.7892876429890218 0.562234610648543 0  0.7794355871850538 0.583896242519796 0  0.7661469824381839 0.5648243426306435 0  0.7562387679604726 0.5860005456930413 0  0.7429651600512166 0.5669367633461588 0  0.7330846968880171 0.5879590907760761 0  0.7198577999459205 0.5688986880627463 0  0.7297050500533544 0.5479561801187277 0  0.7066243396993471 0.5499068108517552 0  0.6968285086900206 0.5707989520567972 0  0.6836266810714333 0.5519088927359967 0  0.6738604685766018 0.5727655091567184 0  0.6607284761452521 0.5538781923028128 0  0.6697149783704412 0.5321140554135094 0  0.6473436039782401 0.5350050604671006 0  0.6378867365666199 0.5557804038095817 0  0.6246915360243652 0.5362124690568238 0  0.6151175309583405 0.5575933164645619 0  0.6019784180102355 0.5380659376543677 0  0.5924099113505394 0.5593739656462906 0  0.5794110962027638 0.541110021814312 0  0.5697985396917309 0.5614600003719357 0  0.5568468707330213 0.5433212932327446 0  0.5472634011377896 0.5635652141280936 0  0.5343236363495072 0.5451361960661517 0  0.5247877773262166 0.565493591892781 0  0.5118927934227436 0.5470665328397559 0  0.5023398230005425 0.5674381114577953 0  0.5213991904098014 0.5267047787870831 0  0.4990390504096661 0.528649139287786 0  0.6328887517229864 0.5131744321062524 0  0.5085133205790763 0.5083322037773296 0  0.4861972978925295 0.5102540920324363 0  0.4956914791804768 0.4899605513008993 0  0.4734139980312694 0.4918582759645476 0  0.4826986629698439 0.4717164019717278 0  0.460570567761715 0.473509155475794 0  0.4699344541058981 0.4533140529328089 0  0.4477087341565655 0.4550973130597117 0  0.4381733274019614 0.4752901381741884 0  0.4570222843287571 0.4349938694701042 0  0.4348599018247688 0.436728068420533 0  0.5604623134382263 0.581815997002507 0  0.4443612964408632 0.416499823314016 0  0.422056299386984 0.4183730429856528 0  0.4688721528228815 0.4135009841763965 0  0.4315584877924544 0.398120546824229 0  0.4092288692044618 0.3999974286008185 0  0.7463210599443056 0.6070829843371945 0  0.4187270626688335 0.3797365044773463 0  0.3964262302393312 0.3817184136470017 0  0.3869780036193907 0.4018498778543814 0  0.3742423843122406 0.3837055716372927 0  0.3648701490102072 0.4037049758807119 0  0.3518115403926748 0.3858985036587403 0  0.3426146276710081 0.4056777495658291 0  0.3614541441355358 0.3656396497906528 0  0.339026673715919 0.3678724679736439 0  0.3485566370135618 0.3476560889674916 0  0.3264681821394378 0.3496422822523857 0  0.8219942777991693 0.5379143061758643 0  0.3358297439968608 0.3295117748868035 0  0.3137050884585635 0.3314921667582986 0  0.3229980644152205 0.3113561769498422 0  0.3007986024336577 0.3133063832007756 0  0.3441851868720173 0.3085211458266175 0  0.3101966551534752 0.2930273704914169 0  0.287793053707373 0.2950088132226583 0  0.2914417217227097 0.3337427541189321 0  0.2975120686695638 0.2743682539701985 0  0.274864585256681 0.2764253296978281 0  0.816026571618698 0.6006851919544112 0  0.2844672854128698 0.2557011565880619 0  0.2617267434509338 0.2577713002235077 0  0.3072711221189672 0.2536790056475094 0  0.2521588568690318 0.2785072139143895 0  0.2389277409161178 0.2598761196336353 0  0.248448076747058 0.2389478879785275 0  0.5053822153261678 0.4716915524631118 0  0.229548765875869 0.2806542761043101 0  0.2254561407802683 0.2411354049374563 0  0.2350621310805047 0.2199181955146378 0  0.2117782450160163 0.222165061041625 0  0.2214249125635323 0.2008136877065064 0  0.2448758256083499 0.1985732693215908 0  0.197966291680556 0.2031211006951591 0  0.1883147493074436 0.2245564097761413 0  0.8910637266939049 0.5322898364209732 0  0.1748136087708587 0.2051141748992724 0  0.1842088801696792 0.1837087814679069 0  0.1656574100807746 0.2269812054689968 0  0.3554582346764377 0.4236292557112198 0  0.3328979939923831 0.425459320867588 0  0.3460368767112177 0.4435398346083328 0  0.3238464003
[...]
<PointData  Tensors="$\sigma$"> 
<DataArray  type="Float64"  Name="$\sigma$"  NumberOfComponents="9" format="ascii">-3.8260432992254590e+02 -4.6637526851714756e+02 0.0000000000000000e+00 -4.6637526851714870e+02 -1.1271789427705457e+03 0.0000000000000000e+00 0.0000000000000000e+00 0.0000000000000000e+00 0.0000000000000000e+00  3.1406158464084947e+03 1.6390260785997999e+01 0.0000000000000000e+00 1.6390260785996340e+01 1.4801155272398306e+04 0.0000000000000000e+00 0.0000000000000000e+00 0.0000000000000000e+00 0.0000000000000000e+00  -2.9677860313905228e+02 5.8736816033821799e+02 0.0000000000000000e+00 5.8736816033821742e+02 -1.1852120935232624e+03 0.0000000000000000e+00 0.0000000000000000e+00 0.0000000000000000e+00 0.0000000000000000e+00  8.4389524654306713e-02 1.1414288133930719e+00 0.0000000000000000e+00 1.1414288133930723e+00 7.2098544572632300e+03 0.0000000000000000e+00 0.0000000000000000e+00 0.0000000000000000e+00 0.0000000000000000e+00  2.2536401231573295e+00 7.0692638127506063e-02 0.0000000000000000e+00 7.0692638127513155e-02 6.9786280261706434e+03 0.0000000000000000e+00 0.0000000000000000e+00 0.0000000000000000e+00 0.0000000000000000e+00  -4.3528155192458183e+02 -4.6709359711302216e+02 0.0000000000000000e+00 -4.6709359711302085e+02 -1.3953478930855320e+02 0.0000000000000000e+00 0.0000000000000000e+00 0.0000000000000000e+00 0.0000000000000000e+00  2.3835125232242348e+02 -1.9091014725924822e+02 0.0000000000000000e+00 -1.9091014725924759e+02 2.5469546862040738e+02 0.0000000000000000e+00 0.0000000000000000e+00 0.0000000000000000e+00 0.0000000000000000e+00  1.8773998672628248e-01 1.5481183749065375e-01 0.0000000000000000e+00 1.5481183749065830e-01 7.2213771114332358e+03 0.0000000000000000e+00 0.0000000000000000e+00 0.0000000000000000e+00 0.0000000000000000e+00  2.1350086516149404e+03 8.6028990576413958e+02 0.0000000000000000e+00 8.6028990576414014e+02 7.5544441000391434e+03 0.0000000000000000e+00 0.0000000000000000e+00 0.0000000000000000e+00 0.0000000000000000e+00  9.9517948874002616e+02 8.1874155714561073e+02 0.0000000000000000e+00 8.1874155714561300e+02 7.3952517202430931e+02 0.0000000000000000e+00 0.0000000000000000e+00 0.0000000000000000e+00 0.0000000000000000e+00  3.7603383213578068e+03 4.5105427564649199e+03 0.0000000000000000e+00 4.5105427564649190e+03 5.0943385000714106e+03 0.0000000000000000e+00 0.0000000000000000e+00 0.0000000000000000e+00 0.0000000000000000e+00  3.9192248004544290e+03 4.6336183752203970e+03 0.0000000000000000e+00 4.6336183752203960e+03 1.2725837231491998e+04 0.0000000000000000e+00 0.0000000000000000e+00 0.0000000000000000e+00 0.0000000000000000e+00  3.9359235882610697e+03 -4.5819355484764183e+03 0.0000000000000000e+00 -4.5819355484764183e+03 1.2767484695372770e+04 0.0000000000000000e+00 0.0000000000000000e+00 0.0000000000000000e+00 0.0000000000000000e+00  3.7950712240317189e+03 -4.4408626534728046e+03 0.0000000000000000e+00 -4.4408626534728091e+03 5.4008284358166720e+03 0.0000000000000000e+00 0.0000000000000000e+00 0.0000000000000000e+00 0.0000000000000000e+00  9.4556510876138043e+02 -9.3878806091020806e+02 0.0000000000000000e+00 -9.3878806091021045e+02 6.5151621796833365e+02 0.0000000000000000e+00 0.0000000000000000e+00 0.0000000000000000e+00 0.0000000000000000e+00  1.7191789517377964e-01 -2.9957625598889959e-01 0.0000000000000000e+00 -2.9957625598889964e-01 7.2065813281183664e+03 0.0000000000000000e+00 0.0000000000000000e+00 0.0000000000000000e+00 0.0000000000000000e+00  -8.2989048022774875e-02 -9.9086245190255540e-01 0.0000000000000000e+00 -9.9086245190254729e-01 7.2002069780297370e+03 0.0000000000000000e+00 0.0000000000000000e+00 0.0000000000000000e+00 0.0000000000000000e+00  7.3224237258226621e-01 -1.1725945670263864e+00 0.0000000000000000e+00 -1.1725945670263966e+00 7.1901924616254300e+03 0.0000000000000000e+00 0.0000000000000000e+00 0.0000000000000000e+00 0.0000000000000000e+00  -5.1939098933393169e-01 -8.3796237338054291e-01 0.0000000000000000e+00 -8.3796237338053781e-01 7.1745731252451978e+03 0.0000000000000000e+00 0.0000000000000000e+00 0.0000000000000000e+00 0.0000000000000000e+00  5.4130160799858207e-01 -1.4436356238059265e+00 0.0000000000000000e+00 -1.4436356238059360e+00 7.1530754713886463e+03 0.0000000000000000e+00 0.0000000000000000e+00 0.0000000000000000e+00 0.0000000000000000e+00  1.2709095881137535e+00 -3.2866977312120000e+00 0.0000000000000000e+00 -3.2866977312120236e+00 7.1304963501517714e+03 0.0000000000000000e+00 0.0000000000000000e+00 0.0000000000000000e+00 0.0000000000000000e+00  4.5694821780497732e-02 -2.5476332587401851e+00 0.0000000000000000e+00 -2.5476332587401855e+00 7.0912379186418466e+03 0.0000000000000000e+00 0.0000000000000000e+00 0.0000000000000000e+00 0.0000000000000000e+00  -4.8344885175510871e-01 -3.2083475051701313e+00 0.0000000000000000e+00 -3.2083475051701265e+00 7.0530042888548460e+03 0.0000000000000000e+00 0.0000000000000000e+00 0.0000000000000000e+00 0.0000000000000000e+00  2.2164627769634326e+00 -5.0152779465814845e+00 0.0000000000000000e+00 -5.0152779465814552e+00 7.0055611155949045e+03 0.0000000000000000e+00 0.0000000000000000e+00 0.0000000000000000e+00 0.0000000000000000e+00  1.4213045234898460e+00 -7.0143615983376995e+00 0.0000000000000000e+00 -7.0143615983377332e+00 6.9475238211545302e+03 0.0000000000000000e+00 0.0000000000000000e+00 0.0000000000000000e+00 0.0000000000000000e+00  2.4017185597238848e+00 -8.8242779722067990e+00 0.0000000000000000e+00 -8.8242779722068505e+00 6.8488351060971254e+03 0.0000000000000000e+00 0.0000000000000000e+00 0.0000000000000000e+00 0.0000000000000000e+00  1.2588691399806793e+00 -1.4211837810444516e+01 0.0000000000000000e+00 -1.4211837810444488e+01 6.7816417647319513e+03 0.0000000000000000e+00 0.0000000000000000e+00 0.0000000000000000e+00 0.0000000000000000e+00  1.4887663008228333e+00 -1.0562205876042016e+01 0.0000000000000000e+00 -1.0562205876042075e+01 6.6339956723092300e+03 0.0000000000000000e+00 0.0000000000000000e+00 0.0000000000000000e+00 0.0000000000000000e+00  -3.0735527799694445e-01 -1.2586394768036069e+01 0.0000000000000000e+00 -1.2586394768036152e+01 6.4895289814961943e+03 0.0000000000000000e+00 0.0000000000000000e+00 0.0000000000000000e+00 0.0000000000000000e+00  1.5221494811586009e+01 -1.0213885430998792e+01 0.0000000000000000e+00 -1.0213885430998809e+01 6.2749017958831009e+03 0.0000000000000000e+00 0.0000000000000000e+00 0.0000000000000000e+00 0.0000000000000000e+00  -1.5287240785323014e+01 -1.3606294287278853e+01 0.0000000000000000e+00 -1.3606294287278692e+01 5.9916187877762086e+03 0.0000000000000000e+00 0.0000000000000000e+00 0.0000000000000000e+00 0.0000000000000000e+00  4.4650748157177922e+01 -6.0138628599828195e+01 0.0000000000000000e+00 -6.0138628599827818e+01 5.5635930439648573e+03 0.0000000000000000e+00 0.0000000000000000e+00 0.0000000000000000e+00 0.0000000000000000e+00  -2.1346078126447242e+01 -2.6554871298266669e+01 0.0000000000000000e+00 -2.6554871298267432e+01 4.9974213156036840e+03 0.0000000000000000e+00 0.0000000000000000e+00 0.0000000000000000e+00 0.0000000000000000e+00  2.3052849267160699e+01 -1.6300829153254068e+02 0.0000000000000000e+00 -1.6300829153254091e+02 4.0390685702861306e+03 0.0000000000000000e+00 0.0000000000000000e+00 0.0000000000000000e+00 0.0000000000000000e+00  -1.9477425006928495e+01 -1.9703180220717167e+02 0.0000000000000000e+00 -1.9703180220716996e+02 2.7381811724956815e+03 0.0000000000000000e+00 0.0000000000000000e+00 0.0000000000000000e+00 0.0000000000000000e+00  1.8518602919440841e+02 -1.7104073074623190e+02 0.0000000000000000e+00 -1.7104073074623159e+02 9.2108510908722371e+02 0.0000000000000000e+00 0.0000000000000000e+00 0.0000000000000000e+00 0.0000000000000000e+00  -6.5079377970921852e+00 3.5960212247391116e-01 0.0000000000000000e+00 3.5960212247389894e-01 6.9974431424954055e+03 0.0000000000000000e+00 0.0000000000000000e+00 0.0000000000000000e+00 0.0000000000000000e+00  -3.2402560446272588e+01 -1.2056224503604693e-01 0.0000000000000000e+00 -1.2056224503600246e-01 7.0483460909239893e+03 0.0000000000000000e+00 0.0000000000000000e+00 0.0000000000000000e+00 0.0000000000000000e+00  -7.1926670959329172e+01 1.9951922088696963e+00 0.0000000000000000e+00 1.9951922088696927e+00 7.1259811038741791e+03 0.0000000000000000e+00 0.0000000000000000e+00 0.0000000000000000e+00 0.0000000000000000e+00  -1.1780352835655340e+02 1.3126647660075724e-01 0.0000000000000000e+00 1.3126647660075189e-01 7.2137018911257765e+03 0.0000000000000000e+00 0.0000000000000000e+00 0.0000000000000000e+00 0.0000000000000000e+00  -1.5852868419776533e+02 2.5600493782706248e+00 0.0000000000000000e+00 2.5600493782706275e+00 7.3198196584476309e+03 0.0000000000000000e+00 0.0000000000000000e+00 0.0000000000000000e+00 0.0000000000000000e+00  -2.0044421340159272e+02 -1.5900408721495590e-01 0.0000000000000000e+00 -1.5900408721495068e-01 7.4238000258570773e+03 0.0000000000000000e+00 0.0000000000000000e+00 0.0000000000000000e+00 0.0000000000000000e+00  -2.4049115319581125e+02 1.3000015522438185e-01 0.0000000000000000e+00 1.3000015522439931e-01 7.5138809643558179e+03 0.0000000000000000e+00 0.0000000000000000e+00 0.0000000000000000e+00 0.0000000000000000e+00  -2.6132264534291642e+02 -6.1270728766020199e-01 0.0000000000000000e+00 -6.1270728766020854e-01 7.6102547430276200e+03 0.0000000000000000e+00 0.0000000000000000e+00 0.0000000000000000e+00 0.0000000000000000e+00  -2.8099312120818183e+02 2.7030586766126530e-01 0.0000000000000000e+00 2.7030586766127807e-01 7.6722298931642126e+03 0.0000000000000000e+00 0.0000000000000000e+00 0.0000000000000000e+00 0.0000000000000000e+00  -2.9296143084378264e+02 -8.3667449703300056e-01 0.0000000000000000e+00 -8.3667449703299934e-01 7.7330275175101169e+03 0.0000000000000000e+00 0.0000000000000000e+00 0.0000000000000000e+00 0.0000000000000000e+00  -2.9523504627638511e+02 -5.6082334822760416e-01 0.0000000000000000e+00 -5.6082334822760449e-01 7.7785281726307894e+03 0.0000000000000000e+00 0.0000000000000000e+00 0.0000000000000000e+00 0.0000000000000000e+00  -2.9243592127484033e+02 -1.3067356123221301e+00 0.0000000000000000e+00 -1.3067356123221332e+00 7.8100702275429439e+03 0.0000000000000000e+00 0.0000000000000000e+00 0.0000000000000000e+00 0.0000000000000000e+00  -2.8556272326563919e+02 -7.7450479414215767e-01 0.0000000000000000e+00 -7.7450479414216655e-01 7.8323423100021555e+03 0.0000000000000000e+00 0.0000000000000000e+00 0.0000000000000000e+00 0.0000000000000000e+00  -2.7664158765290546e+02 -4.2522505338361988e-01 0.0000000000000000e+00 -4.2522505338362360e-01 7.8463084434267685e+03 0.0000000000000000e+00 0.0000000000000000e+00 0.0000000000000000e+00 0.0000000000000000e+00  -2.6516595240913438e+02 -6.3883892680185717e-01 0.0000000000000000e+00 -6.3883892680184440e-01 7.8521556451161914e+03 0.0000000000000000e+00 0.0000000000000000e+00 0.0000000000000000e+00 0.0000000000000000e+00  -2.5327360957171473e+02 -8.1651175914318375e-01 0.0000000000000000e+00 -8.1651175914318253e-01 7.8525753272503680e+03 0.0000000000000000e+00 0.0000000000000000e+00 0.0000000000000000e+00 0.0000000000000000e+00  -2.4192717594775408e+02 -3.8647386695444230e-01 0.0000000000000000e+00 -3.8647386695443853e-01 7.8475215128049776e+03 0.0000000000000000e+00 0.0000000000000000e+00 0.0000000000000000e+00 0.0000000000000000e+00  -2.3066052351339926e+02 -5.2879764720934863e-01 0.0000000000000000e+00 -5.2879764720934519e-01 7.8393848054220352e+03 0.0000000000000000e+00 0.0000000000000000e+00 0.0000000000000000e+00 0.0000000000000000e+00  -2.2042900776721189e+02 -2.4191117330889395e-01 0.0000000000000000e+00 -2.4191117330890444e-01 7.8278819705512151e+03 0.0000000000000000e+00 0.0000000000000000e+00 0.0000000000000000e+00 0.0000000000000000e+00  -2.1074636946633143e+02 -2.2560304204426823e-01 0.0000000000000000e+00 -2.2560304204427298e-01 7.8132080203187024e+03 0.0000000000000000e+00 0.0000000000000000e+00 0.0000000000000000e+00 0.0000000000000000e+00  -2.0216580029533091e+02 -1.0480845058558254e-01 0.0000000000000000e+00 -1.0480845058558098e-01 7.7963805187364751e+03 0.0000000000000000e+00 0.0000000000000000e+00 0.0000000000000000e+00 0.0000000000000000e+00  -1.9371842467924859e+02 -4.6321106185451801e-02 0.0000000000000000e+00 -4.6321106185442093e-02 7.7775124094962175e+03 0.0000000000000000e+00 0.0000000000000000e+00 0.0000000000000000e+00 0.0000000000000000e+00  -1.8631349249062382e+02 -2.8965195007833087e-02 0.0000000000000000e+00 -2.8965195007827078e-02 7.7557473750574582e+03 0.0000000000000000e+00 0.0000000000000000e+00 0.0000000000000000e+00 0.0000000000000000e+00  -1.7816411380275503e+02 -1.8631967067440275e-02 0.0000000000000000e+00 -1.8631967067445274e-02 7.7318362597564510e+03 0.0000000000000000e+00 0.0000000000000000e+00 0.0000000000000000e+00 0.0000000000000000e+00  -1.7069609481820171e+02 -9.3121837832114640e-02 0.0000000000000000e+00 -9.3121837832123688e-02 7.7056455949731935e+03 0.0000000000000000e+00 0.0000000000000000e+00 0.0000000000000000e+00 0.0000000000000000e+00  -1.6197392390069621e+02 1.5862004125142931e-01 0.0000000000000000e+00 1.5862004125144175e-01 7.6769021446098559e+03 0.0000000000000000e+00 0.0000000000000000e+00 0.0000000000000000e+00 0.0000000000000000e+00  -1.5268038324541450e+02 -8.2990541615944907e-02 0.0000000000000000e+00 -8.2990541615942603e-02 7.6446360730503193e+03 0.0000000000000000e+00 0.0000000000000000e+00 0.0000000000000000e+00 0.0000000000000000e+00  -1.4255910053737080e+02 2.0256692553741568e-01 0.0000000000000000e+00 2.0256692553741953e-01 7.6105668131096872e+03 0.0000000000000000e+00 0.0000000000000000e+00 0.0000000000000000e+00 0.0000000000000000e+00  -1.3085039568862430e+02 2.0701001751766782e-01 0.0000000000000000e+00 2.0701001751765538e-01 7.5746917577881468e+03 0.0000000000000000e+00 0.0000000000000000e+00 0.0000000000000000e+00 0.0000000000000000e+00  -1.1855724200202962e+02 6.1956241781691151e-02 0.0000000000000000e+00 6.1956241781694690e-02 7.5345772334264848e+03 0.0000000000000000e+00 0.0000000000000000e+00 0.0000000000000000e+00 0.0000000000000000e+00  -1.0412145310748774e+02 -1.7281625100696857e-01 0.0000000000000000e+00 -1.7281625100697345e-01 7.4950691855894420e+03 0.0000000000000000e+00 0.0000000000000000e+00 0.0000000000000000e+00 0.0000000000000000e+00  -9.0091082885203434e+01 -1.9370891476503926e-01 0.0000000000000000e+00 -1.9370891476504501e-01 7.4520660513434877e+03 0.0000000000000000e+00 0.0000000000000000e+00 0.0000000000000000e+00 0.0000000000000000e+00  -7.3746034012675196e+01 -2.9981168584193377e-02 0.0000000000000000e+00 -2.9981168584210991e-02 7.4104178957086961e+03 0.0000000000000000e+00 0.0000000000000000e+00 0.0000000000000000e+00 0.0000000000000000e+00  -5.8210421055645206e+01 -3.0657406108115898e-01 0.0000000000000000e+00 -3.0657406108115587e-01 7.3710267786030900e+03 0.0000000000000000e+00 0.0000000000000000e+00 0.0000000000000000e+00 0.0000000000000000e+00  -4.2689683866514436e+01 -7.0950502081184016e-02 0.0000000000000000e+00 -7.0950502081189346e-02 7.3322724386530517e+03 0.0000000000000000e+00 0.0000000000000000e+00 0.0000000000000000e+00 0.0000000000000000e+00  -2.8829452357486321e+01 -5.9547882451036073e-02 0.0000000000000000e+00 -5.9547882451038495e-02 7.2952908474894939e+03 0.0000000000000000e+00 0.0000000000000000e+00 0.0000000000000000e+00 0.0000000000000000e+00  -1.6862263677248936e+01 -1.1123352903764233e-01 0.0000000000000000e+00 -1.1123352903764726e-01 7.2642384294282447e+03 0.0000000000000000e+00 0.0000000000000000e+00 0.0000000000000000e+00 0.0000000000000000e+00  -7.6444401648981533e+00 1.2753703800359104e-01 0.0000000000000000e+00 1.2753703800359850e-01 7.2384207910162777e+03 0.0000000000000000e+00 0.0000000000000000e+00 0.0000000000000000e+00 0.0000000000000000e+00  -1.0541416421729985e+00 2.3513142322225608e-01 0.0000000000000000e+00 2.3513142322225722e-01 7.2200574133340533e+03 0.0000000000000000e+00 0.0000000000000000e+00 0.0000000000000000e+00 0.0000000000000000e+00  4.8077917587802439e+01 -8.0533644360987893e+01 0.0000000000000000e+00 -8.0533644360986784e+01 5.5421209061371576e+02 0.0000000000000000e+00 0.0000000000000000e+00 0.0000000000000000e+00 0.0000000000000000e+00  2.2912672722202737e+02 2.1349559284290112e+02 0.0000000000000000e+00 2.1349559284290041e+02 2.9835752442899202e+03 0.0000000000000000e+00 0.0000000000000000e+00 0.0000000000000000e+00 0.0000000000000000e+00  -1.3676990503312211e+02 -2.1939561325037804e+01 0.0000000000000000e+00 -2.1939561325038319e+01 4.0080736107485809e+03 0.0000000000000000e+00 0.0000000000000000e+00 0.0000000000000000e+00 0.0000000000000000e+00  1.3340696605006292e+02 1.1014954655986699e+02 0.0000000000000000e+00 1.1014954655986800e+02 5.1867777373149347e+03 0.0000000000000000e+00 0.0000000000000000e+00 0.0000000000000000e+00 0.0000000000000000e+00  -5.1508364628022356e+01 -3.4866044123696867e+01 0.0000000000000000e+00 -3.4866044123696845e+01 5.6102920953601997e+03 0.0000000000000000e+00 0.0000000000000000e+00 0.0000000000000000e+00 0.0000000000000000e+00  5.2477582436647438e+01 4.9362250289268317e+01 0.0000000000000000e+00 4.9362250289268282e+01 6.1046330637435685e+03 0.0000000000000000e+00 0.0000000000000000e+00 0.0000000000000000e+00 0.0000000000000000e+00  -1.5312661574303920e+01 9.8058449444695235e+00 0.0000000000000000e+00 9.8058449444695199e+00 6.3565842317013694e+03 0.0000000000000000e+00 0.0000000000000000e+00 0.0000000000000000e+00 0.0000000000000000e+00  1.0378468701832121e+01 2.1251500193502615e+01 0.0000000000000000e+00 2.1251500193502753e+01 6.5378489263336460e+03 0.0000000000000000e+00 0.0000000000000000e+00 0.0000000000000000e+00 0.0000000000000000e+00  2.8999007698636530e+00 1.0960731050008032e+01 0.0000000000000000e+00 1.0960731050008114e+01 6.7163932228463227e+03 0.0000000000000000e+00 0.0000000000000000e+00 0.0000000000000000e+00 0.0000000000000000e+00  4.6953042486447210e+00 7.1846724849145263e+00 0.0000000000000000e+00 7.1846724849144916e+00 6.8128434793566548e+03 0.0000000000000000e+00 0.0000000000000000e+00 0.0000000000000000e+00 0.0000000000000000e+00  -2.6461421203198618e+00 1.0435913214898280e+00 0.0000000000000000e+00 1.0435913214898263e+00 6.8978152996794952e+03 0.0000000000000000e+00 0.0000000000000000e+00 0.0000000000000000e+00 0.0000000000000000e+00  4.5966225914474848e+00 3.8211487711427483e+00 0.0000000000000000e+00 3.8211487711427794e+00 6.9364799976801560e+03 0.0000000000000000e+00 0.0000000000000000e+00 0.0000000000000000e+00 0.0000000000000000e+00  -1.4239034868093501e+00 6.9767429933477620e-01 0.0000000000000000e+00 6.9767429933476510e-01 6.9754814945708031e+03 0.0000000000000000e+00 0.0000000000000000e+00 0.0000000000000000e+00 0.0000000000000000e+00  1.2846678303163658e+03 1.0385834543953852e+03 0.0000000000000000e+00 1.0385834543953879e+03 6.2980690911568331e+02 0.0000000000000000e+00 0.0000000000000000e+00 0.0000000000000000e+00 0.0000000000000000e+00  4.3851919736265063e+03 5.8630129869634820e+03 0.0000000000000000e+00 5.8630129869634757e+03 8.9697379190944193e+03 0.0000000000000000e+00 0.0000000000000000e+00 0.0000000000000000e+00 0.0000000000000000e+00  3.4028046702285601e+03 2.8898612499095525e+03 0.0000000000000000e+00 2.8898612499095520e+03 1.4286134262332343e+04 0.0000000000000000e+00 0.0000000000000000e+00 0.0000000000000000e+00 0.0000000000000000e+00  4.0014053290913184e+03 -2.6753506625899895e+03 0.0000000000000000e+00 -2.6753506625899922e+03 1.5336403730998934e+04 0.0000000000000000e+00 0.0000000000000000e+00 0.0000000000000000e+00 0.0000000000000000e+00  2.6011507065528140e+03 -5.4590285493255560e+03 0.0000000000000000e+00 -5.4590285493255542e+03 8.2581465568579770e+03 0.0000000000000000e+00 0.0000000000000000e+00 0.0000000000000000e+00 0.0000000000000000e+00  1.7707764525927669e+03 -1.4782468330297304e+03 0.0000000000000000e+00 -1.4782468330297277e+03 1.0329001578862217e+03 0.0000000000000000e+00 0.0000000000000000e+00 0.0000000000000000e+00 0.0000000000000000e+00  6.7424437749242436e-02 -3.8625508146870141e-01 0.0000000000000000e+00 -3.8625508146870374e-01 7.2199806876856937e+03 0.0000000000000000e+00 0.0000000000000