<?xml version="1.0"?>
<VTKFile type="UnstructuredGrid"  version="0.1"  >
<UnstructuredGrid>
<Piece  NumberOfPoints="2165" NumberOfCells="4161">
<Points>
<DataArray  type="Float64"  NumberOfComponents="3"  format="ascii">-3.598637933768527e-16 0.3500000000000001 0  0.05 0.4 0  -3.537405593811159e-16 0.45 0  0 1 0  1 1 0  0.9999999999999997 0.65 0  0.9999999999999997 0.5499999999999999 0  1 0 0  0 0 0  0.0191341716182545 0.3538060233744357 0  0.03535533905932737 0.3646446609406727 0  0.04619397662556433 0.3808658283817455 0  0.04619397662556434 0.4191341716182545 0  0.03535533905932738 0.4353553390593274 0  0.01913417161825449 0.4461939766255644 0  0 0.975 0  0 0.95 0  0 0.9249999999999999 0  0 0.8999999999999998 0  0 0.8749999999999998 0  0 0.8499999999999998 0  0 0.8249999999999997 0  0 0.7999999999999996 0  0 0.7749999999999996 0  0 0.7499999999999996 0  0 0.7249999999999996 0  0 0.6999999999999997 0  0 0.6749999999999998 0  0 0.6499999999999999 0  0 0.6249999999999999 0  0 0.6 0  0 0.575 0  0 0.5499999999999998 0  0 0.5249999999999999 0  0 0.4999999999999998 0  0 0.4749999999999999 0  0.975 1 0  0.95 1 0  0.925 1 0  0.9 1 0  0.875 1 0  0.85 1 0  0.825 1 0  0.8 1 0  0.775 1 0  0.75 1 0  0.725 1 0  0.7 1 0  0.675 1 0  0.65 1 0  0.625 1 0  0.6 1 0  0.575 1 0  0.55 1 0  0.525 1 0  0.5 1 0  0.475 1 0  0.45 1 0  0.425 1 0  0.4 1 0  0.375 1 0  0.35 1 0  0.325 1 0  0.3 1 0  0.275 1 0  0.25 1 0  0.225 1 0  0.2 1 0  0.175 1 0  0.15 1 0  0.125 1 0  0.09999999999999998 1 0  0.07499999999999996 1 0  0.05000000000000004 1 0  0.02500000000000002 1 0  1 0.675 0  1 0.7000000000000001 0  1 0.7250000000000001 0  1 0.7500000000000001 0  1 0.7750000000000001 0  1 0.8000000000000002 0  1 0.8250000000000002 0  1 0.8500000000000002 0  1 0.8750000000000003 0  1 0.9000000000000001 0  1 0.9250000000000002 0  1 0.9500000000000001 0  1 0.9750000000000001 0  0.9783058130441221 0.6450484433951209 0  0.9609084258765985 0.6311744900929367 0  0.9512536043909088 0.6111260466978157 0  0.9512536043909088 0.5888739533021843 0  0.9609084258765985 0.5688255099070633 0  0.9783058130441221 0.554951556604879 0  1 0.02500000000000002 0  1 0.05000000000000004 0  1 0.07500000000000008 0  1 0.1000000000000001 0  1 0.1250000000000001 0  1 0.1500000000000002 0  1 0.1750000000000002 0  1 0.2000000000000003 0  1 0.2250000000000003 0  1 0.2500000000000004 0  1 0.2750000000000004 0  1 0.3000000000000003 0  1 0.3250000000000002 0  1 0.3500000000000001 0  1 0.3750000000000001 0  1 0.3999999999999999 0  1 0.425 0  1 0.45 0  1 0.475 0  1 0.5000000000000001 0  1 0.5249999999999999 0  0.025 0 0  0.05 0 0  0.075 0 0  0.1 0 0  0.125 0 0  0.15 0 0  0.175 0 0  0.2 0 0  0.225 0 0  0.25 0 0  0.275 0 0  0.3 0 0  0.325 0 0  0.35 0 0  0.375 0 0  0.4 0 0  0.425 0 0  0.45 0 0  0.475 0 0  0.5 0 0  0.525 0 0  0.55 0 0  0.575 0 0  0.6 0 0  0.625 0 0  0.65 0 0  0.675 0 0  0.7 0 0  0.725 0 0  0.75 0 0  0.775 0 0  0.8 0 0  0.825 0 0  0.85 0 0  0.875 0 0  0.9 0 0  0.925 0 0  0.95 0 0  0.975 0 0  0 0.3250000000000001 0  0 0.3 0  0 0.275 0  0 0.2499999999999999 0  0 0.2249999999999999 0  0 0.1999999999999998 0  0 0.1749999999999998 0  0 0.1499999999999998 0  0 0.1249999999999998 0  0 0.09999999999999987 0  0 0.07499999999999984 0  0 0.04999999999999993 0  0 0.02500000000000002 0  0.06453325334544308 0.4134708543086404 0  0.5146839915088474 0.02134387884913819 0  0.4875871001393628 0.9784117024331356 0  0.9386300160094723 0.5701776715936071 0  0.0216506350946109 0.6124999999999999 0  0.9764205887290853 0.3596067946540696 0  0.3876261045932067 0.02156097490657183 0  0.6125 0.978349364905389 0  0.3612127461797463 0.9792371404802113 0  0.6374786650398092 0.02079982608537345 0  0.9387185538472446 0.6295115890709873 0  0.05482260092545593 0.3633687091864355 0  0.02445354803948679 0.7343198207875321 0  0.2624888813627476 0.02091671348578122 0  0.7375212991274043 0.9794996488945376 0  0.9793010831723812 0.2648509348664836 0  0.2625026480689301 0.9795699185263282 0  0.7362840788105066 0.02225211062275217 0  0.02159327910297104 0.2128861809896528 0  0.9786837570973538 0.7867241244631172 0  0.02419728000065929 0.8365600234152764 0  0.980043283615984 0.1624097203408714 0  0.1645857434226354 0.0205513501962844 0  0.8339481359352011 0.9784483546369231 0  0.1637584777222821 0.9774556328160621 0  0.8374916614314967 0.02165097219510076 0  0.02171915379676059 0.5370700005916152 0  0.9795335762511281 0.4365726939225819 0  0.02319480745007968 0.1370197632171214 0  0.9774462976085161 0.8592616917551974 0  0.9786941241076723 0.7122511101067891 0  0.9797883857882621 0.08781864217752949 0  0.01966314788989931 0.9125801876811624 0  0.02051815350151098 0.2882126194470174 0  0.09063226699593246 0.0214884092697174 0  0.9124408843562394 0.9818463395009377 0  0.03872465516591678 0.452731089005145 0  0.08969424365256845 0.978412979507602 0  0.9124999999999999 0.02165063509461096 0  0.02158104789437187 0.6619299176372371 0  0.9796602354625652 0.4859004208706154 0  0.3127517983598529 0.02417963694738812 0  0.4375629605000894 0.02158039900821679 0  0.5643674594196073 0.01968996000301126 0  0.5368361594956101 0.9790428840407062 0  0.4376176251051295 0.9783667484208922 0  0.6874072695660477 0.978435143102373 0  0.310604317388614 0.979558305560928 0  0.2125577044121564 0.02066685543111635 0  0.6875 0.0216506350946109 0  0.02224009810917643 0.08811420611559456 0  0.790876428529276 0.978633065284896 0  0.2125 0.978349364905389 0  0.9788033534786624 0.2116925349935155 0  0.9769441169344462 0.3150381335760689 0  0.9804648376981185 0.9123186437266726 0  0.7874999988222203 0.02127957051165741 0  0.02109233852270731 0.786866823287435 0  0.9483709287873718 0.5504073206521916 0  0.9259842326464427 0.5519702047534598 0  0.9163209045278007 0.5719292915927929 0  0.9035374059862284 0.5537291796040291 0  0.8938951918780048 0.5738949757882954 0  0.8807940177559743 0.5546750869516996 0  0.8712661812741653 0.5757142549099102 0  0.8580668865514332 0.5563902430113601 0  0.848508161986991 0.5779004013072002 0  0.8354274200119249 0.5591176379057713 0  0.8256349826905482 0.5800610629400762 0  0.8124123591208572 0.5604454546391737 0  0.802603410938817 0.5819653950592523 0  0.7892876429890218 0.562234610648543 0  0.7794355871850538 0.583896242519796 0  0.7661469824381839 0.5648243426306435 0  0.7562387679604726 0.5860005456930413 0  0.7429651600512166 0.5669367633461588 0  0.7330846968880171 0.5879590907760761 0  0.7198577999459205 0.5688986880627463 0  0.7297050500533544 0.5479561801187277 0  0.7066243396993471 0.5499068108517552 0  0.6968285086900206 0.5707989520567972 0  0.6836266810714333 0.5519088927359967 0  0.6738604685766018 0.5727655091567184 0  0.6607284761452521 0.5538781923028128 0  0.6697149783704412 0.5321140554135094 0  0.6473436039782401 0.5350050604671006 0  0.6378867365666199 0.5557804038095817 0  0.6246915360243652 0.5362124690568238 0  0.6151175309583405 0.5575933164645619 0  0.6019784180102355 0.5380659376543677 0  0.5924099113505394 0.5593739656462906 0  0.5794110962027638 0.541110021814312 0  0.5697985396917309 0.5614600003719357 0  0.5568468707330213 0.5433212932327446 0  0.5472634011377896 0.5635652141280936 0  0.5343236363495072 0.5451361960661517 0  0.5247877773262166 0.565493591892781 0  0.5118927934227436 0.5470665328397559 0  0.5023398230005425 0.5674381114577953 0  0.5213991904098014 0.5267047787870831 0  0.4990390504096661 0.528649139287786 0  0.6328887517229864 0.5131744321062524 0  0.5085133205790763 0.5083322037773296 0  0.4861972978925295 0.5102540920324363 0  0.4956914791804768 0.4899605513008993 0  0.4734139980312694 0.4918582759645476 0  0.4826986629698439 0.4717164019717278 0  0.460570567761715 0.473509155475794 0  0.4699344541058981 0.4533140529328089 0  0.4477087341565655 0.4550973130597117 0  0.4381733274019614 0.4752901381741884 0  0.4570222843287571 0.4349938694701042 0  0.4348599018247688 0.436728068420533 0  0.5604623134382263 0.581815997002507 0  0.4443612964408632 0.416499823314016 0  0.422056299386984 0.4183730429856528 0  0.4688721528228815 0.4135009841763965 0  0.4315584877924544 0.398120546824229 0  0.4092288692044618 0.3999974286008185 0  0.7463210599443056 0.6070829843371945 0  0.4187270626688335 0.3797365044773463 0  0.3964262302393312 0.3817184136470017 0  0.3869780036193907 0.4018498778543814 0  0.3742423843122406 0.3837055716372927 0  0.3648701490102072 0.4037049758807119 0  0.3518115403926748 0.3858985036587403 0  0.3426146276710081 0.4056777495658291 0  0.3614541441355358 0.3656396497906528 0  0.339026673715919 0.3678724679736439 0  0.3485566370135618 0.3476560889674916 0  0.3264681821394378 0.3496422822523857 0  0.8219942777991693 0.5379143061758643 0  0.3358297439968608 0.3295117748868035 0  0.3137050884585635 0.3314921667582986 0  0.3229980644152205 0.3113561769498422 0  0.3007986024336577 0.3133063832007756 0  0.3441851868720173 0.3085211458266175 0  0.3101966551534752 0.2930273704914169 0  0.287793053707373 0.2950088132226583 0  0.2914417217227097 0.3337427541189321 0  0.2975120686695638 0.2743682539701985 0  0.274864585256681 0.2764253296978281 0  0.816026571618698 0.6006851919544112 0  0.2844672854128698 0.2557011565880619 0  0.2617267434509338 0.2577713002235077 0  0.3072711221189672 0.2536790056475094 0  0.2521588568690318 0.2785072139143895 0  0.2389277409161178 0.2598761196336353 0  0.248448076747058 0.2389478879785275 0  0.5053822153261678 0.4716915524631118 0  0.229548765875869 0.2806542761043101 0  0.2254561407802683 0.2411354049374563 0  0.2350621310805047 0.2199181955146378 0  0.2117782450160163 0.222165061041625 0  0.2214249125635323 0.2008136877065064 0  0.2448758256083499 0.1985732693215908 0  0.197966291680556 0.2031211006951591 0  0.1883147493074436 0.2245564097761413 0  0.8910637266939049 0.5322898364209732 0  0.1748136087708587 0.2051141748992724 0  0.1842088801696792 0.1837087814679069 0  0.1656574100807746 0.2269812054689968 0  0.3554582346764377 0.4236292557112198 0  0.3328979939923831 0.425459320867588 0  0.3460368767112177 0.4435398346083328 0  0.3238464003
[...]
<PointData  Tensors="$\sigma$"> 
<DataArray  type="Float64"  Name="$\sigma$"  NumberOfComponents="9" format="ascii">-7.7104611324849273e+01 -1.3671487654344148e+02 0.0000000000000000e+00 -1.3671487654344145e+02 -3.1740070958943829e+02 0.0000000000000000e+00 0.0000000000000000e+00 0.0000000000000000e+00 0.0000000000000000e+00  5.0311070111080426e+02 9.8346921668497060e+00 0.0000000000000000e+00 9.8346921668496261e+00 6.6385493263254593e+03 0.0000000000000000e+00 0.0000000000000000e+00 0.0000000000000000e+00 0.0000000000000000e+00  -6.2602856795214706e+01 1.5837477792657020e+02 0.0000000000000000e+00 1.5837477792657015e+02 -3.3087812072363147e+02 0.0000000000000000e+00 0.0000000000000000e+00 0.0000000000000000e+00 0.0000000000000000e+00  2.0920729610472599e-02 2.5056284729966183e-01 0.0000000000000000e+00 2.5056284729966166e-01 2.1103475441924261e+03 0.0000000000000000e+00 0.0000000000000000e+00 0.0000000000000000e+00 0.0000000000000000e+00  1.4759024298828677e-01 -5.4095790428804642e-02 0.0000000000000000e+00 -5.4095790428804150e-02 2.0473624460556205e+03 0.0000000000000000e+00 0.0000000000000000e+00 0.0000000000000000e+00 0.0000000000000000e+00  -8.0042895598149840e+01 -1.6308672448674938e+02 0.0000000000000000e+00 -1.6308672448674932e+02 -3.5977140454892307e+01 0.0000000000000000e+00 0.0000000000000000e+00 0.0000000000000000e+00 0.0000000000000000e+00  7.2174836820266108e+01 -3.9550804896439679e+01 0.0000000000000000e+00 -3.9550804896439622e+01 5.3383856700369876e+01 0.0000000000000000e+00 0.0000000000000000e+00 0.0000000000000000e+00 0.0000000000000000e+00  -1.2158485378102948e-01 3.5067961349619238e-02 0.0000000000000000e+00 3.5067961349619210e-02 2.1113695956812671e+03 0.0000000000000000e+00 0.0000000000000000e+00 0.0000000000000000e+00 0.0000000000000000e+00  5.9455151082301120e+02 2.5007915855673218e+02 0.0000000000000000e+00 2.5007915855673227e+02 2.2089433072417050e+03 0.0000000000000000e+00 0.0000000000000000e+00 0.0000000000000000e+00 0.0000000000000000e+00  3.3823897597054156e+02 3.1771270318747685e+02 0.0000000000000000e+00 3.1771270318747673e+02 3.0079771971512076e+02 0.0000000000000000e+00 0.0000000000000000e+00 0.0000000000000000e+00 0.0000000000000000e+00  1.0810877984509896e+03 1.3066768525119351e+03 0.0000000000000000e+00 1.3066768525119357e+03 1.8600556511157956e+03 0.0000000000000000e+00 0.0000000000000000e+00 0.0000000000000000e+00 0.0000000000000000e+00  9.2620241224101403e+02 1.5580837819042877e+03 0.0000000000000000e+00 1.5580837819042877e+03 5.0363340972994974e+03 0.0000000000000000e+00 0.0000000000000000e+00 0.0000000000000000e+00 0.0000000000000000e+00  9.1417930368601765e+02 -1.5773455260843550e+03 0.0000000000000000e+00 -1.5773455260843546e+03 5.0240773273054438e+03 0.0000000000000000e+00 0.0000000000000000e+00 0.0000000000000000e+00 0.0000000000000000e+00  1.0762611101254047e+03 -1.2820006740239130e+03 0.0000000000000000e+00 -1.2820006740239137e+03 1.9661791598840530e+03 0.0000000000000000e+00 0.0000000000000000e+00 0.0000000000000000e+00 0.0000000000000000e+00  3.2703558004777165e+02 -3.3644430846062153e+02 0.0000000000000000e+00 -3.3644430846062136e+02 2.9420077845024315e+02 0.0000000000000000e+00 0.0000000000000000e+00 0.0000000000000000e+00 0.0000000000000000e+00  -1.1473129788876294e-02 -1.1749620983658249e-01 0.0000000000000000e+00 -1.1749620983658231e-01 2.1094054947035975e+03 0.0000000000000000e+00 0.0000000000000000e+00 0.0000000000000000e+00 0.0000000000000000e+00  1.9762777071913023e-02 -3.6520714972752338e-01 0.0000000000000000e+00 -3.6520714972752227e-01 2.1078883300562802e+03 0.0000000000000000e+00 0.0000000000000000e+00 0.0000000000000000e+00 0.0000000000000000e+00  1.2142472408116016e-01 -3.5802776612725473e-01 0.0000000000000000e+00 -3.5802776612725473e-01 2.1051392338032551e+03 0.0000000000000000e+00 0.0000000000000000e+00 0.0000000000000000e+00 0.0000000000000000e+00  -9.6067189995189803e-02 -3.8262349293189157e-01 0.0000000000000000e+00 -3.8262349293188952e-01 2.1009564724216666e+03 0.0000000000000000e+00 0.0000000000000000e+00 0.0000000000000000e+00 0.0000000000000000e+00  6.8388925487736243e-02 -6.5461376332574706e-01 0.0000000000000000e+00 -6.5461376332574783e-01 2.0955181760278892e+03 0.0000000000000000e+00 0.0000000000000000e+00 0.0000000000000000e+00 0.0000000000000000e+00  3.3016829025985639e-01 -1.1601268463618430e+00 0.0000000000000000e+00 -1.1601268463618448e+00 2.0895910210779339e+03 0.0000000000000000e+00 0.0000000000000000e+00 0.0000000000000000e+00 0.0000000000000000e+00  -5.0590387772420940e-02 -9.5525978760145791e-01 0.0000000000000000e+00 -9.5525978760145425e-01 2.0791195288066533e+03 0.0000000000000000e+00 0.0000000000000000e+00 0.0000000000000000e+00 0.0000000000000000e+00  4.3133136381791969e-02 -1.4514845986967957e+00 0.0000000000000000e+00 -1.4514845986967966e+00 2.0694092027853103e+03 0.0000000000000000e+00 0.0000000000000000e+00 0.0000000000000000e+00 0.0000000000000000e+00  3.8259446872187552e-01 -1.9409381809078685e+00 0.0000000000000000e+00 -1.9409381809078727e+00 2.0564350312885122e+03 0.0000000000000000e+00 0.0000000000000000e+00 0.0000000000000000e+00 0.0000000000000000e+00  5.0980561581999262e-01 -2.1577484836800442e+00 0.0000000000000000e+00 -2.1577484836800487e+00 2.0418634454746600e+03 0.0000000000000000e+00 0.0000000000000000e+00 0.0000000000000000e+00 0.0000000000000000e+00  4.0160321229463544e-02 -2.9007059653564240e+00 0.0000000000000000e+00 -2.9007059653564200e+00 2.0147250376896691e+03 0.0000000000000000e+00 0.0000000000000000e+00 0.0000000000000000e+00 0.0000000000000000e+00  9.6264644046007930e-02 -4.7733473915634628e+00 0.0000000000000000e+00 -4.7733473915634628e+00 1.9981111021227539e+03 0.0000000000000000e+00 0.0000000000000000e+00 0.0000000000000000e+00 0.0000000000000000e+00  6.8253617361533929e-03 -3.7845506566080256e+00 0.0000000000000000e+00 -3.7845506566080256e+00 1.9579957352874674e+03 0.0000000000000000e+00 0.0000000000000000e+00 0.0000000000000000e+00 0.0000000000000000e+00  1.0258865910774628e+00 -5.7430267893425242e+00 0.0000000000000000e+00 -5.7430267893425162e+00 1.9203680934643560e+03 0.0000000000000000e+00 0.0000000000000000e+00 0.0000000000000000e+00 0.0000000000000000e+00  1.9498427215073297e+00 -3.7934510922626719e+00 0.0000000000000000e+00 -3.7934510922626687e+00 1.8603028007338116e+03 0.0000000000000000e+00 0.0000000000000000e+00 0.0000000000000000e+00 0.0000000000000000e+00  -7.1308906267008110e-01 -8.2742840802889734e+00 0.0000000000000000e+00 -8.2742840802889823e+00 1.7854580648883132e+03 0.0000000000000000e+00 0.0000000000000000e+00 0.0000000000000000e+00 0.0000000000000000e+00  5.9821394434022368e+00 -2.0599466132452793e+01 0.0000000000000000e+00 -2.0599466132452811e+01 1.6688200949188574e+03 0.0000000000000000e+00 0.0000000000000000e+00 0.0000000000000000e+00 0.0000000000000000e+00  -2.0807786503966450e+00 -1.8570254926884843e+01 0.0000000000000000e+00 -1.8570254926884832e+01 1.5026957604451384e+03 0.0000000000000000e+00 0.0000000000000000e+00 0.0000000000000000e+00 0.0000000000000000e+00  6.4562457296480007e+00 -5.8462557950047191e+01 0.0000000000000000e+00 -5.8462557950047206e+01 1.2433231075360725e+03 0.0000000000000000e+00 0.0000000000000000e+00 0.0000000000000000e+00 0.0000000000000000e+00  -2.2172049566949582e+01 -7.3738822039678865e+01 0.0000000000000000e+00 -7.3738822039678809e+01 8.3773475770312018e+02 0.0000000000000000e+00 0.0000000000000000e+00 0.0000000000000000e+00 0.0000000000000000e+00  6.8910767592443634e+01 -8.0599094091772855e+01 0.0000000000000000e+00 -8.0599094091772770e+01 3.1603105107549607e+02 0.0000000000000000e+00 0.0000000000000000e+00 0.0000000000000000e+00 0.0000000000000000e+00  -1.6420226969183087e+00 9.3021599161938417e-02 0.0000000000000000e+00 9.3021599161934268e-02 2.0519622283639565e+03 0.0000000000000000e+00 0.0000000000000000e+00 0.0000000000000000e+00 0.0000000000000000e+00  -8.7285384812573277e+00 1.3728553821045147e-01 0.0000000000000000e+00 1.3728553821045023e-01 2.0653224400510189e+03 0.0000000000000000e+00 0.0000000000000000e+00 0.0000000000000000e+00 0.0000000000000000e+00  -1.9200249386707331e+01 5.9322146552737187e-01 0.0000000000000000e+00 5.9322146552737609e-01 2.0852492852518440e+03 0.0000000000000000e+00 0.0000000000000000e+00 0.0000000000000000e+00 0.0000000000000000e+00  -3.1795392670516978e+01 2.9279436686571469e-01 0.0000000000000000e+00 2.9279436686571908e-01 2.1079511355839818e+03 0.0000000000000000e+00 0.0000000000000000e+00 0.0000000000000000e+00 0.0000000000000000e+00  -4.2275470114596018e+01 1.0311502468185301e+00 0.0000000000000000e+00 1.0311502468185381e+00 2.1366849173010442e+03 0.0000000000000000e+00 0.0000000000000000e+00 0.0000000000000000e+00 0.0000000000000000e+00  -5.3337319910296699e+01 1.6080411097062808e-02 0.0000000000000000e+00 1.6080411097064110e-02 2.1644802833379681e+03 0.0000000000000000e+00 0.0000000000000000e+00 0.0000000000000000e+00 0.0000000000000000e+00  -6.4300773030988438e+01 -6.2981553511024829e-02 0.0000000000000000e+00 -6.2981553511022900e-02 2.1878680434614985e+03 0.0000000000000000e+00 0.0000000000000000e+00 0.0000000000000000e+00 0.0000000000000000e+00  -6.9280614508831860e+01 -2.0056573374117287e-01 0.0000000000000000e+00 -2.0056573374116907e-01 2.2137599322851697e+03 0.0000000000000000e+00 0.0000000000000000e+00 0.0000000000000000e+00 0.0000000000000000e+00  -7.4575093495943037e+01 8.1323038889199881e-02 0.0000000000000000e+00 8.1323038889199090e-02 2.2298133038845090e+03 0.0000000000000000e+00 0.0000000000000000e+00 0.0000000000000000e+00 0.0000000000000000e+00  -7.7784463669456684e+01 -2.8389491956139601e-01 0.0000000000000000e+00 -2.8389491956139706e-01 2.2456584870754932e+03 0.0000000000000000e+00 0.0000000000000000e+00 0.0000000000000000e+00 0.0000000000000000e+00  -7.8291538440090619e+01 -3.5912919082114825e-01 0.0000000000000000e+00 -3.5912919082114825e-01 2.2578742279506541e+03 0.0000000000000000e+00 0.0000000000000000e+00 0.0000000000000000e+00 0.0000000000000000e+00  -7.7427561536817649e+01 -4.2107635465971238e-01 0.0000000000000000e+00 -4.2107635465971244e-01 2.2660730714643937e+03 0.0000000000000000e+00 0.0000000000000000e+00 0.0000000000000000e+00 0.0000000000000000e+00  -7.5552120546958093e+01 -3.0739677276642186e-01 0.0000000000000000e+00 -3.0739677276642208e-01 2.2719894188361313e+03 0.0000000000000000e+00 0.0000000000000000e+00 0.0000000000000000e+00 0.0000000000000000e+00  -7.3130109410243918e+01 -2.8725279240388413e-01 0.0000000000000000e+00 -2.8725279240388452e-01 2.2756405464732702e+03 0.0000000000000000e+00 0.0000000000000000e+00 0.0000000000000000e+00 0.0000000000000000e+00  -7.0024315677053551e+01 -2.9522034883425130e-01 0.0000000000000000e+00 -2.9522034883425152e-01 2.2771284753267691e+03 0.0000000000000000e+00 0.0000000000000000e+00 0.0000000000000000e+00 0.0000000000000000e+00  -6.6887341767105255e+01 -2.9532945332953303e-01 0.0000000000000000e+00 -2.9532945332953336e-01 2.2772079172923727e+03 0.0000000000000000e+00 0.0000000000000000e+00 0.0000000000000000e+00 0.0000000000000000e+00  -6.3776910940884562e+01 -2.2707600742638331e-01 0.0000000000000000e+00 -2.2707600742638387e-01 2.2759292203104333e+03 0.0000000000000000e+00 0.0000000000000000e+00 0.0000000000000000e+00 0.0000000000000000e+00  -6.0820113380552606e+01 -2.0794852015793089e-01 0.0000000000000000e+00 -2.0794852015793019e-01 2.2737780038725386e+03 0.0000000000000000e+00 0.0000000000000000e+00 0.0000000000000000e+00 0.0000000000000000e+00  -5.8037683029396881e+01 -1.3761403763834354e-01 0.0000000000000000e+00 -1.3761403763834343e-01 2.2707693909469899e+03 0.0000000000000000e+00 0.0000000000000000e+00 0.0000000000000000e+00 0.0000000000000000e+00  -5.5487598656896985e+01 -9.6165189168863116e-02 0.0000000000000000e+00 -9.6165189168862061e-02 2.2669589645930196e+03 0.0000000000000000e+00 0.0000000000000000e+00 0.0000000000000000e+00 0.0000000000000000e+00  -5.3183837974587462e+01 -5.7410320489770843e-02 0.0000000000000000e+00 -5.7410320489771322e-02 2.2625868378768159e+03 0.0000000000000000e+00 0.0000000000000000e+00 0.0000000000000000e+00 0.0000000000000000e+00  -5.0957550574199587e+01 -2.6796382848547497e-02 0.0000000000000000e+00 -2.6796382848546883e-02 2.2576162857192121e+03 0.0000000000000000e+00 0.0000000000000000e+00 0.0000000000000000e+00 0.0000000000000000e+00  -4.8973600925654871e+01 3.7441563946301591e-03 0.0000000000000000e+00 3.7441563946302592e-03 2.2519788293922425e+03 0.0000000000000000e+00 0.0000000000000000e+00 0.0000000000000000e+00 0.0000000000000000e+00  -4.6832265152436257e+01 -2.4069985198900839e-02 0.0000000000000000e+00 -2.4069985198901269e-02 2.2457315139539746e+03 0.0000000000000000e+00 0.0000000000000000e+00 0.0000000000000000e+00 0.0000000000000000e+00  -4.4834129722609646e+01 -2.1815459230434590e-02 0.0000000000000000e+00 -2.1815459230434476e-02 2.2389980987602480e+03 0.0000000000000000e+00 0.0000000000000000e+00 0.0000000000000000e+00 0.0000000000000000e+00  -4.2528210129247192e+01 3.3035364403603704e-02 0.0000000000000000e+00 3.3035364403603551e-02 2.2314345253828278e+03 0.0000000000000000e+00 0.0000000000000000e+00 0.0000000000000000e+00 0.0000000000000000e+00  -4.0096457740956815e+01 1.5397510318082158e-02 0.0000000000000000e+00 1.5397510318081070e-02 2.2230148146245238e+03 0.0000000000000000e+00 0.0000000000000000e+00 0.0000000000000000e+00 0.0000000000000000e+00  -3.7423129190743488e+01 3.6249077126090531e-02 0.0000000000000000e+00 3.6249077126090101e-02 2.2141968785838403e+03 0.0000000000000000e+00 0.0000000000000000e+00 0.0000000000000000e+00 0.0000000000000000e+00  -3.4325727087572844e+01 6.6863329384494977e-02 0.0000000000000000e+00 6.6863329384495157e-02 2.2048415695858480e+03 0.0000000000000000e+00 0.0000000000000000e+00 0.0000000000000000e+00 0.0000000000000000e+00  -3.1167301087975890e+01 9.1729227758189993e-03 0.0000000000000000e+00 9.1729227758202483e-03 2.1944032977416377e+03 0.0000000000000000e+00 0.0000000000000000e+00 0.0000000000000000e+00 0.0000000000000000e+00  -2.7294125781433678e+01 -3.5536818213151109e-03 0.0000000000000000e+00 -3.5536818213147033e-03 2.1841256379742363e+03 0.0000000000000000e+00 0.0000000000000000e+00 0.0000000000000000e+00 0.0000000000000000e+00  -2.3661843685640974e+01 -7.1226329537752972e-02 0.0000000000000000e+00 -7.1226329537751557e-02 2.1729716523219436e+03 0.0000000000000000e+00 0.0000000000000000e+00 0.0000000000000000e+00 0.0000000000000000e+00  -1.9368281565457533e+01 -5.5111907982369923e-02 0.0000000000000000e+00 -5.5111907982372747e-02 2.1620837137871495e+03 0.0000000000000000e+00 0.0000000000000000e+00 0.0000000000000000e+00 0.0000000000000000e+00  -1.5248050204889823e+01 -1.2092003668716939e-01 0.0000000000000000e+00 -1.2092003668717138e-01 2.1519513305796386e+03 0.0000000000000000e+00 0.0000000000000000e+00 0.0000000000000000e+00 0.0000000000000000e+00  -1.1207176651563085e+01 -4.2752248312412512e-02 0.0000000000000000e+00 -4.2752248312412998e-02 2.1419041939656822e+03 0.0000000000000000e+00 0.0000000000000000e+00 0.0000000000000000e+00 0.0000000000000000e+00  -7.5387370673945338e+00 -1.1416709713191314e-02 0.0000000000000000e+00 -1.1416709713190103e-02 2.1323446344344270e+03 0.0000000000000000e+00 0.0000000000000000e+00 0.0000000000000000e+00 0.0000000000000000e+00  -4.4275323377254843e+00 -3.7584953693662722e-02 0.0000000000000000e+00 -3.7584953693662194e-02 2.1242798228721485e+03 0.0000000000000000e+00 0.0000000000000000e+00 0.0000000000000000e+00 0.0000000000000000e+00  -2.0205542474088367e+00 2.0562878763267897e-02 0.0000000000000000e+00 2.0562878763267688e-02 2.1175016940233395e+03 0.0000000000000000e+00 0.0000000000000000e+00 0.0000000000000000e+00 0.0000000000000000e+00  -2.9073010124037479e-01 8.0014848057126831e-02 0.0000000000000000e+00 8.0014848057126151e-02 2.1129224386911364e+03 0.0000000000000000e+00 0.0000000000000000e+00 0.0000000000000000e+00 0.0000000000000000e+00  8.0941603943912057e+01 5.2617174718816628e+01 0.0000000000000000e+00 5.2617174718816663e+01 2.6117678450741653e+02 0.0000000000000000e+00 0.0000000000000000e+00 0.0000000000000000e+00 0.0000000000000000e+00  2.7533851347863845e+01 5.9894057007408989e+01 0.0000000000000000e+00 5.9894057007408975e+01 8.7573452936310309e+02 0.0000000000000000e+00 0.0000000000000000e+00 0.0000000000000000e+00 0.0000000000000000e+00  2.7663252504297042e-01 2.8398315851737497e+01 0.0000000000000000e+00 2.8398315851737447e+01 1.2576126789450284e+03 0.0000000000000000e+00 0.0000000000000000e+00 0.0000000000000000e+00 0.0000000000000000e+00  1.4862373335759335e+01 2.3739701663788985e+01 0.0000000000000000e+00 2.3739701663789067e+01 1.5365329136088142e+03 0.0000000000000000e+00 0.0000000000000000e+00 0.0000000000000000e+00 0.0000000000000000e+00  7.6103332137674130e-03 6.5254009976097604e+00 0.0000000000000000e+00 6.5254009976098324e+00 1.6911446419557601e+03 0.0000000000000000e+00 0.0000000000000000e+00 0.0000000000000000e+00 0.0000000000000000e+00  5.2438753699188450e+00 8.9534998114641979e+00 0.0000000000000000e+00 8.9534998114642104e+00 1.8028703152448140e+03 0.0000000000000000e+00 0.0000000000000000e+00 0.0000000000000000e+00 0.0000000000000000e+00  -8.7239258255748436e-02 8.4915052308692687e+00 0.0000000000000000e+00 8.4915052308692633e+00 1.8848515628460955e+03 0.0000000000000000e+00 0.0000000000000000e+00 0.0000000000000000e+00 0.0000000000000000e+00  -6.0579116686414658e-01 6.5035298156592489e+00 0.0000000000000000e+00 6.5035298156592214e+00 1.9279976065332949e+03 0.0000000000000000e+00 0.0000000000000000e+00 0.0000000000000000e+00 0.0000000000000000e+00  8.0986128079249675e-01 4.0507069472839170e+00 0.0000000000000000e+00 4.0507069472839241e+00 1.9768504571576289e+03 0.0000000000000000e+00 0.0000000000000000e+00 0.0000000000000000e+00 0.0000000000000000e+00  8.3742013544752092e-01 3.2105079250523567e+00 0.0000000000000000e+00 3.2105079250523554e+00 2.0041391117992716e+03 0.0000000000000000e+00 0.0000000000000000e+00 0.0000000000000000e+00 0.0000000000000000e+00  -4.8692078625011570e-01 6.7079154126101947e-01 0.0000000000000000e+00 6.7079154126102181e-01 2.0244664981579208e+03 0.0000000000000000e+00 0.0000000000000000e+00 0.0000000000000000e+00 0.0000000000000000e+00  9.5688285865579603e-01 1.0613555617315473e+00 0.0000000000000000e+00 1.0613555617315460e+00 2.0366225429753304e+03 0.0000000000000000e+00 0.0000000000000000e+00 0.0000000000000000e+00 0.0000000000000000e+00  -1.9519653366148790e-01 4.1645791157295969e-01 0.0000000000000000e+00 4.1645791157296064e-01 2.0460177258073331e+03 0.0000000000000000e+00 0.0000000000000000e+00 0.0000000000000000e+00 0.0000000000000000e+00  4.4741981155862095e+02 4.3279077884873033e+02 0.0000000000000000e+00 4.3279077884873021e+02 3.5464819238244729e+02 0.0000000000000000e+00 0.0000000000000000e+00 0.0000000000000000e+00 0.0000000000000000e+00  1.2240799454229264e+03 1.5790122697643585e+03 0.0000000000000000e+00 1.5790122697643581e+03 2.9650691841730268e+03 0.0000000000000000e+00 0.0000000000000000e+00 0.0000000000000000e+00 0.0000000000000000e+00  5.2085278256171921e+02 1.1246825023679237e+03 0.0000000000000000e+00 1.1246825023679237e+03 6.0047035316429346e+03 0.0000000000000000e+00 0.0000000000000000e+00 0.0000000000000000e+00 0.0000000000000000e+00  8.6597985468369302e+02 -7.3272629443926871e+02 0.0000000000000000e+00 -7.3272629443926849e+02 5.6056737810468712e+03 0.0000000000000000e+00 0.0000000000000000e+00 0.0000000000000000e+00 0.0000000000000000e+00  8.2938090393524021e+02 -1.6181475207609228e+03 0.0000000000000000e+00 -1.6181475207609228e+03 3.0102574863244554e+03 0.0000000000000000e+00 0.0000000000000000e+00 0.0000000000000000e+00 0.0000000000000000e+00  4.1723928938482408e+02 -4.9444519193391977e+02 0.0000000000000000e+00 -4.9444519193391966e+02 5.2263618526760877e+02 0.0000000000000000e+00 0.0000000000000000e+00 0.0000000000000000e+00 0.0000000000000000e+00  3.3267363375235524e-02 -1.9081204581928929e-01 0.0000000000000000e+00 -1.9081204581928959e-01 2.1108615059291237e+03 0.0000000000000000e+00 0.0000000000000000e+00 0.0