<?xml version="1.0"?>
<VTKFile type="UnstructuredGrid"  version="0.1"  >
<UnstructuredGrid>
<Piece  NumberOfPoints="2165" NumberOfCells="4161">
<Points>
<DataArray  type="Float64"  NumberOfComponents="3"  format="ascii">-3.598637933768527e-16 0.3500000000000001 0  0.05 0.4 0  -3.537405593811159e-16 0.45 0  0 1 0  1 1 0  0.9999999999999997 0.65 0  0.9999999999999997 0.5499999999999999 0  1 0 0  0 0 0  0.0191341716182545 0.3538060233744357 0  0.03535533905932737 0.3646446609406727 0  0.04619397662556433 0.3808658283817455 0  0.04619397662556434 0.4191341716182545 0  0.03535533905932738 0.4353553390593274 0  0.01913417161825449 0.4461939766255644 0  0 0.975 0  0 0.95 0  0 0.9249999999999999 0  0 0.8999999999999998 0  0 0.8749999999999998 0  0 0.8499999999999998 0  0 0.8249999999999997 0  0 0.7999999999999996 0  0 0.7749999999999996 0  0 0.7499999999999996 0  0 0.7249999999999996 0  0 0.6999999999999997 0  0 0.6749999999999998 0  0 0.6499999999999999 0  0 0.6249999999999999 0  0 0.6 0  0 0.575 0  0 0.5499999999999998 0  0 0.5249999999999999 0  0 0.4999999999999998 0  0 0.4749999999999999 0  0.975 1 0  0.95 1 0  0.925 1 0  0.9 1 0  0.875 1 0  0.85 1 0  0.825 1 0  0.8 1 0  0.775 1 0  0.75 1 0  0.725 1 0  0.7 1 0  0.675 1 0  0.65 1 0  0.625 1 0  0.6 1 0  0.575 1 0  0.55 1 0  0.525 1 0  0.5 1 0  0.475 1 0  0.45 1 0  0.425 1 0  0.4 1 0  0.375 1 0  0.35 1 0  0.325 1 0  0.3 1 0  0.275 1 0  0.25 1 0  0.225 1 0  0.2 1 0  0.175 1 0  0.15 1 0  0.125 1 0  0.09999999999999998 1 0  0.07499999999999996 1 0  0.05000000000000004 1 0  0.02500000000000002 1 0  1 0.675 0  1 0.7000000000000001 0  1 0.7250000000000001 0  1 0.7500000000000001 0  1 0.7750000000000001 0  1 0.8000000000000002 0  1 0.8250000000000002 0  1 0.8500000000000002 0  1 0.8750000000000003 0  1 0.9000000000000001 0  1 0.9250000000000002 0  1 0.9500000000000001 0  1 0.9750000000000001 0  0.9783058130441221 0.6450484433951209 0  0.9609084258765985 0.6311744900929367 0  0.9512536043909088 0.6111260466978157 0  0.9512536043909088 0.5888739533021843 0  0.9609084258765985 0.5688255099070633 0  0.9783058130441221 0.554951556604879 0  1 0.02500000000000002 0  1 0.05000000000000004 0  1 0.07500000000000008 0  1 0.1000000000000001 0  1 0.1250000000000001 0  1 0.1500000000000002 0  1 0.1750000000000002 0  1 0.2000000000000003 0  1 0.2250000000000003 0  1 0.2500000000000004 0  1 0.2750000000000004 0  1 0.3000000000000003 0  1 0.3250000000000002 0  1 0.3500000000000001 0  1 0.3750000000000001 0  1 0.3999999999999999 0  1 0.425 0  1 0.45 0  1 0.475 0  1 0.5000000000000001 0  1 0.5249999999999999 0  0.025 0 0  0.05 0 0  0.075 0 0  0.1 0 0  0.125 0 0  0.15 0 0  0.175 0 0  0.2 0 0  0.225 0 0  0.25 0 0  0.275 0 0  0.3 0 0  0.325 0 0  0.35 0 0  0.375 0 0  0.4 0 0  0.425 0 0  0.45 0 0  0.475 0 0  0.5 0 0  0.525 0 0  0.55 0 0  0.575 0 0  0.6 0 0  0.625 0 0  0.65 0 0  0.675 0 0  0.7 0 0  0.725 0 0  0.75 0 0  0.775 0 0  0.8 0 0  0.825 0 0  0.85 0 0  0.875 0 0  0.9 0 0  0.925 0 0  0.95 0 0  0.975 0 0  0 0.3250000000000001 0  0 0.3 0  0 0.275 0  0 0.2499999999999999 0  0 0.2249999999999999 0  0 0.1999999999999998 0  0 0.1749999999999998 0  0 0.1499999999999998 0  0 0.1249999999999998 0  0 0.09999999999999987 0  0 0.07499999999999984 0  0 0.04999999999999993 0  0 0.02500000000000002 0  0.06453325334544308 0.4134708543086404 0  0.5146839915088474 0.02134387884913819 0  0.4875871001393628 0.9784117024331356 0  0.9386300160094723 0.5701776715936071 0  0.0216506350946109 0.6124999999999999 0  0.9764205887290853 0.3596067946540696 0  0.3876261045932067 0.02156097490657183 0  0.6125 0.978349364905389 0  0.3612127461797463 0.9792371404802113 0  0.6374786650398092 0.02079982608537345 0  0.9387185538472446 0.6295115890709873 0  0.05482260092545593 0.3633687091864355 0  0.02445354803948679 0.7343198207875321 0  0.2624888813627476 0.02091671348578122 0  0.7375212991274043 0.9794996488945376 0  0.9793010831723812 0.2648509348664836 0  0.2625026480689301 0.9795699185263282 0  0.7362840788105066 0.02225211062275217 0  0.02159327910297104 0.2128861809896528 0  0.9786837570973538 0.7867241244631172 0  0.02419728000065929 0.8365600234152764 0  0.980043283615984 0.1624097203408714 0  0.1645857434226354 0.0205513501962844 0  0.8339481359352011 0.9784483546369231 0  0.1637584777222821 0.9774556328160621 0  0.8374916614314967 0.02165097219510076 0  0.02171915379676059 0.5370700005916152 0  0.9795335762511281 0.4365726939225819 0  0.02319480745007968 0.1370197632171214 0  0.9774462976085161 0.8592616917551974 0  0.9786941241076723 0.7122511101067891 0  0.9797883857882621 0.08781864217752949 0  0.01966314788989931 0.9125801876811624 0  0.02051815350151098 0.2882126194470174 0  0.09063226699593246 0.0214884092697174 0  0.9124408843562394 0.9818463395009377 0  0.03872465516591678 0.452731089005145 0  0.08969424365256845 0.978412979507602 0  0.9124999999999999 0.02165063509461096 0  0.02158104789437187 0.6619299176372371 0  0.9796602354625652 0.4859004208706154 0  0.3127517983598529 0.02417963694738812 0  0.4375629605000894 0.02158039900821679 0  0.5643674594196073 0.01968996000301126 0  0.5368361594956101 0.9790428840407062 0  0.4376176251051295 0.9783667484208922 0  0.6874072695660477 0.978435143102373 0  0.310604317388614 0.979558305560928 0  0.2125577044121564 0.02066685543111635 0  0.6875 0.0216506350946109 0  0.02224009810917643 0.08811420611559456 0  0.790876428529276 0.978633065284896 0  0.2125 0.978349364905389 0  0.9788033534786624 0.2116925349935155 0  0.9769441169344462 0.3150381335760689 0  0.9804648376981185 0.9123186437266726 0  0.7874999988222203 0.02127957051165741 0  0.02109233852270731 0.786866823287435 0  0.9483709287873718 0.5504073206521916 0  0.9259842326464427 0.5519702047534598 0  0.9163209045278007 0.5719292915927929 0  0.9035374059862284 0.5537291796040291 0  0.8938951918780048 0.5738949757882954 0  0.8807940177559743 0.5546750869516996 0  0.8712661812741653 0.5757142549099102 0  0.8580668865514332 0.5563902430113601 0  0.848508161986991 0.5779004013072002 0  0.8354274200119249 0.5591176379057713 0  0.8256349826905482 0.5800610629400762 0  0.8124123591208572 0.5604454546391737 0  0.802603410938817 0.5819653950592523 0  0.7892876429890218 0.562234610648543 0  0.7794355871850538 0.583896242519796 0  0.7661469824381839 0.5648243426306435 0  0.7562387679604726 0.5860005456930413 0  0.7429651600512166 0.5669367633461588 0  0.7330846968880171 0.5879590907760761 0  0.7198577999459205 0.5688986880627463 0  0.7297050500533544 0.5479561801187277 0  0.7066243396993471 0.5499068108517552 0  0.6968285086900206 0.5707989520567972 0  0.6836266810714333 0.5519088927359967 0  0.6738604685766018 0.5727655091567184 0  0.6607284761452521 0.5538781923028128 0  0.6697149783704412 0.5321140554135094 0  0.6473436039782401 0.5350050604671006 0  0.6378867365666199 0.5557804038095817 0  0.6246915360243652 0.5362124690568238 0  0.6151175309583405 0.5575933164645619 0  0.6019784180102355 0.5380659376543677 0  0.5924099113505394 0.5593739656462906 0  0.5794110962027638 0.541110021814312 0  0.5697985396917309 0.5614600003719357 0  0.5568468707330213 0.5433212932327446 0  0.5472634011377896 0.5635652141280936 0  0.5343236363495072 0.5451361960661517 0  0.5247877773262166 0.565493591892781 0  0.5118927934227436 0.5470665328397559 0  0.5023398230005425 0.5674381114577953 0  0.5213991904098014 0.5267047787870831 0  0.4990390504096661 0.528649139287786 0  0.6328887517229864 0.5131744321062524 0  0.5085133205790763 0.5083322037773296 0  0.4861972978925295 0.5102540920324363 0  0.4956914791804768 0.4899605513008993 0  0.4734139980312694 0.4918582759645476 0  0.4826986629698439 0.4717164019717278 0  0.460570567761715 0.473509155475794 0  0.4699344541058981 0.4533140529328089 0  0.4477087341565655 0.4550973130597117 0  0.4381733274019614 0.4752901381741884 0  0.4570222843287571 0.4349938694701042 0  0.4348599018247688 0.436728068420533 0  0.5604623134382263 0.581815997002507 0  0.4443612964408632 0.416499823314016 0  0.422056299386984 0.4183730429856528 0  0.4688721528228815 0.4135009841763965 0  0.4315584877924544 0.398120546824229 0  0.4092288692044618 0.3999974286008185 0  0.7463210599443056 0.6070829843371945 0  0.4187270626688335 0.3797365044773463 0  0.3964262302393312 0.3817184136470017 0  0.3869780036193907 0.4018498778543814 0  0.3742423843122406 0.3837055716372927 0  0.3648701490102072 0.4037049758807119 0  0.3518115403926748 0.3858985036587403 0  0.3426146276710081 0.4056777495658291 0  0.3614541441355358 0.3656396497906528 0  0.339026673715919 0.3678724679736439 0  0.3485566370135618 0.3476560889674916 0  0.3264681821394378 0.3496422822523857 0  0.8219942777991693 0.5379143061758643 0  0.3358297439968608 0.3295117748868035 0  0.3137050884585635 0.3314921667582986 0  0.3229980644152205 0.3113561769498422 0  0.3007986024336577 0.3133063832007756 0  0.3441851868720173 0.3085211458266175 0  0.3101966551534752 0.2930273704914169 0  0.287793053707373 0.2950088132226583 0  0.2914417217227097 0.3337427541189321 0  0.2975120686695638 0.2743682539701985 0  0.274864585256681 0.2764253296978281 0  0.816026571618698 0.6006851919544112 0  0.2844672854128698 0.2557011565880619 0  0.2617267434509338 0.2577713002235077 0  0.3072711221189672 0.2536790056475094 0  0.2521588568690318 0.2785072139143895 0  0.2389277409161178 0.2598761196336353 0  0.248448076747058 0.2389478879785275 0  0.5053822153261678 0.4716915524631118 0  0.229548765875869 0.2806542761043101 0  0.2254561407802683 0.2411354049374563 0  0.2350621310805047 0.2199181955146378 0  0.2117782450160163 0.222165061041625 0  0.2214249125635323 0.2008136877065064 0  0.2448758256083499 0.1985732693215908 0  0.197966291680556 0.2031211006951591 0  0.1883147493074436 0.2245564097761413 0  0.8910637266939049 0.5322898364209732 0  0.1748136087708587 0.2051141748992724 0  0.1842088801696792 0.1837087814679069 0  0.1656574100807746 0.2269812054689968 0  0.3554582346764377 0.4236292557112198 0  0.3328979939923831 0.425459320867588 0  0.3460368767112177 0.4435398346083328 0  0.3238464003
[...]
<PointData  Tensors="$\sigma$"> 
<DataArray  type="Float64"  Name="$\sigma$"  NumberOfComponents="9" format="ascii">-1.2426616367469254e+02 -1.8706904704158131e+02 0.0000000000000000e+00 -1.8706904704158140e+02 -4.4243244275628956e+02 0.0000000000000000e+00 0.0000000000000000e+00 0.0000000000000000e+00 0.0000000000000000e+00  6.1407547411487076e+02 1.8461993619245899e+01 0.0000000000000000e+00 1.8461993619246055e+01 8.8691951736748542e+03 0.0000000000000000e+00 0.0000000000000000e+00 0.0000000000000000e+00 0.0000000000000000e+00  -1.0251925065680773e+02 2.2018494701643181e+02 0.0000000000000000e+00 2.2018494701643192e+02 -4.6103252050544245e+02 0.0000000000000000e+00 0.0000000000000000e+00 0.0000000000000000e+00 0.0000000000000000e+00  4.0706391803986559e-02 3.4843667716748250e-01 0.0000000000000000e+00 3.4843667716748211e-01 2.8133424471192711e+03 0.0000000000000000e+00 0.0000000000000000e+00 0.0000000000000000e+00 0.0000000000000000e+00  4.1088535763014516e-01 -3.8233263852043814e-02 0.0000000000000000e+00 -3.8233263852046159e-02 2.7288161820496684e+03 0.0000000000000000e+00 0.0000000000000000e+00 0.0000000000000000e+00 0.0000000000000000e+00  -1.3822904744968554e+02 -2.1229872430381923e+02 0.0000000000000000e+00 -2.1229872430381920e+02 -5.2604547448732895e+01 0.0000000000000000e+00 0.0000000000000000e+00 0.0000000000000000e+00 0.0000000000000000e+00  9.2039383377075637e+01 -5.3197692164035615e+01 0.0000000000000000e+00 -5.3197692164035509e+01 7.4396715016841412e+01 0.0000000000000000e+00 0.0000000000000000e+00 0.0000000000000000e+00 0.0000000000000000e+00  -9.8603439416868013e-02 5.8740936450927456e-02 0.0000000000000000e+00 5.8740936450927740e-02 2.8144624822648311e+03 0.0000000000000000e+00 0.0000000000000000e+00 0.0000000000000000e+00 0.0000000000000000e+00  8.0400608718951366e+02 3.3433917422130281e+02 0.0000000000000000e+00 3.3433917422130293e+02 2.9478017822170577e+03 0.0000000000000000e+00 0.0000000000000000e+00 0.0000000000000000e+00 0.0000000000000000e+00  4.5237466303218633e+02 4.0608764876117664e+02 0.0000000000000000e+00 4.0608764876117647e+02 3.7248107981824216e+02 0.0000000000000000e+00 0.0000000000000000e+00 0.0000000000000000e+00 0.0000000000000000e+00  1.4766302512150305e+03 1.7531128755679445e+03 0.0000000000000000e+00 1.7531128755679454e+03 2.4006889889090294e+03 0.0000000000000000e+00 0.0000000000000000e+00 0.0000000000000000e+00 0.0000000000000000e+00  1.2226696174494177e+03 2.1264681309454331e+03 0.0000000000000000e+00 2.1264681309454327e+03 6.6935546171208180e+03 0.0000000000000000e+00 0.0000000000000000e+00 0.0000000000000000e+00 0.0000000000000000e+00  1.2060358451794175e+03 -2.1476457198584608e+03 0.0000000000000000e+00 -2.1476457198584612e+03 6.6717945042639276e+03 0.0000000000000000e+00 0.0000000000000000e+00 0.0000000000000000e+00 0.0000000000000000e+00  1.4651617422720572e+03 -1.7199855150860342e+03 0.0000000000000000e+00 -1.7199855150860351e+03 2.5467430479368404e+03 0.0000000000000000e+00 0.0000000000000000e+00 0.0000000000000000e+00 0.0000000000000000e+00  4.3766583283520657e+02 -4.3565497419196123e+02 0.0000000000000000e+00 -4.3565497419196191e+02 3.6120018158488642e+02 0.0000000000000000e+00 0.0000000000000000e+00 0.0000000000000000e+00 0.0000000000000000e+00  2.1674896678517673e-03 -1.2644278554476110e-01 0.0000000000000000e+00 -1.2644278554476074e-01 2.8120951247807920e+03 0.0000000000000000e+00 0.0000000000000000e+00 0.0000000000000000e+00 0.0000000000000000e+00  1.5213303957928236e-02 -4.4516973765037371e-01 0.0000000000000000e+00 -4.4516973765037104e-01 2.8100183259599635e+03 0.0000000000000000e+00 0.0000000000000000e+00 0.0000000000000000e+00 0.0000000000000000e+00  1.9651442074465361e-01 -4.5428099294241214e-01 0.0000000000000000e+00 -4.5428099294241081e-01 2.8063867908198686e+03 0.0000000000000000e+00 0.0000000000000000e+00 0.0000000000000000e+00 0.0000000000000000e+00  -1.5232252825403350e-01 -4.2786055954725483e-01 0.0000000000000000e+00 -4.2786055954725616e-01 2.8008529860788708e+03 0.0000000000000000e+00 0.0000000000000000e+00 0.0000000000000000e+00 0.0000000000000000e+00  1.1657495684062091e-01 -7.5844280339188552e-01 0.0000000000000000e+00 -7.5844280339188730e-01 2.7934874258330929e+03 0.0000000000000000e+00 0.0000000000000000e+00 0.0000000000000000e+00 0.0000000000000000e+00  4.7881752360242752e-01 -1.4259999166032782e+00 0.0000000000000000e+00 -1.4259999166032757e+00 2.7855727851045999e+03 0.0000000000000000e+00 0.0000000000000000e+00 0.0000000000000000e+00 0.0000000000000000e+00  -7.3821841782183775e-02 -1.1375609363199362e+00 0.0000000000000000e+00 -1.1375609363199344e+00 2.7716667170815335e+03 0.0000000000000000e+00 0.0000000000000000e+00 0.0000000000000000e+00 0.0000000000000000e+00  5.8758463291298732e-03 -1.6956773476955695e+00 0.0000000000000000e+00 -1.6956773476955707e+00 2.7585510753123071e+03 0.0000000000000000e+00 0.0000000000000000e+00 0.0000000000000000e+00 0.0000000000000000e+00  6.1350320814311854e-01 -2.3107137989140862e+00 0.0000000000000000e+00 -2.3107137989140853e+00 2.7414434718214939e+03 0.0000000000000000e+00 0.0000000000000000e+00 0.0000000000000000e+00 0.0000000000000000e+00  6.4608647074699332e-01 -2.7434364426749882e+00 0.0000000000000000e+00 -2.7434364426749829e+00 2.7216646098889209e+03 0.0000000000000000e+00 0.0000000000000000e+00 0.0000000000000000e+00 0.0000000000000000e+00  2.4646658852537098e-01 -3.5887249061844599e+00 0.0000000000000000e+00 -3.5887249061844435e+00 2.6858443892887121e+03 0.0000000000000000e+00 0.0000000000000000e+00 0.0000000000000000e+00 0.0000000000000000e+00  2.4024588477229372e-01 -5.9398687140781847e+00 0.0000000000000000e+00 -5.9398687140781812e+00 2.6632515754200767e+03 0.0000000000000000e+00 0.0000000000000000e+00 0.0000000000000000e+00 0.0000000000000000e+00  4.0396819199230646e-02 -4.5706234981900788e+00 0.0000000000000000e+00 -4.5706234981900806e+00 2.6096931849200205e+03 0.0000000000000000e+00 0.0000000000000000e+00 0.0000000000000000e+00 0.0000000000000000e+00  1.2472757627573670e+00 -6.9183318577977255e+00 0.0000000000000000e+00 -6.9183318577977353e+00 2.5597670145230340e+03 0.0000000000000000e+00 0.0000000000000000e+00 0.0000000000000000e+00 0.0000000000000000e+00  3.0679105001423856e+00 -4.1445271447166405e+00 0.0000000000000000e+00 -4.1445271447166938e+00 2.4794728840489529e+03 0.0000000000000000e+00 0.0000000000000000e+00 0.0000000000000000e+00 0.0000000000000000e+00  -1.5715510597710896e+00 -9.3592845409860637e+00 0.0000000000000000e+00 -9.3592845409860193e+00 2.3799918771823263e+03 0.0000000000000000e+00 0.0000000000000000e+00 0.0000000000000000e+00 0.0000000000000000e+00  9.7793723731406885e+00 -2.5564527495941377e+01 0.0000000000000000e+00 -2.5564527495941395e+01 2.2222645134051154e+03 0.0000000000000000e+00 0.0000000000000000e+00 0.0000000000000000e+00 0.0000000000000000e+00  -4.2421183782446539e+00 -2.0378361631848730e+01 0.0000000000000000e+00 -2.0378361631848691e+01 2.0051275025413590e+03 0.0000000000000000e+00 0.0000000000000000e+00 0.0000000000000000e+00 0.0000000000000000e+00  1.1501186518018065e+01 -7.4718824073542464e+01 0.0000000000000000e+00 -7.4718824073542521e+01 1.6535017701031713e+03 0.0000000000000000e+00 0.0000000000000000e+00 0.0000000000000000e+00 0.0000000000000000e+00  -2.7663795305631517e+01 -8.9582713481584264e+01 0.0000000000000000e+00 -8.9582713481584179e+01 1.1179696935685447e+03 0.0000000000000000e+00 0.0000000000000000e+00 0.0000000000000000e+00 0.0000000000000000e+00  9.2583831665657740e+01 -1.0299320705285447e+02 0.0000000000000000e+00 -1.0299320705285442e+02 4.1159417467864967e+02 0.0000000000000000e+00 0.0000000000000000e+00 0.0000000000000000e+00 0.0000000000000000e+00  -2.2322351515238750e+00 1.2127993208217565e-01 0.0000000000000000e+00 1.2127993208217354e-01 2.7348711509569243e+03 0.0000000000000000e+00 0.0000000000000000e+00 0.0000000000000000e+00 0.0000000000000000e+00  -1.1654312518433079e+01 1.0793658348709408e-01 0.0000000000000000e+00 1.0793658348709599e-01 2.7527833366743903e+03 0.0000000000000000e+00 0.0000000000000000e+00 0.0000000000000000e+00 0.0000000000000000e+00  -2.5675251685696612e+01 7.5502889682865637e-01 0.0000000000000000e+00 7.5502889682865915e-01 2.7795785958331203e+03 0.0000000000000000e+00 0.0000000000000000e+00 0.0000000000000000e+00 0.0000000000000000e+00  -4.2363789532670147e+01 2.4688204750835327e-01 0.0000000000000000e+00 2.4688204750836062e-01 2.8102155785353448e+03 0.0000000000000000e+00 0.0000000000000000e+00 0.0000000000000000e+00 0.0000000000000000e+00  -5.6526697245186639e+01 1.2241942950176194e+00 0.0000000000000000e+00 1.2241942950176254e+00 2.8484192643724550e+03 0.0000000000000000e+00 0.0000000000000000e+00 0.0000000000000000e+00 0.0000000000000000e+00  -7.1282198282805382e+01 -1.9933678711589822e-02 0.0000000000000000e+00 -1.9933678711585485e-02 2.8854212570435520e+03 0.0000000000000000e+00 0.0000000000000000e+00 0.0000000000000000e+00 0.0000000000000000e+00  -8.5878606044934912e+01 -3.8602563472898734e-02 0.0000000000000000e+00 -3.8602563472897714e-02 2.9168727272317733e+03 0.0000000000000000e+00 0.0000000000000000e+00 0.0000000000000000e+00 0.0000000000000000e+00  -9.2756479347413759e+01 -2.6482514258599682e-01 0.0000000000000000e+00 -2.6482514258599488e-01 2.9513747981544316e+03 0.0000000000000000e+00 0.0000000000000000e+00 0.0000000000000000e+00 0.0000000000000000e+00  -9.9758884282490371e+01 1.0989678512477548e-01 0.0000000000000000e+00 1.0989678512477409e-01 2.9729704183604945e+03 0.0000000000000000e+00 0.0000000000000000e+00 0.0000000000000000e+00 0.0000000000000000e+00  -1.0402144500819522e+02 -3.5058763674314808e-01 0.0000000000000000e+00 -3.5058763674314775e-01 2.9942229707750353e+03 0.0000000000000000e+00 0.0000000000000000e+00 0.0000000000000000e+00 0.0000000000000000e+00  -1.0469554370383857e+02 -3.9176640697967252e-01 0.0000000000000000e+00 -3.9176640697967219e-01 3.0104742049765832e+03 0.0000000000000000e+00 0.0000000000000000e+00 0.0000000000000000e+00 0.0000000000000000e+00  -1.0357518926636125e+02 -5.2293755909115680e-01 0.0000000000000000e+00 -5.2293755909115747e-01 3.0214719376288363e+03 0.0000000000000000e+00 0.0000000000000000e+00 0.0000000000000000e+00 0.0000000000000000e+00  -1.0105949322086022e+02 -3.6108287120172866e-01 0.0000000000000000e+00 -3.6108287120172911e-01 3.0293681531457396e+03 0.0000000000000000e+00 0.0000000000000000e+00 0.0000000000000000e+00 0.0000000000000000e+00  -9.7818204552831659e+01 -3.1440577158536775e-01 0.0000000000000000e+00 -3.1440577158537092e-01 3.0342648510590079e+03 0.0000000000000000e+00 0.0000000000000000e+00 0.0000000000000000e+00 0.0000000000000000e+00  -9.3665976068855443e+01 -3.3591516411646039e-01 0.0000000000000000e+00 -3.3591516411646022e-01 3.0362720598768874e+03 0.0000000000000000e+00 0.0000000000000000e+00 0.0000000000000000e+00 0.0000000000000000e+00  -8.9451658156769469e+01 -3.5784814816034294e-01 0.0000000000000000e+00 -3.5784814816034316e-01 3.0363934294759865e+03 0.0000000000000000e+00 0.0000000000000000e+00 0.0000000000000000e+00 0.0000000000000000e+00  -8.5305932712988835e+01 -2.5575264240718348e-01 0.0000000000000000e+00 -2.5575264240718321e-01 3.0346707439808870e+03 0.0000000000000000e+00 0.0000000000000000e+00 0.0000000000000000e+00 0.0000000000000000e+00  -8.1334003192261079e+01 -2.4917602120526283e-01 0.0000000000000000e+00 -2.4917602120526330e-01 3.0318045231565529e+03 0.0000000000000000e+00 0.0000000000000000e+00 0.0000000000000000e+00 0.0000000000000000e+00  -7.7622778903344908e+01 -1.5507652000089489e-01 0.0000000000000000e+00 -1.5507652000089558e-01 3.0277846975212678e+03 0.0000000000000000e+00 0.0000000000000000e+00 0.0000000000000000e+00 0.0000000000000000e+00  -7.4194425341054568e+01 -1.1377957390772481e-01 0.0000000000000000e+00 -1.1377957390772386e-01 3.0226848573460734e+03 0.0000000000000000e+00 0.0000000000000000e+00 0.0000000000000000e+00 0.0000000000000000e+00  -7.1117836977479897e+01 -6.6190487134405590e-02 0.0000000000000000e+00 -6.6190487134406936e-02 3.0168339882962159e+03 0.0000000000000000e+00 0.0000000000000000e+00 0.0000000000000000e+00 0.0000000000000000e+00  -6.8122924160387612e+01 -3.2608961293193101e-02 0.0000000000000000e+00 -3.2608961293193801e-02 3.0102038462787932e+03 0.0000000000000000e+00 0.0000000000000000e+00 0.0000000000000000e+00 0.0000000000000000e+00  -6.5479816242959330e+01 3.7555682765068229e-04 0.0000000000000000e+00 3.7555682765178416e-04 3.0026547807235388e+03 0.0000000000000000e+00 0.0000000000000000e+00 0.0000000000000000e+00 0.0000000000000000e+00  -6.2596929734778271e+01 -2.7446251303900202e-02 0.0000000000000000e+00 -2.7446251303900368e-02 2.9943154360388216e+03 0.0000000000000000e+00 0.0000000000000000e+00 0.0000000000000000e+00 0.0000000000000000e+00  -5.9938135109990839e+01 -3.5500844842199251e-02 0.0000000000000000e+00 -3.5500844842199362e-02 2.9852830894869767e+03 0.0000000000000000e+00 0.0000000000000000e+00 0.0000000000000000e+00 0.0000000000000000e+00  -5.6853973150620604e+01 4.5853107384683955e-02 0.0000000000000000e+00 4.5853107384685267e-02 2.9752098142563696e+03 0.0000000000000000e+00 0.0000000000000000e+00 0.0000000000000000e+00 0.0000000000000000e+00  -5.3592963547465040e+01 3.5318322306415701e-04 0.0000000000000000e+00 3.5318322306330510e-04 2.9639659058053512e+03 0.0000000000000000e+00 0.0000000000000000e+00 0.0000000000000000e+00 0.0000000000000000e+00  -5.0026892646727880e+01 5.3621265368876604e-02 0.0000000000000000e+00 5.3621265368876819e-02 2.9521570838714124e+03 0.0000000000000000e+00 0.0000000000000000e+00 0.0000000000000000e+00 0.0000000000000000e+00  -4.5884149268750008e+01 8.6680946497001116e-02 0.0000000000000000e+00 8.6680946497001365e-02 2.9396633117388960e+03 0.0000000000000000e+00 0.0000000000000000e+00 0.0000000000000000e+00 0.0000000000000000e+00  -4.1643207680271061e+01 7.1116619921252284e-03 0.0000000000000000e+00 7.1116619921247470e-03 2.9256937136925530e+03 0.0000000000000000e+00 0.0000000000000000e+00 0.0000000000000000e+00 0.0000000000000000e+00  -3.6492421706280624e+01 -2.3151343151585631e-02 0.0000000000000000e+00 -2.3151343151586446e-02 2.9119607103412400e+03 0.0000000000000000e+00 0.0000000000000000e+00 0.0000000000000000e+00 0.0000000000000000e+00  -3.1616176300677676e+01 -9.3274880139849747e-02 0.0000000000000000e+00 -9.3274880139846222e-02 2.8970357684213236e+03 0.0000000000000000e+00 0.0000000000000000e+00 0.0000000000000000e+00 0.0000000000000000e+00  -2.5883239672225923e+01 -5.4355778160073802e-02 0.0000000000000000e+00 -5.4355778160076057e-02 2.8824935890330648e+03 0.0000000000000000e+00 0.0000000000000000e+00 0.0000000000000000e+00 0.0000000000000000e+00  -2.0380500980192370e+01 -1.4696126860567341e-01 0.0000000000000000e+00 -1.4696126860567452e-01 2.8689370050189200e+03 0.0000000000000000e+00 0.0000000000000000e+00 0.0000000000000000e+00 0.0000000000000000e+00  -1.4979222058730379e+01 -5.3291799865653230e-02 0.0000000000000000e+00 -5.3291799865654833e-02 2.8554842631749043e+03 0.0000000000000000e+00 0.0000000000000000e+00 0.0000000000000000e+00 0.0000000000000000e+00  -1.0079180506201920e+01 -1.5704789140155839e-02 0.0000000000000000e+00 -1.5704789140153823e-02 2.8427030348141220e+03 0.0000000000000000e+00 0.0000000000000000e+00 0.0000000000000000e+00 0.0000000000000000e+00  -5.9108733308563437e+00 -5.1070587460291667e-02 0.0000000000000000e+00 -5.1070587460290411e-02 2.8319426481937903e+03 0.0000000000000000e+00 0.0000000000000000e+00 0.0000000000000000e+00 0.0000000000000000e+00  -2.6930467122525457e+00 3.2143712235871313e-02 0.0000000000000000e+00 3.2143712235872736e-02 2.8229207275776976e+03 0.0000000000000000e+00 0.0000000000000000e+00 0.0000000000000000e+00 0.0000000000000000e+00  -3.8309929938207543e-01 9.3276699433755980e-02 0.0000000000000000e+00 9.3276699433755175e-02 2.8167499939271020e+03 0.0000000000000000e+00 0.0000000000000000e+00 0.0000000000000000e+00 0.0000000000000000e+00  9.8594674995519043e+01 5.7308681411470062e+01 0.0000000000000000e+00 5.7308681411470438e+01 3.3494616881370888e+02 0.0000000000000000e+00 0.0000000000000000e+00 0.0000000000000000e+00 0.0000000000000000e+00  4.3335084111777363e+01 7.3828216242924825e+01 0.0000000000000000e+00 7.3828216242924782e+01 1.1690885591953904e+03 0.0000000000000000e+00 0.0000000000000000e+00 0.0000000000000000e+00 0.0000000000000000e+00  -5.4186506700657810e+00 2.9157095075558090e+01 0.0000000000000000e+00 2.9157095075558168e+01 1.6692271652204411e+03 0.0000000000000000e+00 0.0000000000000000e+00 0.0000000000000000e+00 0.0000000000000000e+00  2.4570098117424688e+01 3.1222824144810620e+01 0.0000000000000000e+00 3.1222824144810698e+01 2.0501617351465702e+03 0.0000000000000000e+00 0.0000000000000000e+00 0.0000000000000000e+00 0.0000000000000000e+00  -2.4202653315164553e+00 4.5291536183712067e+00 0.0000000000000000e+00 4.5291536183713275e+00 2.2501971774338131e+03 0.0000000000000000e+00 0.0000000000000000e+00 0.0000000000000000e+00 0.0000000000000000e+00  8.6563352607837274e+00 1.2027344743558581e+01 0.0000000000000000e+00 1.2027344743558587e+01 2.4039681286362502e+03 0.0000000000000000e+00 0.0000000000000000e+00 0.0000000000000000e+00 0.0000000000000000e+00  -8.1797589655172986e-01 9.5448572691006373e+00 0.0000000000000000e+00 9.5448572691005982e+00 2.5105358674908261e+03 0.0000000000000000e+00 0.0000000000000000e+00 0.0000000000000000e+00 0.0000000000000000e+00  3.5499901030180754e-02 8.2576808630968408e+00 0.0000000000000000e+00 8.2576808630968266e+00 2.5700302667624251e+03 0.0000000000000000e+00 0.0000000000000000e+00 0.0000000000000000e+00 0.0000000000000000e+00  1.0854187097836876e+00 4.9017389408194996e+00 0.0000000000000000e+00 4.9017389408195084e+00 2.6343273093007174e+03 0.0000000000000000e+00 0.0000000000000000e+00 0.0000000000000000e+00 0.0000000000000000e+00  1.3329044148486915e+00 3.8384849132824561e+00 0.0000000000000000e+00 3.8384849132824588e+00 2.6709398705972535e+03 0.0000000000000000e+00 0.0000000000000000e+00 0.0000000000000000e+00 0.0000000000000000e+00  -7.6457855150819820e-01 6.0324424122709785e-01 0.0000000000000000e+00 6.0324424122710152e-01 2.6985112695904677e+03 0.0000000000000000e+00 0.0000000000000000e+00 0.0000000000000000e+00 0.0000000000000000e+00  1.4078851252933020e+00 1.4084966174024327e+00 0.0000000000000000e+00 1.4084966174024354e+00 2.7143565128486316e+03 0.0000000000000000e+00 0.0000000000000000e+00 0.0000000000000000e+00 0.0000000000000000e+00  -3.2281516254660014e-01 4.4085149309763194e-01 0.0000000000000000e+00 4.4085149309763560e-01 2.7271214332013342e+03 0.0000000000000000e+00 0.0000000000000000e+00 0.0000000000000000e+00 0.0000000000000000e+00  6.0044696243365024e+02 5.4042055790817847e+02 0.0000000000000000e+00 5.4042055790817835e+02 4.1647812451866656e+02 0.0000000000000000e+00 0.0000000000000000e+00 0.0000000000000000e+00 0.0000000000000000e+00  1.6641060687289028e+03 2.1532571382484657e+03 0.0000000000000000e+00 2.1532571382484648e+03 3.8769785960786885e+03 0.0000000000000000e+00 0.0000000000000000e+00 0.0000000000000000e+00 0.0000000000000000e+00  6.7385709006382945e+02 1.5423989635764624e+03 0.0000000000000000e+00 1.5423989635764613e+03 7.9797862903097548e+03 0.0000000000000000e+00 0.0000000000000000e+00 0.0000000000000000e+00 0.0000000000000000e+00  1.1191479343645067e+03 -1.0243636456408994e+03 0.0000000000000000e+00 -1.0243636456408992e+03 7.4997836092171901e+03 0.0000000000000000e+00 0.0000000000000000e+00 0.0000000000000000e+00 0.0000000000000000e+00  1.1214789139040040e+03 -2.1899505842162425e+03 0.0000000000000000e+00 -2.1899505842162430e+03 3.9146502401916182e+03 0.0000000000000000e+00 0.0000000000000000e+00 0.0000000000000000e+00 0.0000000000000000e+00  5.8355116823517164e+02 -6.4245063685643674e+02 0.0000000000000000e+00 -6.4245063685643709e+02 6.2242901044581117e+02 0.0000000000000000e+00 0.0000000000000000e+00 0.0000000000000000e+00 0.0000000000000000e+00  4.1269778803166478e-02 -2.1188496308974078e-01 0.0000000000000000e+00 -2.1188496308974089e-01 2.8138380417213193e+03 0.0000000000000000e+00 0.0000000000000000e+00 0