<?xml version="1.0"?>
<VTKFile type="UnstructuredGrid"  version="0.1"  >
<UnstructuredGrid>
<Piece  NumberOfPoints="2165" NumberOfCells="4161">
<Points>
<DataArray  type="Float64"  NumberOfComponents="3"  format="ascii">-3.598637933768527e-16 0.3500000000000001 0  0.05 0.4 0  -3.537405593811159e-16 0.45 0  0 1 0  1 1 0  0.9999999999999997 0.65 0  0.9999999999999997 0.5499999999999999 0  1 0 0  0 0 0  0.0191341716182545 0.3538060233744357 0  0.03535533905932737 0.3646446609406727 0  0.04619397662556433 0.3808658283817455 0  0.04619397662556434 0.4191341716182545 0  0.03535533905932738 0.4353553390593274 0  0.01913417161825449 0.4461939766255644 0  0 0.975 0  0 0.95 0  0 0.9249999999999999 0  0 0.8999999999999998 0  0 0.8749999999999998 0  0 0.8499999999999998 0  0 0.8249999999999997 0  0 0.7999999999999996 0  0 0.7749999999999996 0  0 0.7499999999999996 0  0 0.7249999999999996 0  0 0.6999999999999997 0  0 0.6749999999999998 0  0 0.6499999999999999 0  0 0.6249999999999999 0  0 0.6 0  0 0.575 0  0 0.5499999999999998 0  0 0.5249999999999999 0  0 0.4999999999999998 0  0 0.4749999999999999 0  0.975 1 0  0.95 1 0  0.925 1 0  0.9 1 0  0.875 1 0  0.85 1 0  0.825 1 0  0.8 1 0  0.775 1 0  0.75 1 0  0.725 1 0  0.7 1 0  0.675 1 0  0.65 1 0  0.625 1 0  0.6 1 0  0.575 1 0  0.55 1 0  0.525 1 0  0.5 1 0  0.475 1 0  0.45 1 0  0.425 1 0  0.4 1 0  0.375 1 0  0.35 1 0  0.325 1 0  0.3 1 0  0.275 1 0  0.25 1 0  0.225 1 0  0.2 1 0  0.175 1 0  0.15 1 0  0.125 1 0  0.09999999999999998 1 0  0.07499999999999996 1 0  0.05000000000000004 1 0  0.02500000000000002 1 0  1 0.675 0  1 0.7000000000000001 0  1 0.7250000000000001 0  1 0.7500000000000001 0  1 0.7750000000000001 0  1 0.8000000000000002 0  1 0.8250000000000002 0  1 0.8500000000000002 0  1 0.8750000000000003 0  1 0.9000000000000001 0  1 0.9250000000000002 0  1 0.9500000000000001 0  1 0.9750000000000001 0  0.9783058130441221 0.6450484433951209 0  0.9609084258765985 0.6311744900929367 0  0.9512536043909088 0.6111260466978157 0  0.9512536043909088 0.5888739533021843 0  0.9609084258765985 0.5688255099070633 0  0.9783058130441221 0.554951556604879 0  1 0.02500000000000002 0  1 0.05000000000000004 0  1 0.07500000000000008 0  1 0.1000000000000001 0  1 0.1250000000000001 0  1 0.1500000000000002 0  1 0.1750000000000002 0  1 0.2000000000000003 0  1 0.2250000000000003 0  1 0.2500000000000004 0  1 0.2750000000000004 0  1 0.3000000000000003 0  1 0.3250000000000002 0  1 0.3500000000000001 0  1 0.3750000000000001 0  1 0.3999999999999999 0  1 0.425 0  1 0.45 0  1 0.475 0  1 0.5000000000000001 0  1 0.5249999999999999 0  0.025 0 0  0.05 0 0  0.075 0 0  0.1 0 0  0.125 0 0  0.15 0 0  0.175 0 0  0.2 0 0  0.225 0 0  0.25 0 0  0.275 0 0  0.3 0 0  0.325 0 0  0.35 0 0  0.375 0 0  0.4 0 0  0.425 0 0  0.45 0 0  0.475 0 0  0.5 0 0  0.525 0 0  0.55 0 0  0.575 0 0  0.6 0 0  0.625 0 0  0.65 0 0  0.675 0 0  0.7 0 0  0.725 0 0  0.75 0 0  0.775 0 0  0.8 0 0  0.825 0 0  0.85 0 0  0.875 0 0  0.9 0 0  0.925 0 0  0.95 0 0  0.975 0 0  0 0.3250000000000001 0  0 0.3 0  0 0.275 0  0 0.2499999999999999 0  0 0.2249999999999999 0  0 0.1999999999999998 0  0 0.1749999999999998 0  0 0.1499999999999998 0  0 0.1249999999999998 0  0 0.09999999999999987 0  0 0.07499999999999984 0  0 0.04999999999999993 0  0 0.02500000000000002 0  0.06453325334544308 0.4134708543086404 0  0.5146839915088474 0.02134387884913819 0  0.4875871001393628 0.9784117024331356 0  0.9386300160094723 0.5701776715936071 0  0.0216506350946109 0.6124999999999999 0  0.9764205887290853 0.3596067946540696 0  0.3876261045932067 0.02156097490657183 0  0.6125 0.978349364905389 0  0.3612127461797463 0.9792371404802113 0  0.6374786650398092 0.02079982608537345 0  0.9387185538472446 0.6295115890709873 0  0.05482260092545593 0.3633687091864355 0  0.02445354803948679 0.7343198207875321 0  0.2624888813627476 0.02091671348578122 0  0.7375212991274043 0.9794996488945376 0  0.9793010831723812 0.2648509348664836 0  0.2625026480689301 0.9795699185263282 0  0.7362840788105066 0.02225211062275217 0  0.02159327910297104 0.2128861809896528 0  0.9786837570973538 0.7867241244631172 0  0.02419728000065929 0.8365600234152764 0  0.980043283615984 0.1624097203408714 0  0.1645857434226354 0.0205513501962844 0  0.8339481359352011 0.9784483546369231 0  0.1637584777222821 0.9774556328160621 0  0.8374916614314967 0.02165097219510076 0  0.02171915379676059 0.5370700005916152 0  0.9795335762511281 0.4365726939225819 0  0.02319480745007968 0.1370197632171214 0  0.9774462976085161 0.8592616917551974 0  0.9786941241076723 0.7122511101067891 0  0.9797883857882621 0.08781864217752949 0  0.01966314788989931 0.9125801876811624 0  0.02051815350151098 0.2882126194470174 0  0.09063226699593246 0.0214884092697174 0  0.9124408843562394 0.9818463395009377 0  0.03872465516591678 0.452731089005145 0  0.08969424365256845 0.978412979507602 0  0.9124999999999999 0.02165063509461096 0  0.02158104789437187 0.6619299176372371 0  0.9796602354625652 0.4859004208706154 0  0.3127517983598529 0.02417963694738812 0  0.4375629605000894 0.02158039900821679 0  0.5643674594196073 0.01968996000301126 0  0.5368361594956101 0.9790428840407062 0  0.4376176251051295 0.9783667484208922 0  0.6874072695660477 0.978435143102373 0  0.310604317388614 0.979558305560928 0  0.2125577044121564 0.02066685543111635 0  0.6875 0.0216506350946109 0  0.02224009810917643 0.08811420611559456 0  0.790876428529276 0.978633065284896 0  0.2125 0.978349364905389 0  0.9788033534786624 0.2116925349935155 0  0.9769441169344462 0.3150381335760689 0  0.9804648376981185 0.9123186437266726 0  0.7874999988222203 0.02127957051165741 0  0.02109233852270731 0.786866823287435 0  0.9483709287873718 0.5504073206521916 0  0.9259842326464427 0.5519702047534598 0  0.9163209045278007 0.5719292915927929 0  0.9035374059862284 0.5537291796040291 0  0.8938951918780048 0.5738949757882954 0  0.8807940177559743 0.5546750869516996 0  0.8712661812741653 0.5757142549099102 0  0.8580668865514332 0.5563902430113601 0  0.848508161986991 0.5779004013072002 0  0.8354274200119249 0.5591176379057713 0  0.8256349826905482 0.5800610629400762 0  0.8124123591208572 0.5604454546391737 0  0.802603410938817 0.5819653950592523 0  0.7892876429890218 0.562234610648543 0  0.7794355871850538 0.583896242519796 0  0.7661469824381839 0.5648243426306435 0  0.7562387679604726 0.5860005456930413 0  0.7429651600512166 0.5669367633461588 0  0.7330846968880171 0.5879590907760761 0  0.7198577999459205 0.5688986880627463 0  0.7297050500533544 0.5479561801187277 0  0.7066243396993471 0.5499068108517552 0  0.6968285086900206 0.5707989520567972 0  0.6836266810714333 0.5519088927359967 0  0.6738604685766018 0.5727655091567184 0  0.6607284761452521 0.5538781923028128 0  0.6697149783704412 0.5321140554135094 0  0.6473436039782401 0.5350050604671006 0  0.6378867365666199 0.5557804038095817 0  0.6246915360243652 0.5362124690568238 0  0.6151175309583405 0.5575933164645619 0  0.6019784180102355 0.5380659376543677 0  0.5924099113505394 0.5593739656462906 0  0.5794110962027638 0.541110021814312 0  0.5697985396917309 0.5614600003719357 0  0.5568468707330213 0.5433212932327446 0  0.5472634011377896 0.5635652141280936 0  0.5343236363495072 0.5451361960661517 0  0.5247877773262166 0.565493591892781 0  0.5118927934227436 0.5470665328397559 0  0.5023398230005425 0.5674381114577953 0  0.5213991904098014 0.5267047787870831 0  0.4990390504096661 0.528649139287786 0  0.6328887517229864 0.5131744321062524 0  0.5085133205790763 0.5083322037773296 0  0.4861972978925295 0.5102540920324363 0  0.4956914791804768 0.4899605513008993 0  0.4734139980312694 0.4918582759645476 0  0.4826986629698439 0.4717164019717278 0  0.460570567761715 0.473509155475794 0  0.4699344541058981 0.4533140529328089 0  0.4477087341565655 0.4550973130597117 0  0.4381733274019614 0.4752901381741884 0  0.4570222843287571 0.4349938694701042 0  0.4348599018247688 0.436728068420533 0  0.5604623134382263 0.581815997002507 0  0.4443612964408632 0.416499823314016 0  0.422056299386984 0.4183730429856528 0  0.4688721528228815 0.4135009841763965 0  0.4315584877924544 0.398120546824229 0  0.4092288692044618 0.3999974286008185 0  0.7463210599443056 0.6070829843371945 0  0.4187270626688335 0.3797365044773463 0  0.3964262302393312 0.3817184136470017 0  0.3869780036193907 0.4018498778543814 0  0.3742423843122406 0.3837055716372927 0  0.3648701490102072 0.4037049758807119 0  0.3518115403926748 0.3858985036587403 0  0.3426146276710081 0.4056777495658291 0  0.3614541441355358 0.3656396497906528 0  0.339026673715919 0.3678724679736439 0  0.3485566370135618 0.3476560889674916 0  0.3264681821394378 0.3496422822523857 0  0.8219942777991693 0.5379143061758643 0  0.3358297439968608 0.3295117748868035 0  0.3137050884585635 0.3314921667582986 0  0.3229980644152205 0.3113561769498422 0  0.3007986024336577 0.3133063832007756 0  0.3441851868720173 0.3085211458266175 0  0.3101966551534752 0.2930273704914169 0  0.287793053707373 0.2950088132226583 0  0.2914417217227097 0.3337427541189321 0  0.2975120686695638 0.2743682539701985 0  0.274864585256681 0.2764253296978281 0  0.816026571618698 0.6006851919544112 0  0.2844672854128698 0.2557011565880619 0  0.2617267434509338 0.2577713002235077 0  0.3072711221189672 0.2536790056475094 0  0.2521588568690318 0.2785072139143895 0  0.2389277409161178 0.2598761196336353 0  0.248448076747058 0.2389478879785275 0  0.5053822153261678 0.4716915524631118 0  0.229548765875869 0.2806542761043101 0  0.2254561407802683 0.2411354049374563 0  0.2350621310805047 0.2199181955146378 0  0.2117782450160163 0.222165061041625 0  0.2214249125635323 0.2008136877065064 0  0.2448758256083499 0.1985732693215908 0  0.197966291680556 0.2031211006951591 0  0.1883147493074436 0.2245564097761413 0  0.8910637266939049 0.5322898364209732 0  0.1748136087708587 0.2051141748992724 0  0.1842088801696792 0.1837087814679069 0  0.1656574100807746 0.2269812054689968 0  0.3554582346764377 0.4236292557112198 0  0.3328979939923831 0.425459320867588 0  0.3460368767112177 0.4435398346083328 0  0.3238464003
[...]
<PointData  Tensors="$\sigma$"> 
<DataArray  type="Float64"  Name="$\sigma$"  NumberOfComponents="9" format="ascii">-2.8430876543548436e+02 -3.4604303368397314e+02 0.0000000000000000e+00 -3.4604303368397279e+02 -8.5212704261510896e+02 0.0000000000000000e+00 0.0000000000000000e+00 0.0000000000000000e+00 0.0000000000000000e+00  1.9039402749640687e+03 4.5906428028773220e+01 0.0000000000000000e+00 4.5906428028772432e+01 1.5173050582035747e+04 0.0000000000000000e+00 0.0000000000000000e+00 0.0000000000000000e+00 0.0000000000000000e+00  -2.4042517938088659e+02 4.2545864418316478e+02 0.0000000000000000e+00 4.2545864418316461e+02 -8.9332122975099867e+02 0.0000000000000000e+00 0.0000000000000000e+00 0.0000000000000000e+00 0.0000000000000000e+00  7.8310701159385349e-02 7.0409750507867153e-01 0.0000000000000000e+00 7.0409750507867286e-01 5.1534670089652091e+03 0.0000000000000000e+00 0.0000000000000000e+00 0.0000000000000000e+00 0.0000000000000000e+00  1.3780319207677052e+00 3.8725731032851873e-02 0.0000000000000000e+00 3.8725731032854649e-02 4.9975074530536058e+03 0.0000000000000000e+00 0.0000000000000000e+00 0.0000000000000000e+00 0.0000000000000000e+00  -3.3142745253144631e+02 -3.2618835962491215e+02 0.0000000000000000e+00 -3.2618835962491181e+02 -1.0325975423782414e+02 0.0000000000000000e+00 0.0000000000000000e+00 0.0000000000000000e+00 0.0000000000000000e+00  1.8458890744056254e+02 -1.2908983343921253e+02 0.0000000000000000e+00 -1.2908983343921204e+02 1.7772452562569487e+02 0.0000000000000000e+00 0.0000000000000000e+00 0.0000000000000000e+00 0.0000000000000000e+00  5.4272527644052944e-02 1.1900713163532055e-01 0.0000000000000000e+00 1.1900713163532339e-01 5.1561330973569375e+03 0.0000000000000000e+00 0.0000000000000000e+00 0.0000000000000000e+00 0.0000000000000000e+00  1.5117378751128294e+03 6.1509448972243410e+02 0.0000000000000000e+00 6.1509448972243501e+02 5.4107626282734764e+03 0.0000000000000000e+00 0.0000000000000000e+00 0.0000000000000000e+00 0.0000000000000000e+00  8.1982499211125321e+02 6.8598119896165610e+02 0.0000000000000000e+00 6.8598119896165747e+02 5.9609892530778018e+02 0.0000000000000000e+00 0.0000000000000000e+00 0.0000000000000000e+00 0.0000000000000000e+00  2.8326176968691693e+03 3.2283998678069306e+03 0.0000000000000000e+00 3.2283998678069306e+03 4.0918243223782615e+03 0.0000000000000000e+00 0.0000000000000000e+00 0.0000000000000000e+00 0.0000000000000000e+00  2.1454505112720253e+03 4.0216259060523807e+03 0.0000000000000000e+00 4.0216259060523803e+03 1.2016690772030754e+04 0.0000000000000000e+00 0.0000000000000000e+00 0.0000000000000000e+00 0.0000000000000000e+00  2.1135955207893194e+03 -4.0379648539323512e+03 0.0000000000000000e+00 -4.0379648539323525e+03 1.1952203924457419e+04 0.0000000000000000e+00 0.0000000000000000e+00 0.0000000000000000e+00 0.0000000000000000e+00  2.7985496654274962e+03 -3.1761415256316118e+03 0.0000000000000000e+00 -3.1761415256316118e+03 4.3693038121266291e+03 0.0000000000000000e+00 0.0000000000000000e+00 0.0000000000000000e+00 0.0000000000000000e+00  7.9766296065895347e+02 -7.5300087590360783e+02 0.0000000000000000e+00 -7.5300087590360931e+02 5.7043016892122523e+02 0.0000000000000000e+00 0.0000000000000000e+00 0.0000000000000000e+00 0.0000000000000000e+00  7.9373625722655369e-02 -1.7771158365172998e-01 0.0000000000000000e+00 -1.7771158365173120e-01 5.1512910071281294e+03 0.0000000000000000e+00 0.0000000000000000e+00 0.0000000000000000e+00 0.0000000000000000e+00  -2.7659869082695441e-02 -6.7684144644416555e-01 0.0000000000000000e+00 -6.7684144644416044e-01 5.1472452576452060e+03 0.0000000000000000e+00 0.0000000000000000e+00 0.0000000000000000e+00 0.0000000000000000e+00  4.5787178228010889e-01 -7.7659196681715392e-01 0.0000000000000000e+00 -7.7659196681714959e-01 5.1406569044435155e+03 0.0000000000000000e+00 0.0000000000000000e+00 0.0000000000000000e+00 0.0000000000000000e+00  -3.3910701673027904e-01 -5.7304379138545070e-01 0.0000000000000000e+00 -5.7304379138545136e-01 5.1305581551502028e+03 0.0000000000000000e+00 0.0000000000000000e+00 0.0000000000000000e+00 0.0000000000000000e+00  3.0511781483128003e-01 -1.0333592125448934e+00 0.0000000000000000e+00 -1.0333592125449025e+00 5.1166268830138861e+03 0.0000000000000000e+00 0.0000000000000000e+00 0.0000000000000000e+00 0.0000000000000000e+00  9.0073100095797221e-01 -2.2359959142618893e+00 0.0000000000000000e+00 -2.2359959142619075e+00 5.1019720968891261e+03 0.0000000000000000e+00 0.0000000000000000e+00 0.0000000000000000e+00 0.0000000000000000e+00  -6.4906796972537220e-02 -1.7225443023744633e+00 0.0000000000000000e+00 -1.7225443023744644e+00 5.0764414209795486e+03 0.0000000000000000e+00 0.0000000000000000e+00 0.0000000000000000e+00 0.0000000000000000e+00  -2.2393221250934620e-01 -2.3135045919419785e+00 0.0000000000000000e+00 -2.3135045919419648e+00 5.0516854603531874e+03 0.0000000000000000e+00 0.0000000000000000e+00 0.0000000000000000e+00 0.0000000000000000e+00  1.4047505312663950e+00 -3.4394491999918064e+00 0.0000000000000000e+00 -3.4394491999917851e+00 5.0207033813781809e+03 0.0000000000000000e+00 0.0000000000000000e+00 0.0000000000000000e+00 0.0000000000000000e+00  1.0098326199630234e+00 -4.6419153013403811e+00 0.0000000000000000e+00 -4.6419153013404069e+00 4.9830069782970249e+03 0.0000000000000000e+00 0.0000000000000000e+00 0.0000000000000000e+00 0.0000000000000000e+00  1.1813425175907817e+00 -5.9016369945886593e+00 0.0000000000000000e+00 -5.9016369945886504e+00 4.9182481746959529e+03 0.0000000000000000e+00 0.0000000000000000e+00 0.0000000000000000e+00 0.0000000000000000e+00  7.8530627560150001e-01 -9.6100504659604926e+00 0.0000000000000000e+00 -9.6100504659604695e+00 4.8747513867334692e+03 0.0000000000000000e+00 0.0000000000000000e+00 0.0000000000000000e+00 0.0000000000000000e+00  5.3038073862724389e-01 -7.1582573748979561e+00 0.0000000000000000e+00 -7.1582573748980316e+00 4.7768194433205217e+03 0.0000000000000000e+00 0.0000000000000000e+00 0.0000000000000000e+00 0.0000000000000000e+00  9.9220750958934278e-01 -9.8297257970402754e+00 0.0000000000000000e+00 -9.8297257970403145e+00 4.6834880988857376e+03 0.0000000000000000e+00 0.0000000000000000e+00 0.0000000000000000e+00 0.0000000000000000e+00  8.3655264558929758e+00 -6.0802524302933261e+00 0.0000000000000000e+00 -6.0802524302933003e+00 4.5372662773521070e+03 0.0000000000000000e+00 0.0000000000000000e+00 0.0000000000000000e+00 0.0000000000000000e+00  -7.0596231443030240e+00 -1.1581885966526540e+01 0.0000000000000000e+00 -1.1581885966526162e+01 4.3524398956031355e+03 0.0000000000000000e+00 0.0000000000000000e+00 0.0000000000000000e+00 0.0000000000000000e+00  2.6230419371771710e+01 -4.2107527764089333e+01 0.0000000000000000e+00 -4.2107527764089518e+01 4.0586779749079292e+03 0.0000000000000000e+00 0.0000000000000000e+00 0.0000000000000000e+00 0.0000000000000000e+00  -1.3233876568969151e+01 -2.3047081655523154e+01 0.0000000000000000e+00 -2.3047081655523247e+01 3.6695876862011296e+03 0.0000000000000000e+00 0.0000000000000000e+00 0.0000000000000000e+00 0.0000000000000000e+00  2.4709786336575196e+01 -1.2703158687321404e+02 0.0000000000000000e+00 -1.2703158687321410e+02 3.0077209246935436e+03 0.0000000000000000e+00 0.0000000000000000e+00 0.0000000000000000e+00 0.0000000000000000e+00  -4.0183771056099474e+01 -1.4032401049131366e+02 0.0000000000000000e+00 -1.4032401049131286e+02 2.0452493618005749e+03 0.0000000000000000e+00 0.0000000000000000e+00 0.0000000000000000e+00 0.0000000000000000e+00  1.6234338191295004e+02 -1.6539465676256782e+02 0.0000000000000000e+00 -1.6539465676256697e+02 7.2769165631070541e+02 0.0000000000000000e+00 0.0000000000000000e+00 0.0000000000000000e+00 0.0000000000000000e+00  -4.2595884407366551e+00 2.4923440068774724e-01 0.0000000000000000e+00 2.4923440068774094e-01 5.0088702876815751e+03 0.0000000000000000e+00 0.0000000000000000e+00 0.0000000000000000e+00 0.0000000000000000e+00  -2.1436879235349920e+01 -1.4881544498083546e-03 0.0000000000000000e+00 -1.4881544498002602e-03 5.0420099144417427e+03 0.0000000000000000e+00 0.0000000000000000e+00 0.0000000000000000e+00 0.0000000000000000e+00  -4.7462192471921007e+01 1.3501319614214318e+00 0.0000000000000000e+00 1.3501319614214338e+00 5.0922768597656950e+03 0.0000000000000000e+00 0.0000000000000000e+00 0.0000000000000000e+00 0.0000000000000000e+00  -7.7826868975686239e+01 1.2485401765592480e-01 0.0000000000000000e+00 1.2485401765590651e-01 5.1496562211383034e+03 0.0000000000000000e+00 0.0000000000000000e+00 0.0000000000000000e+00 0.0000000000000000e+00  -1.0454487043141172e+02 1.7912976613646807e+00 0.0000000000000000e+00 1.7912976613646627e+00 5.2194210533813584e+03 0.0000000000000000e+00 0.0000000000000000e+00 0.0000000000000000e+00 0.0000000000000000e+00  -1.3192098791901634e+02 -1.2632033345967073e-01 0.0000000000000000e+00 -1.2632033345965252e-01 5.2874802285335218e+03 0.0000000000000000e+00 0.0000000000000000e+00 0.0000000000000000e+00 0.0000000000000000e+00  -1.5850997201431844e+02 7.7719847628162489e-02 0.0000000000000000e+00 7.7719847628182057e-02 5.3462820047321175e+03 0.0000000000000000e+00 0.0000000000000000e+00 0.0000000000000000e+00 0.0000000000000000e+00  -1.7192428988081431e+02 -4.4412000083885150e-01 0.0000000000000000e+00 -4.4412000083885578e-01 5.4095558838017187e+03 0.0000000000000000e+00 0.0000000000000000e+00 0.0000000000000000e+00 0.0000000000000000e+00  -1.8472501148067792e+02 1.8564694855414712e-01 0.0000000000000000e+00 1.8564694855414274e-01 5.4499204979149190e+03 0.0000000000000000e+00 0.0000000000000000e+00 0.0000000000000000e+00 0.0000000000000000e+00  -1.9249322866273337e+02 -5.7192367852887915e-01 0.0000000000000000e+00 -5.7192367852887993e-01 5.4895117130847048e+03 0.0000000000000000e+00 0.0000000000000000e+00 0.0000000000000000e+00 0.0000000000000000e+00  -1.9379737227869504e+02 -4.4404121300083327e-01 0.0000000000000000e+00 -4.4404121300083227e-01 5.5192769917451533e+03 0.0000000000000000e+00 0.0000000000000000e+00 0.0000000000000000e+00 0.0000000000000000e+00  -1.9180532039737088e+02 -8.7530489743250828e-01 0.0000000000000000e+00 -8.7530489743250850e-01 5.5397605017354963e+03 0.0000000000000000e+00 0.0000000000000000e+00 0.0000000000000000e+00 0.0000000000000000e+00  -1.8715847901935874e+02 -5.2822894653780283e-01 0.0000000000000000e+00 -5.2822894653780916e-01 5.5542864255642426e+03 0.0000000000000000e+00 0.0000000000000000e+00 0.0000000000000000e+00 0.0000000000000000e+00  -1.8117053739665459e+02 -3.5081207578449997e-01 0.0000000000000000e+00 -3.5081207578450613e-01 5.5633709893291953e+03 0.0000000000000000e+00 0.0000000000000000e+00 0.0000000000000000e+00 0.0000000000000000e+00  -1.7351901817399806e+02 -4.4898173957581594e-01 0.0000000000000000e+00 -4.4898173957581466e-01 5.5671403227048422e+03 0.0000000000000000e+00 0.0000000000000000e+00 0.0000000000000000e+00 0.0000000000000000e+00  -1.6564772583907776e+02 -5.6070295264132697e-01 0.0000000000000000e+00 -5.6070295264133263e-01 5.5674075466657241e+03 0.0000000000000000e+00 0.0000000000000000e+00 0.0000000000000000e+00 0.0000000000000000e+00  -1.5807829948262653e+02 -3.0687618137400213e-01 0.0000000000000000e+00 -3.0687618137399808e-01 5.5641435161660074e+03 0.0000000000000000e+00 0.0000000000000000e+00 0.0000000000000000e+00 0.0000000000000000e+00  -1.5065300922903793e+02 -3.7273957706252275e-01 0.0000000000000000e+00 -3.7273957706252420e-01 5.5588600682288252e+03 0.0000000000000000e+00 0.0000000000000000e+00 0.0000000000000000e+00 0.0000000000000000e+00  -1.4385293069140531e+02 -1.8923261639942415e-01 0.0000000000000000e+00 -1.8923261639942929e-01 5.5514108836814485e+03 0.0000000000000000e+00 0.0000000000000000e+00 0.0000000000000000e+00 0.0000000000000000e+00  -1.3746307461239360e+02 -1.6503336790626097e-01 0.0000000000000000e+00 -1.6503336790625731e-01 5.5419274078885719e+03 0.0000000000000000e+00 0.0000000000000000e+00 0.0000000000000000e+00 0.0000000000000000e+00  -1.3179157951036672e+02 -8.5115417571661037e-02 0.0000000000000000e+00 -8.5115417571660995e-02 5.5310575562967397e+03 0.0000000000000000e+00 0.0000000000000000e+00 0.0000000000000000e+00 0.0000000000000000e+00  -1.2621745711609266e+02 -4.4878317228891559e-02 0.0000000000000000e+00 -4.4878317228890678e-02 5.5188339654518531e+03 0.0000000000000000e+00 0.0000000000000000e+00 0.0000000000000000e+00 0.0000000000000000e+00  -1.2134950690354944e+02 -1.6888257478278167e-02 0.0000000000000000e+00 -1.6888257478273959e-02 5.5047853462626745e+03 0.0000000000000000e+00 0.0000000000000000e+00 0.0000000000000000e+00 0.0000000000000000e+00  -1.1598411327022569e+02 -2.6681115210253840e-02 0.0000000000000000e+00 -2.6681115210252220e-02 5.4893498608981881e+03 0.0000000000000000e+00 0.0000000000000000e+00 0.0000000000000000e+00 0.0000000000000000e+00  -1.1109167221570662e+02 -7.1093459310812526e-02 0.0000000000000000e+00 -7.1093459310816925e-02 5.4724793825738780e+03 0.0000000000000000e+00 0.0000000000000000e+00 0.0000000000000000e+00 0.0000000000000000e+00  -1.0538405979349973e+02 9.6383219122922970e-02 0.0000000000000000e+00 9.6383219122926717e-02 5.4539090340325347e+03 0.0000000000000000e+00 0.0000000000000000e+00 0.0000000000000000e+00 0.0000000000000000e+00  -9.9319739329427520e+01 -5.4250343720753449e-02 0.0000000000000000e+00 -5.4250343720754081e-02 5.4330795227054659e+03 0.0000000000000000e+00 0.0000000000000000e+00 0.0000000000000000e+00 0.0000000000000000e+00  -9.2727094918337755e+01 1.1933694058472251e-01 0.0000000000000000e+00 1.1933694058472144e-01 5.4111092513945414e+03 0.0000000000000000e+00 0.0000000000000000e+00 0.0000000000000000e+00 0.0000000000000000e+00  -8.5073879193269946e+01 1.4000770609712174e-01 0.0000000000000000e+00 1.4000770609711910e-01 5.3879657365222902e+03 0.0000000000000000e+00 0.0000000000000000e+00 0.0000000000000000e+00 0.0000000000000000e+00  -7.7118221105551228e+01 1.7226830489998238e-02 0.0000000000000000e+00 1.7226830489999675e-02 5.3620435565248290e+03 0.0000000000000000e+00 0.0000000000000000e+00 0.0000000000000000e+00 0.0000000000000000e+00  -6.7681580787105901e+01 -1.0379126314176521e-01 0.0000000000000000e+00 -1.0379126314176643e-01 5.3365721047019015e+03 0.0000000000000000e+00 0.0000000000000000e+00 0.0000000000000000e+00 0.0000000000000000e+00  -5.8571671892340404e+01 -1.5055093843164569e-01 0.0000000000000000e+00 -1.5055093843164596e-01 5.3088376365831700e+03 0.0000000000000000e+00 0.0000000000000000e+00 0.0000000000000000e+00 0.0000000000000000e+00  -4.7950196792460538e+01 -4.2567445922081434e-02 0.0000000000000000e+00 -4.2567445922092724e-02 5.2819358904356013e+03 0.0000000000000000e+00 0.0000000000000000e+00 0.0000000000000000e+00 0.0000000000000000e+00  -3.7803342722550745e+01 -2.2145995860119697e-01 0.0000000000000000e+00 -2.2145995860119588e-01 5.2566586158263754e+03 0.0000000000000000e+00 0.0000000000000000e+00 0.0000000000000000e+00 0.0000000000000000e+00  -2.7747978493073667e+01 -7.3695052952044468e-02 0.0000000000000000e+00 -7.3695052952046369e-02 5.2316707783290030e+03 0.0000000000000000e+00 0.0000000000000000e+00 0.0000000000000000e+00 0.0000000000000000e+00  -1.8710307261143026e+01 -4.1945533854508325e-02 0.0000000000000000e+00 -4.1945533854507520e-02 5.2079162978543873e+03 0.0000000000000000e+00 0.0000000000000000e+00 0.0000000000000000e+00 0.0000000000000000e+00  -1.0942613151717023e+01 -9.0194519982997087e-02 0.0000000000000000e+00 -9.0194519982998420e-02 5.1880086166439796e+03 0.0000000000000000e+00 0.0000000000000000e+00 0.0000000000000000e+00 0.0000000000000000e+00  -4.9666339118352330e+00 7.4642058293414817e-02 0.0000000000000000e+00 7.4642058293418384e-02 5.1714353471662935e+03 0.0000000000000000e+00 0.0000000000000000e+00 0.0000000000000000e+00 0.0000000000000000e+00  -6.8883650207145575e-01 1.4208565117774860e-01 0.0000000000000000e+00 1.4208565117774702e-01 5.1597900362282262e+03 0.0000000000000000e+00 0.0000000000000000e+00 0.0000000000000000e+00 0.0000000000000000e+00  1.2615330013402757e+02 4.4696912608309106e+01 0.0000000000000000e+00 4.4696912608308885e+01 5.4505849241105284e+02 0.0000000000000000e+00 0.0000000000000000e+00 0.0000000000000000e+00 0.0000000000000000e+00  1.2187835238004821e+02 1.3091365655039954e+02 0.0000000000000000e+00 1.3091365655039957e+02 2.1603398655641117e+03 0.0000000000000000e+00 0.0000000000000000e+00 0.0000000000000000e+00 0.0000000000000000e+00  -4.6970078352212745e+01 1.9360779948600232e+01 0.0000000000000000e+00 1.9360779948600310e+01 3.0238525225320991e+03 0.0000000000000000e+00 0.0000000000000000e+00 0.0000000000000000e+00 0.0000000000000000e+00  6.6686803390663570e+01 6.2757968712280601e+01 0.0000000000000000e+00 6.2757968712280963e+01 3.7637120578055615e+03 0.0000000000000000e+00 0.0000000000000000e+00 0.0000000000000000e+00 0.0000000000000000e+00  -1.9550743716266098e+01 -1.0561343620781843e+01 0.0000000000000000e+00 -1.0561343620781356e+01 4.0978661711133273e+03 0.0000000000000000e+00 0.0000000000000000e+00 0.0000000000000000e+00 0.0000000000000000e+00  2.6149444060689184e+01 2.6798122335916279e+01 0.0000000000000000e+00 2.6798122335916339e+01 4.4085264291492977e+03 0.0000000000000000e+00 0.0000000000000000e+00 0.0000000000000000e+00 0.0000000000000000e+00  -6.4034668543575037e+00 1.0214316996509970e+01 0.0000000000000000e+00 1.0214316996509940e+01 4.5885231998953714e+03 0.0000000000000000e+00 0.0000000000000000e+00 0.0000000000000000e+00 0.0000000000000000e+00  4.3514825944549207e+00 1.4340556143900047e+01 0.0000000000000000e+00 1.4340556143900045e+01 4.7061876153659550e+03 0.0000000000000000e+00 0.0000000000000000e+00 0.0000000000000000e+00 0.0000000000000000e+00  1.8341703126358815e+00 7.3833876970324344e+00 0.0000000000000000e+00 7.3833876970324601e+00 4.8230400190693817e+03 0.0000000000000000e+00 0.0000000000000000e+00 0.0000000000000000e+00 0.0000000000000000e+00  3.0872781493362766e+00 5.4642715017508117e+00 0.0000000000000000e+00 5.4642715017508152e+00 4.8895321587500994e+03 0.0000000000000000e+00 0.0000000000000000e+00 0.0000000000000000e+00 0.0000000000000000e+00  -1.7819865137113113e+00 5.1899926301468546e-01 0.0000000000000000e+00 5.1899926301470867e-01 4.9432215299590334e+03 0.0000000000000000e+00 0.0000000000000000e+00 0.0000000000000000e+00 0.0000000000000000e+00  2.9753318832342801e+00 2.5556081107801423e+00 0.0000000000000000e+00 2.5556081107801485e+00 4.9702092901048854e+03 0.0000000000000000e+00 0.0000000000000000e+00 0.0000000000000000e+00 0.0000000000000000e+00  -8.4432513827934974e-01 4.7697059453609475e-01 0.0000000000000000e+00 4.7697059453609936e-01 4.9951056653361429e+03 0.0000000000000000e+00 0.0000000000000000e+00 0.0000000000000000e+00 0.0000000000000000e+00  1.1234369433073796e+03 8.4969341757796838e+02 0.0000000000000000e+00 8.4969341757796803e+02 6.0532300093587048e+02 0.0000000000000000e+00 0.0000000000000000e+00 0.0000000000000000e+00 0.0000000000000000e+00  3.0852142204796382e+03 4.1628670129958609e+03 0.0000000000000000e+00 4.1628670129958573e+03 6.8673001399329378e+03 0.0000000000000000e+00 0.0000000000000000e+00 0.0000000000000000e+00 0.0000000000000000e+00  1.5975439409411374e+03 2.7708088331114204e+03 0.0000000000000000e+00 2.7708088331114204e+03 1.3963226476996389e+04 0.0000000000000000e+00 0.0000000000000000e+00 0.0000000000000000e+00 0.0000000000000000e+00  1.9009161784437520e+03 -2.0349527793185953e+03 0.0000000000000000e+00 -2.0349527793185978e+03 1.3753477470097700e+04 0.0000000000000000e+00 0.0000000000000000e+00 0.0000000000000000e+00 0.0000000000000000e+00  2.0961729378561536e+03 -4.0980889872312982e+03 0.0000000000000000e+00 -4.0980889872312973e+03 6.7919464140555183e+03 0.0000000000000000e+00 0.0000000000000000e+00 0.0000000000000000e+00 0.0000000000000000e+00  1.1922059641569215e+03 -1.1138084039351547e+03 0.0000000000000000e+00 -1.1138084039351545e+03 8.9358904825645129e+02 0.0000000000000000e+00 0.0000000000000000e+00 0.0000000000000000e+00 0.0000000000000000e+00  5.2737831072518754e-02 -2.6181213501160794e-01 0.0000000000000000e+00 -2.6181213501160794e-01 5.1551717939465398e+03 0.0000000000000000e+00 0.0000000000000000e