<?xml version="1.0"?>
<VTKFile type="UnstructuredGrid"  version="0.1"  >
<UnstructuredGrid>
<Piece  NumberOfPoints="2165" NumberOfCells="4161">
<Points>
<DataArray  type="Float64"  NumberOfComponents="3"  format="ascii">-3.598637933768527e-16 0.3500000000000001 0  0.05 0.4 0  -3.537405593811159e-16 0.45 0  0 1 0  1 1 0  0.9999999999999997 0.65 0  0.9999999999999997 0.5499999999999999 0  1 0 0  0 0 0  0.0191341716182545 0.3538060233744357 0  0.03535533905932737 0.3646446609406727 0  0.04619397662556433 0.3808658283817455 0  0.04619397662556434 0.4191341716182545 0  0.03535533905932738 0.4353553390593274 0  0.01913417161825449 0.4461939766255644 0  0 0.975 0  0 0.95 0  0 0.9249999999999999 0  0 0.8999999999999998 0  0 0.8749999999999998 0  0 0.8499999999999998 0  0 0.8249999999999997 0  0 0.7999999999999996 0  0 0.7749999999999996 0  0 0.7499999999999996 0  0 0.7249999999999996 0  0 0.6999999999999997 0  0 0.6749999999999998 0  0 0.6499999999999999 0  0 0.6249999999999999 0  0 0.6 0  0 0.575 0  0 0.5499999999999998 0  0 0.5249999999999999 0  0 0.4999999999999998 0  0 0.4749999999999999 0  0.975 1 0  0.95 1 0  0.925 1 0  0.9 1 0  0.875 1 0  0.85 1 0  0.825 1 0  0.8 1 0  0.775 1 0  0.75 1 0  0.725 1 0  0.7 1 0  0.675 1 0  0.65 1 0  0.625 1 0  0.6 1 0  0.575 1 0  0.55 1 0  0.525 1 0  0.5 1 0  0.475 1 0  0.45 1 0  0.425 1 0  0.4 1 0  0.375 1 0  0.35 1 0  0.325 1 0  0.3 1 0  0.275 1 0  0.25 1 0  0.225 1 0  0.2 1 0  0.175 1 0  0.15 1 0  0.125 1 0  0.09999999999999998 1 0  0.07499999999999996 1 0  0.05000000000000004 1 0  0.02500000000000002 1 0  1 0.675 0  1 0.7000000000000001 0  1 0.7250000000000001 0  1 0.7500000000000001 0  1 0.7750000000000001 0  1 0.8000000000000002 0  1 0.8250000000000002 0  1 0.8500000000000002 0  1 0.8750000000000003 0  1 0.9000000000000001 0  1 0.9250000000000002 0  1 0.9500000000000001 0  1 0.9750000000000001 0  0.9783058130441221 0.6450484433951209 0  0.9609084258765985 0.6311744900929367 0  0.9512536043909088 0.6111260466978157 0  0.9512536043909088 0.5888739533021843 0  0.9609084258765985 0.5688255099070633 0  0.9783058130441221 0.554951556604879 0  1 0.02500000000000002 0  1 0.05000000000000004 0  1 0.07500000000000008 0  1 0.1000000000000001 0  1 0.1250000000000001 0  1 0.1500000000000002 0  1 0.1750000000000002 0  1 0.2000000000000003 0  1 0.2250000000000003 0  1 0.2500000000000004 0  1 0.2750000000000004 0  1 0.3000000000000003 0  1 0.3250000000000002 0  1 0.3500000000000001 0  1 0.3750000000000001 0  1 0.3999999999999999 0  1 0.425 0  1 0.45 0  1 0.475 0  1 0.5000000000000001 0  1 0.5249999999999999 0  0.025 0 0  0.05 0 0  0.075 0 0  0.1 0 0  0.125 0 0  0.15 0 0  0.175 0 0  0.2 0 0  0.225 0 0  0.25 0 0  0.275 0 0  0.3 0 0  0.325 0 0  0.35 0 0  0.375 0 0  0.4 0 0  0.425 0 0  0.45 0 0  0.475 0 0  0.5 0 0  0.525 0 0  0.55 0 0  0.575 0 0  0.6 0 0  0.625 0 0  0.65 0 0  0.675 0 0  0.7 0 0  0.725 0 0  0.75 0 0  0.775 0 0  0.8 0 0  0.825 0 0  0.85 0 0  0.875 0 0  0.9 0 0  0.925 0 0  0.95 0 0  0.975 0 0  0 0.3250000000000001 0  0 0.3 0  0 0.275 0  0 0.2499999999999999 0  0 0.2249999999999999 0  0 0.1999999999999998 0  0 0.1749999999999998 0  0 0.1499999999999998 0  0 0.1249999999999998 0  0 0.09999999999999987 0  0 0.07499999999999984 0  0 0.04999999999999993 0  0 0.02500000000000002 0  0.06453325334544308 0.4134708543086404 0  0.5146839915088474 0.02134387884913819 0  0.4875871001393628 0.9784117024331356 0  0.9386300160094723 0.5701776715936071 0  0.0216506350946109 0.6124999999999999 0  0.9764205887290853 0.3596067946540696 0  0.3876261045932067 0.02156097490657183 0  0.6125 0.978349364905389 0  0.3612127461797463 0.9792371404802113 0  0.6374786650398092 0.02079982608537345 0  0.9387185538472446 0.6295115890709873 0  0.05482260092545593 0.3633687091864355 0  0.02445354803948679 0.7343198207875321 0  0.2624888813627476 0.02091671348578122 0  0.7375212991274043 0.9794996488945376 0  0.9793010831723812 0.2648509348664836 0  0.2625026480689301 0.9795699185263282 0  0.7362840788105066 0.02225211062275217 0  0.02159327910297104 0.2128861809896528 0  0.9786837570973538 0.7867241244631172 0  0.02419728000065929 0.8365600234152764 0  0.980043283615984 0.1624097203408714 0  0.1645857434226354 0.0205513501962844 0  0.8339481359352011 0.9784483546369231 0  0.1637584777222821 0.9774556328160621 0  0.8374916614314967 0.02165097219510076 0  0.02171915379676059 0.5370700005916152 0  0.9795335762511281 0.4365726939225819 0  0.02319480745007968 0.1370197632171214 0  0.9774462976085161 0.8592616917551974 0  0.9786941241076723 0.7122511101067891 0  0.9797883857882621 0.08781864217752949 0  0.01966314788989931 0.9125801876811624 0  0.02051815350151098 0.2882126194470174 0  0.09063226699593246 0.0214884092697174 0  0.9124408843562394 0.9818463395009377 0  0.03872465516591678 0.452731089005145 0  0.08969424365256845 0.978412979507602 0  0.9124999999999999 0.02165063509461096 0  0.02158104789437187 0.6619299176372371 0  0.9796602354625652 0.4859004208706154 0  0.3127517983598529 0.02417963694738812 0  0.4375629605000894 0.02158039900821679 0  0.5643674594196073 0.01968996000301126 0  0.5368361594956101 0.9790428840407062 0  0.4376176251051295 0.9783667484208922 0  0.6874072695660477 0.978435143102373 0  0.310604317388614 0.979558305560928 0  0.2125577044121564 0.02066685543111635 0  0.6875 0.0216506350946109 0  0.02224009810917643 0.08811420611559456 0  0.790876428529276 0.978633065284896 0  0.2125 0.978349364905389 0  0.9788033534786624 0.2116925349935155 0  0.9769441169344462 0.3150381335760689 0  0.9804648376981185 0.9123186437266726 0  0.7874999988222203 0.02127957051165741 0  0.02109233852270731 0.786866823287435 0  0.9483709287873718 0.5504073206521916 0  0.9259842326464427 0.5519702047534598 0  0.9163209045278007 0.5719292915927929 0  0.9035374059862284 0.5537291796040291 0  0.8938951918780048 0.5738949757882954 0  0.8807940177559743 0.5546750869516996 0  0.8712661812741653 0.5757142549099102 0  0.8580668865514332 0.5563902430113601 0  0.848508161986991 0.5779004013072002 0  0.8354274200119249 0.5591176379057713 0  0.8256349826905482 0.5800610629400762 0  0.8124123591208572 0.5604454546391737 0  0.802603410938817 0.5819653950592523 0  0.7892876429890218 0.562234610648543 0  0.7794355871850538 0.583896242519796 0  0.7661469824381839 0.5648243426306435 0  0.7562387679604726 0.5860005456930413 0  0.7429651600512166 0.5669367633461588 0  0.7330846968880171 0.5879590907760761 0  0.7198577999459205 0.5688986880627463 0  0.7297050500533544 0.5479561801187277 0  0.7066243396993471 0.5499068108517552 0  0.6968285086900206 0.5707989520567972 0  0.6836266810714333 0.5519088927359967 0  0.6738604685766018 0.5727655091567184 0  0.6607284761452521 0.5538781923028128 0  0.6697149783704412 0.5321140554135094 0  0.6473436039782401 0.5350050604671006 0  0.6378867365666199 0.5557804038095817 0  0.6246915360243652 0.5362124690568238 0  0.6151175309583405 0.5575933164645619 0  0.6019784180102355 0.5380659376543677 0  0.5924099113505394 0.5593739656462906 0  0.5794110962027638 0.541110021814312 0  0.5697985396917309 0.5614600003719357 0  0.5568468707330213 0.5433212932327446 0  0.5472634011377896 0.5635652141280936 0  0.5343236363495072 0.5451361960661517 0  0.5247877773262166 0.565493591892781 0  0.5118927934227436 0.5470665328397559 0  0.5023398230005425 0.5674381114577953 0  0.5213991904098014 0.5267047787870831 0  0.4990390504096661 0.528649139287786 0  0.6328887517229864 0.5131744321062524 0  0.5085133205790763 0.5083322037773296 0  0.4861972978925295 0.5102540920324363 0  0.4956914791804768 0.4899605513008993 0  0.4734139980312694 0.4918582759645476 0  0.4826986629698439 0.4717164019717278 0  0.460570567761715 0.473509155475794 0  0.4699344541058981 0.4533140529328089 0  0.4477087341565655 0.4550973130597117 0  0.4381733274019614 0.4752901381741884 0  0.4570222843287571 0.4349938694701042 0  0.4348599018247688 0.436728068420533 0  0.5604623134382263 0.581815997002507 0  0.4443612964408632 0.416499823314016 0  0.422056299386984 0.4183730429856528 0  0.4688721528228815 0.4135009841763965 0  0.4315584877924544 0.398120546824229 0  0.4092288692044618 0.3999974286008185 0  0.7463210599443056 0.6070829843371945 0  0.4187270626688335 0.3797365044773463 0  0.3964262302393312 0.3817184136470017 0  0.3869780036193907 0.4018498778543814 0  0.3742423843122406 0.3837055716372927 0  0.3648701490102072 0.4037049758807119 0  0.3518115403926748 0.3858985036587403 0  0.3426146276710081 0.4056777495658291 0  0.3614541441355358 0.3656396497906528 0  0.339026673715919 0.3678724679736439 0  0.3485566370135618 0.3476560889674916 0  0.3264681821394378 0.3496422822523857 0  0.8219942777991693 0.5379143061758643 0  0.3358297439968608 0.3295117748868035 0  0.3137050884585635 0.3314921667582986 0  0.3229980644152205 0.3113561769498422 0  0.3007986024336577 0.3133063832007756 0  0.3441851868720173 0.3085211458266175 0  0.3101966551534752 0.2930273704914169 0  0.287793053707373 0.2950088132226583 0  0.2914417217227097 0.3337427541189321 0  0.2975120686695638 0.2743682539701985 0  0.274864585256681 0.2764253296978281 0  0.816026571618698 0.6006851919544112 0  0.2844672854128698 0.2557011565880619 0  0.2617267434509338 0.2577713002235077 0  0.3072711221189672 0.2536790056475094 0  0.2521588568690318 0.2785072139143895 0  0.2389277409161178 0.2598761196336353 0  0.248448076747058 0.2389478879785275 0  0.5053822153261678 0.4716915524631118 0  0.229548765875869 0.2806542761043101 0  0.2254561407802683 0.2411354049374563 0  0.2350621310805047 0.2199181955146378 0  0.2117782450160163 0.222165061041625 0  0.2214249125635323 0.2008136877065064 0  0.2448758256083499 0.1985732693215908 0  0.197966291680556 0.2031211006951591 0  0.1883147493074436 0.2245564097761413 0  0.8910637266939049 0.5322898364209732 0  0.1748136087708587 0.2051141748992724 0  0.1842088801696792 0.1837087814679069 0  0.1656574100807746 0.2269812054689968 0  0.3554582346764377 0.4236292557112198 0  0.3328979939923831 0.425459320867588 0  0.3460368767112177 0.4435398346083328 0  0.3238464003
[...]
<PointData  Tensors="$\sigma$"> 
<DataArray  type="Float64"  Name="$\sigma$"  NumberOfComponents="9" format="ascii">-3.8594748036731028e+02 -5.3583427024690752e+02 0.0000000000000000e+00 -5.3583427024690786e+02 -1.1828264871578569e+03 0.0000000000000000e+00 0.0000000000000000e+00 0.0000000000000000e+00 0.0000000000000000e+00  2.5187463498402362e+03 -3.5319587989136636e-01 0.0000000000000000e+00 -3.5319587989278650e-01 1.4433293181349334e+04 0.0000000000000000e+00 0.0000000000000000e+00 0.0000000000000000e+00 0.0000000000000000e+00  -2.8537189075633506e+02 6.5546029420241371e+02 0.0000000000000000e+00 6.5546029420241314e+02 -1.2437296557680399e+03 0.0000000000000000e+00 0.0000000000000000e+00 0.0000000000000000e+00 0.0000000000000000e+00  9.1858832019146033e-02 1.3293500655576536e+00 0.0000000000000000e+00 1.3293500655576542e+00 7.8771723490492795e+03 0.0000000000000000e+00 0.0000000000000000e+00 0.0000000000000000e+00 0.0000000000000000e+00  2.5764447707545344e+00 4.5672223119969574e-02 0.0000000000000000e+00 4.5672223119974313e-02 7.6013909844158507e+03 0.0000000000000000e+00 0.0000000000000000e+00 0.0000000000000000e+00 0.0000000000000000e+00  -4.4374099069947272e+02 -5.4627797153228073e+02 0.0000000000000000e+00 -5.4627797153227925e+02 -1.0216071168543364e+02 0.0000000000000000e+00 0.0000000000000000e+00 0.0000000000000000e+00 0.0000000000000000e+00  2.4480116061331185e+02 -1.8970131651684224e+02 0.0000000000000000e+00 -1.8970131651684127e+02 2.5391216813132871e+02 0.0000000000000000e+00 0.0000000000000000e+00 0.0000000000000000e+00 0.0000000000000000e+00  2.1758503267014437e-01 1.6986219859267043e-01 0.0000000000000000e+00 1.6986219859267440e-01 7.8850251136892721e+03 0.0000000000000000e+00 0.0000000000000000e+00 0.0000000000000000e+00 0.0000000000000000e+00  2.3364897361019980e+03 9.3936227445629333e+02 0.0000000000000000e+00 9.3936227445629447e+02 8.2442943841963825e+03 0.0000000000000000e+00 0.0000000000000000e+00 0.0000000000000000e+00 0.0000000000000000e+00  9.8231240192772646e+02 9.0692499376970704e+02 0.0000000000000000e+00 9.0692499376971091e+02 7.7046408982576679e+02 0.0000000000000000e+00 0.0000000000000000e+00 0.0000000000000000e+00 0.0000000000000000e+00  4.0695984089514036e+03 4.8949842216948746e+03 0.0000000000000000e+00 4.8949842216948728e+03 5.5382065146846217e+03 0.0000000000000000e+00 0.0000000000000000e+00 0.0000000000000000e+00 0.0000000000000000e+00  4.2416447442755225e+03 4.7087079727999926e+03 0.0000000000000000e+00 4.7087079727999917e+03 1.2647367738073055e+04 0.0000000000000000e+00 0.0000000000000000e+00 0.0000000000000000e+00 0.0000000000000000e+00  4.3148796258174461e+03 -4.6693471121995781e+03 0.0000000000000000e+00 -4.6693471121995735e+03 1.2745778346447043e+04 0.0000000000000000e+00 0.0000000000000000e+00 0.0000000000000000e+00 0.0000000000000000e+00  4.1283742738417741e+03 -4.8447824867200134e+03 0.0000000000000000e+00 -4.8447824867200161e+03 5.8033189949756124e+03 0.0000000000000000e+00 0.0000000000000000e+00 0.0000000000000000e+00 0.0000000000000000e+00  9.3689121737226469e+02 -1.0176975587548641e+03 0.0000000000000000e+00 -1.0176975587548656e+03 6.6190040005097774e+02 0.0000000000000000e+00 0.0000000000000000e+00 0.0000000000000000e+00 0.0000000000000000e+00  2.0729369362066274e-01 -3.4894470402431471e-01 0.0000000000000000e+00 -3.4894470402431410e-01 7.8734109205249188e+03 0.0000000000000000e+00 0.0000000000000000e+00 0.0000000000000000e+00 0.0000000000000000e+00  -1.0755596945875558e-01 -1.1307837913260130e+00 0.0000000000000000e+00 -1.1307837913260017e+00 7.8660488973383617e+03 0.0000000000000000e+00 0.0000000000000000e+00 0.0000000000000000e+00 0.0000000000000000e+00  8.5232637020960011e-01 -1.3331593458192115e+00 0.0000000000000000e+00 -1.3331593458192181e+00 7.8546176301123232e+03 0.0000000000000000e+00 0.0000000000000000e+00 0.0000000000000000e+00 0.0000000000000000e+00  -5.9505346334389198e-01 -9.4552544916693615e-01 0.0000000000000000e+00 -9.4552544916694370e-01 7.8366465505548331e+03 0.0000000000000000e+00 0.0000000000000000e+00 0.0000000000000000e+00 0.0000000000000000e+00  6.4985074441588131e-01 -1.6144635659836484e+00 0.0000000000000000e+00 -1.6144635659836664e+00 7.8119872936481788e+03 0.0000000000000000e+00 0.0000000000000000e+00 0.0000000000000000e+00 0.0000000000000000e+00  1.4252697026593315e+00 -3.7268147870794328e+00 0.0000000000000000e+00 -3.7268147870794617e+00 7.7860842652868159e+03 0.0000000000000000e+00 0.0000000000000000e+00 0.0000000000000000e+00 0.0000000000000000e+00  9.6773940256266941e-02 -2.8849604545132963e+00 0.0000000000000000e+00 -2.8849604545133087e+00 7.7411033167579581e+03 0.0000000000000000e+00 0.0000000000000000e+00 0.0000000000000000e+00 0.0000000000000000e+00  -5.8269983384521984e-01 -3.5846402676392319e+00 0.0000000000000000e+00 -3.5846402676392066e+00 7.6972703781972668e+03 0.0000000000000000e+00 0.0000000000000000e+00 0.0000000000000000e+00 0.0000000000000000e+00  2.5591831522971642e+00 -5.6598898682818950e+00 0.0000000000000000e+00 -5.6598898682818897e+00 7.6429845939695169e+03 0.0000000000000000e+00 0.0000000000000000e+00 0.0000000000000000e+00 0.0000000000000000e+00  1.5976639687470122e+00 -8.0069769667564206e+00 0.0000000000000000e+00 -8.0069769667564472e+00 7.5766681388740781e+03 0.0000000000000000e+00 0.0000000000000000e+00 0.0000000000000000e+00 0.0000000000000000e+00  2.9592632671251433e+00 -9.9719615369132431e+00 0.0000000000000000e+00 -9.9719615369132661e+00 7.4639566361150592e+03 0.0000000000000000e+00 0.0000000000000000e+00 0.0000000000000000e+00 0.0000000000000000e+00  1.4261351663679001e+00 -1.6104291229563945e+01 0.0000000000000000e+00 -1.6104291229563891e+01 7.3872669212504707e+03 0.0000000000000000e+00 0.0000000000000000e+00 0.0000000000000000e+00 0.0000000000000000e+00  1.9115271069626998e+00 -1.1881304898185382e+01 0.0000000000000000e+00 -1.1881304898185517e+01 7.2195148038816560e+03 0.0000000000000000e+00 0.0000000000000000e+00 0.0000000000000000e+00 0.0000000000000000e+00  -8.9629824173738670e-01 -1.3534588034691987e+01 0.0000000000000000e+00 -1.3534588034692010e+01 7.0545108388975777e+03 0.0000000000000000e+00 0.0000000000000000e+00 0.0000000000000000e+00 0.0000000000000000e+00  1.7876886385185632e+01 -1.1908541811829773e+01 0.0000000000000000e+00 -1.1908541811829652e+01 6.8137968608409437e+03 0.0000000000000000e+00 0.0000000000000000e+00 0.0000000000000000e+00 0.0000000000000000e+00  -1.8569237532455126e+01 -1.4238605083731777e+01 0.0000000000000000e+00 -1.4238605083731601e+01 6.4910245711144562e+03 0.0000000000000000e+00 0.0000000000000000e+00 0.0000000000000000e+00 0.0000000000000000e+00  5.0550994855564944e+01 -6.6410681595632042e+01 0.0000000000000000e+00 -6.6410681595631445e+01 6.0141986943229494e+03 0.0000000000000000e+00 0.0000000000000000e+00 0.0000000000000000e+00 0.0000000000000000e+00  -2.0727300590170088e+01 -2.9793354125629914e+01 0.0000000000000000e+00 -2.9793354125630710e+01 5.3869074373476651e+03 0.0000000000000000e+00 0.0000000000000000e+00 0.0000000000000000e+00 0.0000000000000000e+00  9.0977326380676491e+00 -1.6521534945436386e+02 0.0000000000000000e+00 -1.6521534945436494e+02 4.3146447430736789e+03 0.0000000000000000e+00 0.0000000000000000e+00 0.0000000000000000e+00 0.0000000000000000e+00  1.1453900950507190e+01 -2.2857598715325000e+02 0.0000000000000000e+00 -2.2857598715324795e+02 2.9364253410696001e+03 0.0000000000000000e+00 0.0000000000000000e+00 0.0000000000000000e+00 0.0000000000000000e+00  1.8568989141837548e+02 -1.5038399849109939e+02 0.0000000000000000e+00 -1.5038399849109993e+02 9.6919144768800311e+02 0.0000000000000000e+00 0.0000000000000000e+00 0.0000000000000000e+00 0.0000000000000000e+00  -7.4831377234769665e+00 3.6687990538259435e-01 0.0000000000000000e+00 3.6687990538258514e-01 7.6243779686031085e+03 0.0000000000000000e+00 0.0000000000000000e+00 0.0000000000000000e+00 0.0000000000000000e+00  -3.7234314613083761e+01 -2.1386089765359945e-01 0.0000000000000000e+00 -2.1386089765353800e-01 7.6838720682263966e+03 0.0000000000000000e+00 0.0000000000000000e+00 0.0000000000000000e+00 0.0000000000000000e+00  -8.2688183557365747e+01 2.2299277536317934e+00 0.0000000000000000e+00 2.2299277536318045e+00 7.7743342161474657e+03 0.0000000000000000e+00 0.0000000000000000e+00 0.0000000000000000e+00 0.0000000000000000e+00  -1.3542358344371465e+02 1.0622751607838352e-01 0.0000000000000000e+00 1.0622751607838507e-01 7.8760266694925313e+03 0.0000000000000000e+00 0.0000000000000000e+00 0.0000000000000000e+00 0.0000000000000000e+00  -1.8221804653954666e+02 2.9193655874705038e+00 0.0000000000000000e+00 2.9193655874705025e+00 7.9990082284427144e+03 0.0000000000000000e+00 0.0000000000000000e+00 0.0000000000000000e+00 0.0000000000000000e+00  -2.3064127031374380e+02 -1.6566636708438895e-01 0.0000000000000000e+00 -1.6566636708439242e-01 8.1195418800159468e+03 0.0000000000000000e+00 0.0000000000000000e+00 0.0000000000000000e+00 0.0000000000000000e+00  -2.7662812201739195e+02 1.1397667046490621e-01 0.0000000000000000e+00 1.1397667046491462e-01 8.2239463051230814e+03 0.0000000000000000e+00 0.0000000000000000e+00 0.0000000000000000e+00 0.0000000000000000e+00  -3.0074386820081315e+02 -7.0382228895442533e-01 0.0000000000000000e+00 -7.0382228895442622e-01 8.3356625750603616e+03 0.0000000000000000e+00 0.0000000000000000e+00 0.0000000000000000e+00 0.0000000000000000e+00  -3.2352523949546969e+02 3.0286540403533740e-01 0.0000000000000000e+00 3.0286540403534379e-01 8.4076399969804552e+03 0.0000000000000000e+00 0.0000000000000000e+00 0.0000000000000000e+00 0.0000000000000000e+00  -3.3742138169680754e+02 -9.6863945781169247e-01 0.0000000000000000e+00 -9.6863945781169170e-01 8.4782923989134197e+03 0.0000000000000000e+00 0.0000000000000000e+00 0.0000000000000000e+00 0.0000000000000000e+00  -3.4016347101931706e+02 -6.5243173950482536e-01 0.0000000000000000e+00 -6.5243173950482336e-01 8.5312413803361087e+03 0.0000000000000000e+00 0.0000000000000000e+00 0.0000000000000000e+00 0.0000000000000000e+00  -3.3701128607262547e+02 -1.5209650003881314e+00 0.0000000000000000e+00 -1.5209650003881354e+00 8.5680326144062201e+03 0.0000000000000000e+00 0.0000000000000000e+00 0.0000000000000000e+00 0.0000000000000000e+00  -3.2914470706948447e+02 -9.1210808871686588e-01 0.0000000000000000e+00 -9.1210808871686755e-01 8.5940443750499635e+03 0.0000000000000000e+00 0.0000000000000000e+00 0.0000000000000000e+00 0.0000000000000000e+00  -3.1889065352126443e+02 -4.9523086137404676e-01 0.0000000000000000e+00 -4.9523086137405337e-01 8.6104288486034256e+03 0.0000000000000000e+00 0.0000000000000000e+00 0.0000000000000000e+00 0.0000000000000000e+00  -3.0565656084843783e+02 -7.6149708965657836e-01 0.0000000000000000e+00 -7.6149708965657137e-01 8.6173805261817943e+03 0.0000000000000000e+00 0.0000000000000000e+00 0.0000000000000000e+00 0.0000000000000000e+00  -2.9191109616977474e+02 -9.5962315503148632e-01 0.0000000000000000e+00 -9.5962315503148787e-01 8.6180121852473512e+03 0.0000000000000000e+00 0.0000000000000000e+00 0.0000000000000000e+00 0.0000000000000000e+00  -2.7878617696572832e+02 -4.6086093488745977e-01 0.0000000000000000e+00 -4.6086093488745161e-01 8.6122915687484528e+03 0.0000000000000000e+00 0.0000000000000000e+00 0.0000000000000000e+00 0.0000000000000000e+00  -2.6572075119530928e+02 -6.2888573823018212e-01 0.0000000000000000e+00 -6.2888573823017735e-01 8.6029746183161806e+03 0.0000000000000000e+00 0.0000000000000000e+00 0.0000000000000000e+00 0.0000000000000000e+00  -2.5385708801585255e+02 -2.9820214672100070e-01 0.0000000000000000e+00 -2.9820214672101392e-01 8.5897429783288644e+03 0.0000000000000000e+00 0.0000000000000000e+00 0.0000000000000000e+00 0.0000000000000000e+00  -2.4260983622856810e+02 -2.7996237101478705e-01 0.0000000000000000e+00 -2.7996237101479665e-01 8.5728306113179333e+03 0.0000000000000000e+00 0.0000000000000000e+00 0.0000000000000000e+00 0.0000000000000000e+00  -2.3263561735313127e+02 -1.4027769234202203e-01 0.0000000000000000e+00 -1.4027769234202875e-01 8.5534211271343465e+03 0.0000000000000000e+00 0.0000000000000000e+00 0.0000000000000000e+00 0.0000000000000000e+00  -2.2282204867468451e+02 -7.0741090951086300e-02 0.0000000000000000e+00 -7.0741090951077584e-02 8.5316627292436297e+03 0.0000000000000000e+00 0.0000000000000000e+00 0.0000000000000000e+00 0.0000000000000000e+00  -2.1420613862437179e+02 -5.5450138150763766e-02 0.0000000000000000e+00 -5.5450138150748139e-02 8.5065551433593009e+03 0.0000000000000000e+00 0.0000000000000000e+00 0.0000000000000000e+00 0.0000000000000000e+00  -2.0475571901046058e+02 -3.7137140392205142e-02 0.0000000000000000e+00 -3.7137140392213358e-02 8.4789700960469490e+03 0.0000000000000000e+00 0.0000000000000000e+00 0.0000000000000000e+00 0.0000000000000000e+00  -1.9609018023343904e+02 -1.1775140994738972e-01 0.0000000000000000e+00 -1.1775140994740549e-01 8.4487647670948681e+03 0.0000000000000000e+00 0.0000000000000000e+00 0.0000000000000000e+00 0.0000000000000000e+00  -1.8601258368667195e+02 1.7128215465772662e-01 0.0000000000000000e+00 1.7128215465773830e-01 8.4156355021118761e+03 0.0000000000000000e+00 0.0000000000000000e+00 0.0000000000000000e+00 0.0000000000000000e+00  -1.7527467123374524e+02 -1.0504743783090620e-01 0.0000000000000000e+00 -1.0504743783090560e-01 8.3784559456414572e+03 0.0000000000000000e+00 0.0000000000000000e+00 0.0000000000000000e+00 0.0000000000000000e+00  -1.6360805975893575e+02 2.2832410136733544e-01 0.0000000000000000e+00 2.2832410136733458e-01 8.3392051273744037e+03 0.0000000000000000e+00 0.0000000000000000e+00 0.0000000000000000e+00 0.0000000000000000e+00  -1.5014253869439614e+02 2.2881214145361314e-01 0.0000000000000000e+00 2.2881214145360113e-01 8.2978805987392680e+03 0.0000000000000000e+00 0.0000000000000000e+00 0.0000000000000000e+00 0.0000000000000000e+00  -1.3599390782323562e+02 7.4695829363254432e-02 0.0000000000000000e+00 7.4695829363257998e-02 8.2517104614292293e+03 0.0000000000000000e+00 0.0000000000000000e+00 0.0000000000000000e+00 0.0000000000000000e+00  -1.1942742286342710e+02 -2.0642261583219296e-01 0.0000000000000000e+00 -2.0642261583219051e-01 8.2062146919024799e+03 0.0000000000000000e+00 0.0000000000000000e+00 0.0000000000000000e+00 0.0000000000000000e+00  -1.0331703252006457e+02 -2.1464362391492681e-01 0.0000000000000000e+00 -2.1464362391493721e-01 8.1567093713790800e+03 0.0000000000000000e+00 0.0000000000000000e+00 0.0000000000000000e+00 0.0000000000000000e+00  -8.4565782161536106e+01 -2.4493034625246372e-02 0.0000000000000000e+00 -2.4493034625286111e-02 8.1087817862331331e+03 0.0000000000000000e+00 0.0000000000000000e+00 0.0000000000000000e+00 0.0000000000000000e+00  -6.6766456269486270e+01 -3.4331650009256953e-01 0.0000000000000000e+00 -3.4331650009258219e-01 8.0633713078740684e+03 0.0000000000000000e+00 0.0000000000000000e+00 0.0000000000000000e+00 0.0000000000000000e+00  -4.8957392080278183e+01 -6.8158915876540133e-02 0.0000000000000000e+00 -6.8158915876550250e-02 8.0187408911755992e+03 0.0000000000000000e+00 0.0000000000000000e+00 0.0000000000000000e+00 0.0000000000000000e+00  -3.3073506030790696e+01 -6.4737075388183810e-02 0.0000000000000000e+00 -6.4737075388182200e-02 7.9761005830697304e+03 0.0000000000000000e+00 0.0000000000000000e+00 0.0000000000000000e+00 0.0000000000000000e+00  -1.9349744793015432e+01 -1.1888492782200072e-01 0.0000000000000000e+00 -1.1888492782200488e-01 7.9402447300569784e+03 0.0000000000000000e+00 0.0000000000000000e+00 0.0000000000000000e+00 0.0000000000000000e+00  -8.7714033564155987e+00 1.4970078610082399e-01 0.0000000000000000e+00 1.4970078610082777e-01 7.9104123963672882e+03 0.0000000000000000e+00 0.0000000000000000e+00 0.0000000000000000e+00 0.0000000000000000e+00  -1.2117436845310703e+00 2.7559299519313318e-01 0.0000000000000000e+00 2.7559299519313407e-01 7.8891165541017899e+03 0.0000000000000000e+00 0.0000000000000000e+00 0.0000000000000000e+00 0.0000000000000000e+00  -2.1405523686208859e+01 -1.5077890278989025e+02 0.0000000000000000e+00 -1.5077890278989011e+02 5.3915195022772537e+02 0.0000000000000000e+00 0.0000000000000000e+00 0.0000000000000000e+00 0.0000000000000000e+00  2.6756701191398560e+02 2.4630081199139670e+02 0.0000000000000000e+00 2.4630081199139576e+02 3.2039804080316526e+03 0.0000000000000000e+00 0.0000000000000000e+00 0.0000000000000000e+00 0.0000000000000000e+00  -1.9044087231204770e+02 -5.2043135285104803e+01 0.0000000000000000e+00 -5.2043135285104235e+01 4.2243704295876332e+03 0.0000000000000000e+00 0.0000000000000000e+00 0.0000000000000000e+00 0.0000000000000000e+00  1.7559457577286852e+02 1.3656514124917271e+02 0.0000000000000000e+00 1.3656514124917342e+02 5.5966877000718168e+03 0.0000000000000000e+00 0.0000000000000000e+00 0.0000000000000000e+00 0.0000000000000000e+00  -7.2488541184162315e+01 -4.7559329171373470e+01 0.0000000000000000e+00 -4.7559329171373477e+01 6.0327173576460145e+03 0.0000000000000000e+00 0.0000000000000000e+00 0.0000000000000000e+00 0.0000000000000000e+00  6.5615297673850989e+01 5.9769063234888897e+01 0.0000000000000000e+00 5.9769063234888790e+01 6.6053096478999705e+03 0.0000000000000000e+00 0.0000000000000000e+00 0.0000000000000000e+00 0.0000000000000000e+00  -1.9868260057754895e+01 9.4325737675573880e+00 0.0000000000000000e+00 9.4325737675574768e+00 6.8878368867080926e+03 0.0000000000000000e+00 0.0000000000000000e+00 0.0000000000000000e+00 0.0000000000000000e+00  1.3254349629050720e+01 2.4195827663506975e+01 0.0000000000000000e+00 2.4195827663507188e+01 7.0949120564849327e+03 0.0000000000000000e+00 0.0000000000000000e+00 0.0000000000000000e+00 0.0000000000000000e+00  3.3930597640125302e+00 1.2723137046803254e+01 0.0000000000000000e+00 1.2723137046803220e+01 7.3009653238480560e+03 0.0000000000000000e+00 0.0000000000000000e+00 0.0000000000000000e+00 0.0000000000000000e+00  5.3224394295187674e+00 8.0164972840926687e+00 0.0000000000000000e+00 8.0164972840926332e+00 7.4099083492441378e+03 0.0000000000000000e+00 0.0000000000000000e+00 0.0000000000000000e+00 0.0000000000000000e+00  -2.9259914550446351e+00 1.3540246254978092e+00 0.0000000000000000e+00 1.3540246254977926e+00 7.5086603121001344e+03 0.0000000000000000e+00 0.0000000000000000e+00 0.0000000000000000e+00 0.0000000000000000e+00  5.2711843167654457e+00 4.3709867321471032e+00 0.0000000000000000e+00 4.3709867321471112e+00 7.5525986538876214e+03 0.0000000000000000e+00 0.0000000000000000e+00 0.0000000000000000e+00 0.0000000000000000e+00  -1.6430913939618614e+00 8.7719144664116244e-01 0.0000000000000000e+00 8.7719144664116067e-01 7.5977450016395087e+03 0.0000000000000000e+00 0.0000000000000000e+00 0.0000000000000000e+00 0.0000000000000000e+00  1.2521215625003090e+03 1.1942204149910995e+03 0.0000000000000000e+00 1.1942204149911015e+03 5.5324239551724406e+02 0.0000000000000000e+00 0.0000000000000000e+00 0.0000000000000000e+00 0.0000000000000000e+00  5.0726636204525621e+03 5.9844383145447955e+03 0.0000000000000000e+00 5.9844383145447928e+03 9.4474373009573083e+03 0.0000000000000000e+00 0.0000000000000000e+00 0.0000000000000000e+00 0.0000000000000000e+00  3.0251382230579347e+03 2.8126997498976343e+03 0.0000000000000000e+00 2.8126997498976343e+03 1.3830029616019334e+04 0.0000000000000000e+00 0.0000000000000000e+00 0.0000000000000000e+00 0.0000000000000000e+00  3.8846384111614366e+03 -2.6860968046142812e+03 0.0000000000000000e+00 -2.6860968046142825e+03 1.4666745023484109e+04 0.0000000000000000e+00 0.0000000000000000e+00 0.0000000000000000e+00 0.0000000000000000e+00  2.9649743713224375e+03 -5.5806270073689338e+03 0.0000000000000000e+00 -5.5806270073689329e+03 8.5125538887329694e+03 0.0000000000000000e+00 0.0000000000000000e+00 0.0000000000000000e+00 0.0000000000000000e+00  1.9399944315174125e+03 -1.6203206491208405e+03 0.0000000000000000e+00 -1.6203206491208409e+03 1.0759892905912716e+03 0.0000000000000000e+00 0.0000000000000000e+00 0.0000000000000000e+00 0.0000000000000000e+00  7.8522181140728967e-02 -4.6945494063067439e-01 0.0000000000000000e+00 -4.6945494063067489e-01 7.8833968998291957e+03 0.0000000000000000e+00 0.00000000000