<?xml version="1.0"?>
<VTKFile type="UnstructuredGrid"  version="0.1"  >
<UnstructuredGrid>
<Piece  NumberOfPoints="2165" NumberOfCells="4161">
<Points>
<DataArray  type="Float64"  NumberOfComponents="3"  format="ascii">-3.598637933768527e-16 0.3500000000000001 0  0.05 0.4 0  -3.537405593811159e-16 0.45 0  0 1 0  1 1 0  0.9999999999999997 0.65 0  0.9999999999999997 0.5499999999999999 0  1 0 0  0 0 0  0.0191341716182545 0.3538060233744357 0  0.03535533905932737 0.3646446609406727 0  0.04619397662556433 0.3808658283817455 0  0.04619397662556434 0.4191341716182545 0  0.03535533905932738 0.4353553390593274 0  0.01913417161825449 0.4461939766255644 0  0 0.975 0  0 0.95 0  0 0.9249999999999999 0  0 0.8999999999999998 0  0 0.8749999999999998 0  0 0.8499999999999998 0  0 0.8249999999999997 0  0 0.7999999999999996 0  0 0.7749999999999996 0  0 0.7499999999999996 0  0 0.7249999999999996 0  0 0.6999999999999997 0  0 0.6749999999999998 0  0 0.6499999999999999 0  0 0.6249999999999999 0  0 0.6 0  0 0.575 0  0 0.5499999999999998 0  0 0.5249999999999999 0  0 0.4999999999999998 0  0 0.4749999999999999 0  0.975 1 0  0.95 1 0  0.925 1 0  0.9 1 0  0.875 1 0  0.85 1 0  0.825 1 0  0.8 1 0  0.775 1 0  0.75 1 0  0.725 1 0  0.7 1 0  0.675 1 0  0.65 1 0  0.625 1 0  0.6 1 0  0.575 1 0  0.55 1 0  0.525 1 0  0.5 1 0  0.475 1 0  0.45 1 0  0.425 1 0  0.4 1 0  0.375 1 0  0.35 1 0  0.325 1 0  0.3 1 0  0.275 1 0  0.25 1 0  0.225 1 0  0.2 1 0  0.175 1 0  0.15 1 0  0.125 1 0  0.09999999999999998 1 0  0.07499999999999996 1 0  0.05000000000000004 1 0  0.02500000000000002 1 0  1 0.675 0  1 0.7000000000000001 0  1 0.7250000000000001 0  1 0.7500000000000001 0  1 0.7750000000000001 0  1 0.8000000000000002 0  1 0.8250000000000002 0  1 0.8500000000000002 0  1 0.8750000000000003 0  1 0.9000000000000001 0  1 0.9250000000000002 0  1 0.9500000000000001 0  1 0.9750000000000001 0  0.9783058130441221 0.6450484433951209 0  0.9609084258765985 0.6311744900929367 0  0.9512536043909088 0.6111260466978157 0  0.9512536043909088 0.5888739533021843 0  0.9609084258765985 0.5688255099070633 0  0.9783058130441221 0.554951556604879 0  1 0.02500000000000002 0  1 0.05000000000000004 0  1 0.07500000000000008 0  1 0.1000000000000001 0  1 0.1250000000000001 0  1 0.1500000000000002 0  1 0.1750000000000002 0  1 0.2000000000000003 0  1 0.2250000000000003 0  1 0.2500000000000004 0  1 0.2750000000000004 0  1 0.3000000000000003 0  1 0.3250000000000002 0  1 0.3500000000000001 0  1 0.3750000000000001 0  1 0.3999999999999999 0  1 0.425 0  1 0.45 0  1 0.475 0  1 0.5000000000000001 0  1 0.5249999999999999 0  0.025 0 0  0.05 0 0  0.075 0 0  0.1 0 0  0.125 0 0  0.15 0 0  0.175 0 0  0.2 0 0  0.225 0 0  0.25 0 0  0.275 0 0  0.3 0 0  0.325 0 0  0.35 0 0  0.375 0 0  0.4 0 0  0.425 0 0  0.45 0 0  0.475 0 0  0.5 0 0  0.525 0 0  0.55 0 0  0.575 0 0  0.6 0 0  0.625 0 0  0.65 0 0  0.675 0 0  0.7 0 0  0.725 0 0  0.75 0 0  0.775 0 0  0.8 0 0  0.825 0 0  0.85 0 0  0.875 0 0  0.9 0 0  0.925 0 0  0.95 0 0  0.975 0 0  0 0.3250000000000001 0  0 0.3 0  0 0.275 0  0 0.2499999999999999 0  0 0.2249999999999999 0  0 0.1999999999999998 0  0 0.1749999999999998 0  0 0.1499999999999998 0  0 0.1249999999999998 0  0 0.09999999999999987 0  0 0.07499999999999984 0  0 0.04999999999999993 0  0 0.02500000000000002 0  0.06453325334544308 0.4134708543086404 0  0.5146839915088474 0.02134387884913819 0  0.4875871001393628 0.9784117024331356 0  0.9386300160094723 0.5701776715936071 0  0.0216506350946109 0.6124999999999999 0  0.9764205887290853 0.3596067946540696 0  0.3876261045932067 0.02156097490657183 0  0.6125 0.978349364905389 0  0.3612127461797463 0.9792371404802113 0  0.6374786650398092 0.02079982608537345 0  0.9387185538472446 0.6295115890709873 0  0.05482260092545593 0.3633687091864355 0  0.02445354803948679 0.7343198207875321 0  0.2624888813627476 0.02091671348578122 0  0.7375212991274043 0.9794996488945376 0  0.9793010831723812 0.2648509348664836 0  0.2625026480689301 0.9795699185263282 0  0.7362840788105066 0.02225211062275217 0  0.02159327910297104 0.2128861809896528 0  0.9786837570973538 0.7867241244631172 0  0.02419728000065929 0.8365600234152764 0  0.980043283615984 0.1624097203408714 0  0.1645857434226354 0.0205513501962844 0  0.8339481359352011 0.9784483546369231 0  0.1637584777222821 0.9774556328160621 0  0.8374916614314967 0.02165097219510076 0  0.02171915379676059 0.5370700005916152 0  0.9795335762511281 0.4365726939225819 0  0.02319480745007968 0.1370197632171214 0  0.9774462976085161 0.8592616917551974 0  0.9786941241076723 0.7122511101067891 0  0.9797883857882621 0.08781864217752949 0  0.01966314788989931 0.9125801876811624 0  0.02051815350151098 0.2882126194470174 0  0.09063226699593246 0.0214884092697174 0  0.9124408843562394 0.9818463395009377 0  0.03872465516591678 0.452731089005145 0  0.08969424365256845 0.978412979507602 0  0.9124999999999999 0.02165063509461096 0  0.02158104789437187 0.6619299176372371 0  0.9796602354625652 0.4859004208706154 0  0.3127517983598529 0.02417963694738812 0  0.4375629605000894 0.02158039900821679 0  0.5643674594196073 0.01968996000301126 0  0.5368361594956101 0.9790428840407062 0  0.4376176251051295 0.9783667484208922 0  0.6874072695660477 0.978435143102373 0  0.310604317388614 0.979558305560928 0  0.2125577044121564 0.02066685543111635 0  0.6875 0.0216506350946109 0  0.02224009810917643 0.08811420611559456 0  0.790876428529276 0.978633065284896 0  0.2125 0.978349364905389 0  0.9788033534786624 0.2116925349935155 0  0.9769441169344462 0.3150381335760689 0  0.9804648376981185 0.9123186437266726 0  0.7874999988222203 0.02127957051165741 0  0.02109233852270731 0.786866823287435 0  0.9483709287873718 0.5504073206521916 0  0.9259842326464427 0.5519702047534598 0  0.9163209045278007 0.5719292915927929 0  0.9035374059862284 0.5537291796040291 0  0.8938951918780048 0.5738949757882954 0  0.8807940177559743 0.5546750869516996 0  0.8712661812741653 0.5757142549099102 0  0.8580668865514332 0.5563902430113601 0  0.848508161986991 0.5779004013072002 0  0.8354274200119249 0.5591176379057713 0  0.8256349826905482 0.5800610629400762 0  0.8124123591208572 0.5604454546391737 0  0.802603410938817 0.5819653950592523 0  0.7892876429890218 0.562234610648543 0  0.7794355871850538 0.583896242519796 0  0.7661469824381839 0.5648243426306435 0  0.7562387679604726 0.5860005456930413 0  0.7429651600512166 0.5669367633461588 0  0.7330846968880171 0.5879590907760761 0  0.7198577999459205 0.5688986880627463 0  0.7297050500533544 0.5479561801187277 0  0.7066243396993471 0.5499068108517552 0  0.6968285086900206 0.5707989520567972 0  0.6836266810714333 0.5519088927359967 0  0.6738604685766018 0.5727655091567184 0  0.6607284761452521 0.5538781923028128 0  0.6697149783704412 0.5321140554135094 0  0.6473436039782401 0.5350050604671006 0  0.6378867365666199 0.5557804038095817 0  0.6246915360243652 0.5362124690568238 0  0.6151175309583405 0.5575933164645619 0  0.6019784180102355 0.5380659376543677 0  0.5924099113505394 0.5593739656462906 0  0.5794110962027638 0.541110021814312 0  0.5697985396917309 0.5614600003719357 0  0.5568468707330213 0.5433212932327446 0  0.5472634011377896 0.5635652141280936 0  0.5343236363495072 0.5451361960661517 0  0.5247877773262166 0.565493591892781 0  0.5118927934227436 0.5470665328397559 0  0.5023398230005425 0.5674381114577953 0  0.5213991904098014 0.5267047787870831 0  0.4990390504096661 0.528649139287786 0  0.6328887517229864 0.5131744321062524 0  0.5085133205790763 0.5083322037773296 0  0.4861972978925295 0.5102540920324363 0  0.4956914791804768 0.4899605513008993 0  0.4734139980312694 0.4918582759645476 0  0.4826986629698439 0.4717164019717278 0  0.460570567761715 0.473509155475794 0  0.4699344541058981 0.4533140529328089 0  0.4477087341565655 0.4550973130597117 0  0.4381733274019614 0.4752901381741884 0  0.4570222843287571 0.4349938694701042 0  0.4348599018247688 0.436728068420533 0  0.5604623134382263 0.581815997002507 0  0.4443612964408632 0.416499823314016 0  0.422056299386984 0.4183730429856528 0  0.4688721528228815 0.4135009841763965 0  0.4315584877924544 0.398120546824229 0  0.4092288692044618 0.3999974286008185 0  0.7463210599443056 0.6070829843371945 0  0.4187270626688335 0.3797365044773463 0  0.3964262302393312 0.3817184136470017 0  0.3869780036193907 0.4018498778543814 0  0.3742423843122406 0.3837055716372927 0  0.3648701490102072 0.4037049758807119 0  0.3518115403926748 0.3858985036587403 0  0.3426146276710081 0.4056777495658291 0  0.3614541441355358 0.3656396497906528 0  0.339026673715919 0.3678724679736439 0  0.3485566370135618 0.3476560889674916 0  0.3264681821394378 0.3496422822523857 0  0.8219942777991693 0.5379143061758643 0  0.3358297439968608 0.3295117748868035 0  0.3137050884585635 0.3314921667582986 0  0.3229980644152205 0.3113561769498422 0  0.3007986024336577 0.3133063832007756 0  0.3441851868720173 0.3085211458266175 0  0.3101966551534752 0.2930273704914169 0  0.287793053707373 0.2950088132226583 0  0.2914417217227097 0.3337427541189321 0  0.2975120686695638 0.2743682539701985 0  0.274864585256681 0.2764253296978281 0  0.816026571618698 0.6006851919544112 0  0.2844672854128698 0.2557011565880619 0  0.2617267434509338 0.2577713002235077 0  0.3072711221189672 0.2536790056475094 0  0.2521588568690318 0.2785072139143895 0  0.2389277409161178 0.2598761196336353 0  0.248448076747058 0.2389478879785275 0  0.5053822153261678 0.4716915524631118 0  0.229548765875869 0.2806542761043101 0  0.2254561407802683 0.2411354049374563 0  0.2350621310805047 0.2199181955146378 0  0.2117782450160163 0.222165061041625 0  0.2214249125635323 0.2008136877065064 0  0.2448758256083499 0.1985732693215908 0  0.197966291680556 0.2031211006951591 0  0.1883147493074436 0.2245564097761413 0  0.8910637266939049 0.5322898364209732 0  0.1748136087708587 0.2051141748992724 0  0.1842088801696792 0.1837087814679069 0  0.1656574100807746 0.2269812054689968 0  0.3554582346764377 0.4236292557112198 0  0.3328979939923831 0.425459320867588 0  0.3460368767112177 0.4435398346083328 0  0.3238464003
[...]
<PointData  Tensors="$\sigma$"> 
<DataArray  type="Float64"  Name="$\sigma$"  NumberOfComponents="9" format="ascii">-3.1163900006636652e+02 -3.7276375623531908e+02 0.0000000000000000e+00 -3.7276375623531919e+02 -9.2483892816488549e+02 0.0000000000000000e+00 0.0000000000000000e+00 0.0000000000000000e+00 0.0000000000000000e+00  2.6067870957367136e+03 4.4350808982020496e+01 0.0000000000000000e+00 4.4350808982020496e+01 1.5556806076253899e+04 0.0000000000000000e+00 0.0000000000000000e+00 0.0000000000000000e+00 0.0000000000000000e+00  -2.6192911343797903e+02 4.6262389101426601e+02 0.0000000000000000e+00 4.6262389101426578e+02 -9.7121167947393758e+02 0.0000000000000000e+00 0.0000000000000000e+00 0.0000000000000000e+00 0.0000000000000000e+00  8.0616402312792629e-02 7.8612765749411062e-01 0.0000000000000000e+00 7.8612765749411229e-01 5.6171827229653618e+03 0.0000000000000000e+00 0.0000000000000000e+00 0.0000000000000000e+00 0.0000000000000000e+00  1.5661164671157801e+00 5.1296853832295326e-02 0.0000000000000000e+00 5.1296853832296443e-02 5.4460770823159719e+03 0.0000000000000000e+00 0.0000000000000000e+00 0.0000000000000000e+00 0.0000000000000000e+00  -3.7422754510796176e+02 -3.4337402792698305e+02 0.0000000000000000e+00 -3.4337402792698254e+02 -1.1853667555052600e+02 0.0000000000000000e+00 0.0000000000000000e+00 0.0000000000000000e+00 0.0000000000000000e+00  2.0359401970835009e+02 -1.4629353089812068e+02 0.0000000000000000e+00 -1.4629353089812042e+02 2.0153856455207699e+02 0.0000000000000000e+00 0.0000000000000000e+00 0.0000000000000000e+00 0.0000000000000000e+00  8.6507382271945613e-02 1.2711592511188238e-01 0.0000000000000000e+00 1.2711592511188491e-01 5.6208775307161231e+03 0.0000000000000000e+00 0.0000000000000000e+00 0.0000000000000000e+00 0.0000000000000000e+00  1.6526544934953567e+03 6.7064973441589530e+02 0.0000000000000000e+00 6.7064973441589621e+02 5.8972755675609742e+03 0.0000000000000000e+00 0.0000000000000000e+00 0.0000000000000000e+00 0.0000000000000000e+00  8.7951414812245673e+02 7.2337481783468786e+02 0.0000000000000000e+00 7.2337481783468922e+02 6.2875134191303982e+02 0.0000000000000000e+00 0.0000000000000000e+00 0.0000000000000000e+00 0.0000000000000000e+00  3.0604021295304228e+03 3.5282775620065104e+03 0.0000000000000000e+00 3.5282775620065104e+03 4.3571567992076325e+03 0.0000000000000000e+00 0.0000000000000000e+00 0.0000000000000000e+00 0.0000000000000000e+00  2.5359034819494000e+03 4.2462358755989380e+03 0.0000000000000000e+00 4.2462358755989344e+03 1.2539173390870323e+04 0.0000000000000000e+00 0.0000000000000000e+00 0.0000000000000000e+00 0.0000000000000000e+00  2.5019516986691860e+03 -4.2495796017775810e+03 0.0000000000000000e+00 -4.2495796017775810e+03 1.2473656339388655e+04 0.0000000000000000e+00 0.0000000000000000e+00 0.0000000000000000e+00 0.0000000000000000e+00  3.0323158969050437e+03 -3.4728089119747251e+03 0.0000000000000000e+00 -3.4728089119747260e+03 4.6551917381945741e+03 0.0000000000000000e+00 0.0000000000000000e+00 0.0000000000000000e+00 0.0000000000000000e+00  8.5296700200965506e+02 -8.0128464700750771e+02 0.0000000000000000e+00 -8.0128464700750988e+02 5.9482664628178088e+02 0.0000000000000000e+00 0.0000000000000000e+00 0.0000000000000000e+00 0.0000000000000000e+00  9.8255562424525586e-02 -1.9752457384803951e-01 0.0000000000000000e+00 -1.9752457384804092e-01 5.6148066217124442e+03 0.0000000000000000e+00 0.0000000000000000e+00 0.0000000000000000e+00 0.0000000000000000e+00  -3.9043468981647324e-02 -7.3123953318235002e-01 0.0000000000000000e+00 -7.3123953318234591e-01 5.6103149320140546e+03 0.0000000000000000e+00 0.0000000000000000e+00 0.0000000000000000e+00 0.0000000000000000e+00  5.1232275490935197e-01 -8.5145794644082051e-01 0.0000000000000000e+00 -8.5145794644081707e-01 5.6030698613399509e+03 0.0000000000000000e+00 0.0000000000000000e+00 0.0000000000000000e+00 0.0000000000000000e+00  -3.7582855114067171e-01 -6.1703355838195284e-01 0.0000000000000000e+00 -6.1703355838195384e-01 5.5919322748381146e+03 0.0000000000000000e+00 0.0000000000000000e+00 0.0000000000000000e+00 0.0000000000000000e+00  3.4962621993861509e-01 -1.1021775774597560e+00 0.0000000000000000e+00 -1.1021775774597591e+00 5.5765458819701316e+03 0.0000000000000000e+00 0.0000000000000000e+00 0.0000000000000000e+00 0.0000000000000000e+00  9.7652839472502750e-01 -2.4251911490124982e+00 0.0000000000000000e+00 -2.4251911490125209e+00 5.5603814814438010e+03 0.0000000000000000e+00 0.0000000000000000e+00 0.0000000000000000e+00 0.0000000000000000e+00  -4.6969681718656862e-02 -1.8694489477065241e+00 0.0000000000000000e+00 -1.8694489477065288e+00 5.5322349476078180e+03 0.0000000000000000e+00 0.0000000000000000e+00 0.0000000000000000e+00 0.0000000000000000e+00  -2.7924202789542185e-01 -2.4631314700510543e+00 0.0000000000000000e+00 -2.4631314700510294e+00 5.5048890470374481e+03 0.0000000000000000e+00 0.0000000000000000e+00 0.0000000000000000e+00 0.0000000000000000e+00  1.5681109113625815e+00 -3.7184588122094193e+00 0.0000000000000000e+00 -3.7184588122093851e+00 5.4707816579783903e+03 0.0000000000000000e+00 0.0000000000000000e+00 0.0000000000000000e+00 0.0000000000000000e+00  1.0853564669846179e+00 -5.0785114995444331e+00 0.0000000000000000e+00 -5.0785114995444713e+00 5.4291239122722272e+03 0.0000000000000000e+00 0.0000000000000000e+00 0.0000000000000000e+00 0.0000000000000000e+00  1.4107895768971590e+00 -6.4514987342167762e+00 0.0000000000000000e+00 -6.4514987342167718e+00 5.3578949724470067e+03 0.0000000000000000e+00 0.0000000000000000e+00 0.0000000000000000e+00 0.0000000000000000e+00  8.9086557778940212e-01 -1.0455802275212079e+01 0.0000000000000000e+00 -1.0455802275212093e+01 5.3097519137839517e+03 0.0000000000000000e+00 0.0000000000000000e+00 0.0000000000000000e+00 0.0000000000000000e+00  7.0228478354430601e-01 -7.7905764698203157e+00 0.0000000000000000e+00 -7.7905764698203965e+00 5.2021484506111074e+03 0.0000000000000000e+00 0.0000000000000000e+00 0.0000000000000000e+00 0.0000000000000000e+00  7.7279460246153786e-01 -1.0374645705075897e+01 0.0000000000000000e+00 -1.0374645705075936e+01 5.0988988499659254e+03 0.0000000000000000e+00 0.0000000000000000e+00 0.0000000000000000e+00 0.0000000000000000e+00  9.7239358437150294e+00 -6.7817370444479339e+00 0.0000000000000000e+00 -6.7817370444479153e+00 4.9388700092620320e+03 0.0000000000000000e+00 0.0000000000000000e+00 0.0000000000000000e+00 0.0000000000000000e+00  -8.6460983934228324e+00 -1.1965728823628725e+01 0.0000000000000000e+00 -1.1965728823628398e+01 4.7347565935536159e+03 0.0000000000000000e+00 0.0000000000000000e+00 0.0000000000000000e+00 0.0000000000000000e+00  3.0145420544037886e+01 -4.5825847839904100e+01 0.0000000000000000e+00 -4.5825847839904263e+01 4.4129746819360944e+03 0.0000000000000000e+00 0.0000000000000000e+00 0.0000000000000000e+00 0.0000000000000000e+00  -1.5396626777201547e+01 -2.3396796081986096e+01 0.0000000000000000e+00 -2.3396796081986302e+01 3.9867383524668412e+03 0.0000000000000000e+00 0.0000000000000000e+00 0.0000000000000000e+00 0.0000000000000000e+00  2.6997177805266762e+01 -1.3705545859092615e+02 0.0000000000000000e+00 -1.3705545859092632e+02 3.2628086795886329e+03 0.0000000000000000e+00 0.0000000000000000e+00 0.0000000000000000e+00 0.0000000000000000e+00  -4.1587964550023599e+01 -1.4998150824562305e+02 0.0000000000000000e+00 -1.4998150824562205e+02 2.2155673623094281e+03 0.0000000000000000e+00 0.0000000000000000e+00 0.0000000000000000e+00 0.0000000000000000e+00  1.7180651224862368e+02 -1.7346590199935221e+02 0.0000000000000000e+00 -1.7346590199935170e+02 7.8309856283131114e+02 0.0000000000000000e+00 0.0000000000000000e+00 0.0000000000000000e+00 0.0000000000000000e+00  -4.7018713720599834e+00 2.7630504623200980e-01 0.0000000000000000e+00 2.7630504623200297e-01 5.4587586863583556e+03 0.0000000000000000e+00 0.0000000000000000e+00 0.0000000000000000e+00 0.0000000000000000e+00  -2.3575491865440824e+01 -2.0515441196212996e-02 0.0000000000000000e+00 -2.0515441196198549e-02 5.4952720155260395e+03 0.0000000000000000e+00 0.0000000000000000e+00 0.0000000000000000e+00 0.0000000000000000e+00  -5.2238309738290731e+01 1.4844573511735586e+00 0.0000000000000000e+00 1.4844573511735566e+00 5.5507795771072770e+03 0.0000000000000000e+00 0.0000000000000000e+00 0.0000000000000000e+00 0.0000000000000000e+00  -8.5615978744206956e+01 1.2295054575634186e-01 0.0000000000000000e+00 1.2295054575632708e-01 5.6140248807556472e+03 0.0000000000000000e+00 0.0000000000000000e+00 0.0000000000000000e+00 0.0000000000000000e+00  -1.1508579271822711e+02 1.9289715637141900e+00 0.0000000000000000e+00 1.9289715637141733e+00 5.6907673212894106e+03 0.0000000000000000e+00 0.0000000000000000e+00 0.0000000000000000e+00 0.0000000000000000e+00  -1.4527711006045706e+02 -1.3885365072382105e-01 0.0000000000000000e+00 -1.3885365072381153e-01 5.7657354574089404e+03 0.0000000000000000e+00 0.0000000000000000e+00 0.0000000000000000e+00 0.0000000000000000e+00  -1.7448072406405450e+02 9.5496216405010118e-02 0.0000000000000000e+00 9.5496216405024092e-02 5.8305823117504478e+03 0.0000000000000000e+00 0.0000000000000000e+00 0.0000000000000000e+00 0.0000000000000000e+00  -1.8933299664077319e+02 -4.7758236970081269e-01 0.0000000000000000e+00 -4.7758236970081741e-01 5.9002154121614240e+03 0.0000000000000000e+00 0.0000000000000000e+00 0.0000000000000000e+00 0.0000000000000000e+00  -2.0344191672305723e+02 2.0055988359744456e-01 0.0000000000000000e+00 2.0055988359744656e-01 5.9447390062994536e+03 0.0000000000000000e+00 0.0000000000000000e+00 0.0000000000000000e+00 0.0000000000000000e+00  -2.1200072332209675e+02 -6.2343240868728689e-01 0.0000000000000000e+00 -6.2343240868728989e-01 5.9884061058238540e+03 0.0000000000000000e+00 0.0000000000000000e+00 0.0000000000000000e+00 0.0000000000000000e+00  -2.1346817600975248e+02 -4.6149739915620824e-01 0.0000000000000000e+00 -4.6149739915620713e-01 6.0211777555431681e+03 0.0000000000000000e+00 0.0000000000000000e+00 0.0000000000000000e+00 0.0000000000000000e+00  -2.1129612457216649e+02 -9.5858303492211949e-01 0.0000000000000000e+00 -9.5858303492211927e-01 6.0437759658788018e+03 0.0000000000000000e+00 0.0000000000000000e+00 0.0000000000000000e+00 0.0000000000000000e+00  -2.0619619166701864e+02 -5.7236201652910479e-01 0.0000000000000000e+00 -5.7236201652910879e-01 6.0597774383656679e+03 0.0000000000000000e+00 0.0000000000000000e+00 0.0000000000000000e+00 0.0000000000000000e+00  -1.9961902380889842e+02 -3.6176754848331855e-01 0.0000000000000000e+00 -3.6176754848332471e-01 6.0697913187736131e+03 0.0000000000000000e+00 0.0000000000000000e+00 0.0000000000000000e+00 0.0000000000000000e+00  -1.9120922181472633e+02 -4.8162899262089848e-01 0.0000000000000000e+00 -4.8162899262089820e-01 6.0739544974834307e+03 0.0000000000000000e+00 0.0000000000000000e+00 0.0000000000000000e+00 0.0000000000000000e+00  -1.8254155942261545e+02 -6.0963209119073059e-01 0.0000000000000000e+00 -6.0963209119073536e-01 6.0742508512804725e+03 0.0000000000000000e+00 0.0000000000000000e+00 0.0000000000000000e+00 0.0000000000000000e+00  -1.7422976367130369e+02 -3.1985629967365231e-01 0.0000000000000000e+00 -3.1985629967364687e-01 6.0706407122856053e+03 0.0000000000000000e+00 0.0000000000000000e+00 0.0000000000000000e+00 0.0000000000000000e+00  -1.6604824616811501e+02 -4.0241089720156714e-01 0.0000000000000000e+00 -4.0241089720156820e-01 6.0648142141216422e+03 0.0000000000000000e+00 0.0000000000000000e+00 0.0000000000000000e+00 0.0000000000000000e+00  -1.5857575698790441e+02 -1.9840238661308518e-01 0.0000000000000000e+00 -1.9840238661309023e-01 6.0565944488379473e+03 0.0000000000000000e+00 0.0000000000000000e+00 0.0000000000000000e+00 0.0000000000000000e+00  -1.5153975864027285e+02 -1.7737612139285888e-01 0.0000000000000000e+00 -1.7737612139285500e-01 6.0461249641534287e+03 0.0000000000000000e+00 0.0000000000000000e+00 0.0000000000000000e+00 0.0000000000000000e+00  -1.4529976103614268e+02 -8.9570798051621853e-02 0.0000000000000000e+00 -8.9570798051622894e-02 6.0341256907272546e+03 0.0000000000000000e+00 0.0000000000000000e+00 0.0000000000000000e+00 0.0000000000000000e+00  -1.3916395023779256e+02 -4.6714810293068031e-02 0.0000000000000000e+00 -4.6714810293065609e-02 6.0206452639975232e+03 0.0000000000000000e+00 0.0000000000000000e+00 0.0000000000000000e+00 0.0000000000000000e+00  -1.3380364372548502e+02 -2.0866297178003510e-02 0.0000000000000000e+00 -2.0866297178000304e-02 6.0051342841961196e+03 0.0000000000000000e+00 0.0000000000000000e+00 0.0000000000000000e+00 0.0000000000000000e+00  -1.2789693220515001e+02 -2.5788786771777261e-02 0.0000000000000000e+00 -2.5788786771779815e-02 5.9880973622040447e+03 0.0000000000000000e+00 0.0000000000000000e+00 0.0000000000000000e+00 0.0000000000000000e+00  -1.2250758945603660e+02 -7.6689416206276326e-02 0.0000000000000000e+00 -7.6689416206281891e-02 5.9694614703015050e+03 0.0000000000000000e+00 0.0000000000000000e+00 0.0000000000000000e+00 0.0000000000000000e+00  -1.1621949350032654e+02 1.0783451213283640e-01 0.0000000000000000e+00 1.0783451213284093e-01 5.9489717568258657e+03 0.0000000000000000e+00 0.0000000000000000e+00 0.0000000000000000e+00 0.0000000000000000e+00  -1.0953364081979801e+02 -6.2863650935387261e-02 0.0000000000000000e+00 -6.2863650935382445e-02 5.9259806077783014e+03 0.0000000000000000e+00 0.0000000000000000e+00 0.0000000000000000e+00 0.0000000000000000e+00  -1.0226468776521078e+02 1.3446606093587682e-01 0.0000000000000000e+00 1.3446606093587682e-01 5.9017215819345392e+03 0.0000000000000000e+00 0.0000000000000000e+00 0.0000000000000000e+00 0.0000000000000000e+00  -9.3833467276466649e+01 1.5122252039065512e-01 0.0000000000000000e+00 1.5122252039064818e-01 5.8761740615059307e+03 0.0000000000000000e+00 0.0000000000000000e+00 0.0000000000000000e+00 0.0000000000000000e+00  -8.5045221275285869e+01 2.3547162965026052e-02 0.0000000000000000e+00 2.3547162965026576e-02 5.8475664140050812e+03 0.0000000000000000e+00 0.0000000000000000e+00 0.0000000000000000e+00 0.0000000000000000e+00  -7.4653353010442856e+01 -1.2002909896122653e-01 0.0000000000000000e+00 -1.2002909896123060e-01 5.8194441334777521e+03 0.0000000000000000e+00 0.0000000000000000e+00 0.0000000000000000e+00 0.0000000000000000e+00  -6.4598907076531006e+01 -1.6022522774977863e-01 0.0000000000000000e+00 -1.6022522774977802e-01 5.7888234069458686e+03 0.0000000000000000e+00 0.0000000000000000e+00 0.0000000000000000e+00 0.0000000000000000e+00  -5.2882497265991042e+01 -4.0543279421175915e-02 0.0000000000000000e+00 -4.0543279421191729e-02 5.7591380071765834e+03 0.0000000000000000e+00 0.0000000000000000e+00 0.0000000000000000e+00 0.0000000000000000e+00  -4.1703794509527043e+01 -2.3788995033508137e-01 0.0000000000000000e+00 -2.3788995033508337e-01 5.7312004054854178e+03 0.0000000000000000e+00 0.0000000000000000e+00 0.0000000000000000e+00 0.0000000000000000e+00  -3.0602496199218812e+01 -7.5031229308567426e-02 0.0000000000000000e+00 -7.5031229308562819e-02 5.7036164707292182e+03 0.0000000000000000e+00 0.0000000000000000e+00 0.0000000000000000e+00 0.0000000000000000e+00  -2.0643332244539152e+01 -4.7402210992814491e-02 0.0000000000000000e+00 -4.7402210992815295e-02 5.6773752698447179e+03 0.0000000000000000e+00 0.0000000000000000e+00 0.0000000000000000e+00 0.0000000000000000e+00  -1.2071319631692640e+01 -9.6274978861285374e-02 0.0000000000000000e+00 -9.6274978861285304e-02 5.6553857706063709e+03 0.0000000000000000e+00 0.0000000000000000e+00 0.0000000000000000e+00 0.0000000000000000e+00  -5.4766584875187512e+00 8.4067591809436196e-02 0.0000000000000000e+00 8.4067591809441483e-02 5.6370960749785072e+03 0.0000000000000000e+00 0.0000000000000000e+00 0.0000000000000000e+00 0.0000000000000000e+00  -7.5762439656316716e-01 1.5668650076909230e-01 0.0000000000000000e+00 1.5668650076908885e-01 5.6242015653959988e+03 0.0000000000000000e+00 0.0000000000000000e+00 0.0000000000000000e+00 0.0000000000000000e+00  1.2622539798850805e+02 3.3241255458733292e+01 0.0000000000000000e+00 3.3241255458732859e+01 5.6578827153174279e+02 0.0000000000000000e+00 0.0000000000000000e+00 0.0000000000000000e+00 0.0000000000000000e+00  1.4133455442040028e+02 1.4487843226146927e+02 0.0000000000000000e+00 1.4487843226146964e+02 2.3522709910988210e+03 0.0000000000000000e+00 0.0000000000000000e+00 0.0000000000000000e+00 0.0000000000000000e+00  -5.9258268723491170e+01 1.5265828939935963e+01 0.0000000000000000e+00 1.5265828939935963e+01 3.2758555545408653e+03 0.0000000000000000e+00 0.0000000000000000e+00 0.0000000000000000e+00 0.0000000000000000e+00  7.6606654650131389e+01 7.0432333435788181e+01 0.0000000000000000e+00 7.0432333435788834e+01 4.0951122683250655e+03 0.0000000000000000e+00 0.0000000000000000e+00 0.0000000000000000e+00 0.0000000000000000e+00  -2.4330462495316066e+01 -1.4714617599143672e+01 0.0000000000000000e+00 -1.4714617599143351e+01 4.4542371708318442e+03 0.0000000000000000e+00 0.0000000000000000e+00 0.0000000000000000e+00 0.0000000000000000e+00  3.0831715138875126e+01 3.0852433249395034e+01 0.0000000000000000e+00 3.0852433249395041e+01 4.8005385859664393e+03 0.0000000000000000e+00 0.0000000000000000e+00 0.0000000000000000e+00 0.0000000000000000e+00  -8.0169272950378385e+00 1.0158150865647119e+01 0.0000000000000000e+00 1.0158150865647134e+01 4.9951441507092131e+03 0.0000000000000000e+00 0.0000000000000000e+00 0.0000000000000000e+00 0.0000000000000000e+00  5.5099128074504700e+00 1.5705818356917790e+01 0.0000000000000000e+00 1.5705818356917817e+01 5.1256166857584367e+03 0.0000000000000000e+00 0.0000000000000000e+00 0.0000000000000000e+00 0.0000000000000000e+00  2.0106222527904407e+00 7.9995914318270085e+00 0.0000000000000000e+00 7.9995914318270476e+00 5.2543242693729435e+03 0.0000000000000000e+00 0.0000000000000000e+00 0.0000000000000000e+00 0.0000000000000000e+00  3.4364258517600659e+00 5.7939889885545810e+00 0.0000000000000000e+00 5.7939889885545641e+00 5.3269218190634074e+03 0.0000000000000000e+00 0.0000000000000000e+00 0.0000000000000000e+00 0.0000000000000000e+00  -1.9809278142482634e+00 5.8084028668336674e-01 0.0000000000000000e+00 5.8084028668338616e-01 5.3866313171154425e+03 0.0000000000000000e+00 0.0000000000000000e+00 0.0000000000000000e+00 0.0000000000000000e+00  3.3058600391958470e+00 2.8030173163814762e+00 0.0000000000000000e+00 2.8030173163814962e+00 5.4159083907833838e+03 0.0000000000000000e+00 0.0000000000000000e+00 0.0000000000000000e+00 0.0000000000000000e+00  -9.6254738188319577e-01 5.0284606704416024e-01 0.0000000000000000e+00 5.0284606704416579e-01 5.4435552258909283e+03 0.0000000000000000e+00 0.0000000000000000e+00 0.0000000000000000e+00 0.0000000000000000e+00  1.2257668496486783e+03 8.8161949547608356e+02 0.0000000000000000e+00 8.8161949547608390e+02 6.2468742102160093e+02 0.0000000000000000e+00 0.0000000000000000e+00 0.0000000000000000e+00 0.0000000000000000e+00  3.2893065154567785e+03 4.6269447191729978e+03 0.0000000000000000e+00 4.6269447191729932e+03 7.4350238871602924e+03 0.0000000000000000e+00 0.0000000000000000e+00 0.0000000000000000e+00 0.0000000000000000e+00  2.1657192943508749e+03 2.8430835554016844e+03 0.0000000000000000e+00 2.8430835554016830e+03 1.4469211037168621e+04 0.0000000000000000e+00 0.0000000000000000e+00 0.0000000000000000e+00 0.0000000000000000e+00  2.3080662290290043e+03 -2.2098375596919991e+03 0.0000000000000000e+00 -2.2098375596920014e+03 1.4606473554377544e+04 0.0000000000000000e+00 0.0000000000000000e+00 0.0000000000000000e+00 0.0000000000000000e+00  2.2323315424007696e+03 -4.4697617693993825e+03 0.0000000000000000e+00 -4.4697617693993825e+03 7.2670494470158046e+03 0.0000000000000000e+00 0.0000000000000000e+00 0.0000000000000000e+00 0.0000000000000000e+00  1.3200184781296641e+03 -1.1986553786283218e+03 0.0000000000000000e+00 -1.1986553786283209e+03 9.2766782718925322e+02 0.0000000000000000e+00 0.0000000000000000e+00 0.0000000000000000e+00 0.0000000000000000e+00  5.4671444760601179e-02 -2.7986343552892534e-01 0.0000000000000000e+00 -2.7986343552892579e-01 5.6198389628392315e+03 0.0000000000000000e+00 0.0000000000000000e