<?xml version="1.0"?>
<VTKFile type="UnstructuredGrid"  version="0.1"  >
<UnstructuredGrid>
<Piece  NumberOfPoints="2165" NumberOfCells="4161">
<Points>
<DataArray  type="Float64"  NumberOfComponents="3"  format="ascii">-3.598637933768527e-16 0.3500000000000001 0  0.05 0.4 0  -3.537405593811159e-16 0.45 0  0 1 0  1 1 0  0.9999999999999997 0.65 0  0.9999999999999997 0.5499999999999999 0  1 0 0  0 0 0  0.0191341716182545 0.3538060233744357 0  0.03535533905932737 0.3646446609406727 0  0.04619397662556433 0.3808658283817455 0  0.04619397662556434 0.4191341716182545 0  0.03535533905932738 0.4353553390593274 0  0.01913417161825449 0.4461939766255644 0  0 0.975 0  0 0.95 0  0 0.9249999999999999 0  0 0.8999999999999998 0  0 0.8749999999999998 0  0 0.8499999999999998 0  0 0.8249999999999997 0  0 0.7999999999999996 0  0 0.7749999999999996 0  0 0.7499999999999996 0  0 0.7249999999999996 0  0 0.6999999999999997 0  0 0.6749999999999998 0  0 0.6499999999999999 0  0 0.6249999999999999 0  0 0.6 0  0 0.575 0  0 0.5499999999999998 0  0 0.5249999999999999 0  0 0.4999999999999998 0  0 0.4749999999999999 0  0.975 1 0  0.95 1 0  0.925 1 0  0.9 1 0  0.875 1 0  0.85 1 0  0.825 1 0  0.8 1 0  0.775 1 0  0.75 1 0  0.725 1 0  0.7 1 0  0.675 1 0  0.65 1 0  0.625 1 0  0.6 1 0  0.575 1 0  0.55 1 0  0.525 1 0  0.5 1 0  0.475 1 0  0.45 1 0  0.425 1 0  0.4 1 0  0.375 1 0  0.35 1 0  0.325 1 0  0.3 1 0  0.275 1 0  0.25 1 0  0.225 1 0  0.2 1 0  0.175 1 0  0.15 1 0  0.125 1 0  0.09999999999999998 1 0  0.07499999999999996 1 0  0.05000000000000004 1 0  0.02500000000000002 1 0  1 0.675 0  1 0.7000000000000001 0  1 0.7250000000000001 0  1 0.7500000000000001 0  1 0.7750000000000001 0  1 0.8000000000000002 0  1 0.8250000000000002 0  1 0.8500000000000002 0  1 0.8750000000000003 0  1 0.9000000000000001 0  1 0.9250000000000002 0  1 0.9500000000000001 0  1 0.9750000000000001 0  0.9783058130441221 0.6450484433951209 0  0.9609084258765985 0.6311744900929367 0  0.9512536043909088 0.6111260466978157 0  0.9512536043909088 0.5888739533021843 0  0.9609084258765985 0.5688255099070633 0  0.9783058130441221 0.554951556604879 0  1 0.02500000000000002 0  1 0.05000000000000004 0  1 0.07500000000000008 0  1 0.1000000000000001 0  1 0.1250000000000001 0  1 0.1500000000000002 0  1 0.1750000000000002 0  1 0.2000000000000003 0  1 0.2250000000000003 0  1 0.2500000000000004 0  1 0.2750000000000004 0  1 0.3000000000000003 0  1 0.3250000000000002 0  1 0.3500000000000001 0  1 0.3750000000000001 0  1 0.3999999999999999 0  1 0.425 0  1 0.45 0  1 0.475 0  1 0.5000000000000001 0  1 0.5249999999999999 0  0.025 0 0  0.05 0 0  0.075 0 0  0.1 0 0  0.125 0 0  0.15 0 0  0.175 0 0  0.2 0 0  0.225 0 0  0.25 0 0  0.275 0 0  0.3 0 0  0.325 0 0  0.35 0 0  0.375 0 0  0.4 0 0  0.425 0 0  0.45 0 0  0.475 0 0  0.5 0 0  0.525 0 0  0.55 0 0  0.575 0 0  0.6 0 0  0.625 0 0  0.65 0 0  0.675 0 0  0.7 0 0  0.725 0 0  0.75 0 0  0.775 0 0  0.8 0 0  0.825 0 0  0.85 0 0  0.875 0 0  0.9 0 0  0.925 0 0  0.95 0 0  0.975 0 0  0 0.3250000000000001 0  0 0.3 0  0 0.275 0  0 0.2499999999999999 0  0 0.2249999999999999 0  0 0.1999999999999998 0  0 0.1749999999999998 0  0 0.1499999999999998 0  0 0.1249999999999998 0  0 0.09999999999999987 0  0 0.07499999999999984 0  0 0.04999999999999993 0  0 0.02500000000000002 0  0.06453325334544308 0.4134708543086404 0  0.5146839915088474 0.02134387884913819 0  0.4875871001393628 0.9784117024331356 0  0.9386300160094723 0.5701776715936071 0  0.0216506350946109 0.6124999999999999 0  0.9764205887290853 0.3596067946540696 0  0.3876261045932067 0.02156097490657183 0  0.6125 0.978349364905389 0  0.3612127461797463 0.9792371404802113 0  0.6374786650398092 0.02079982608537345 0  0.9387185538472446 0.6295115890709873 0  0.05482260092545593 0.3633687091864355 0  0.02445354803948679 0.7343198207875321 0  0.2624888813627476 0.02091671348578122 0  0.7375212991274043 0.9794996488945376 0  0.9793010831723812 0.2648509348664836 0  0.2625026480689301 0.9795699185263282 0  0.7362840788105066 0.02225211062275217 0  0.02159327910297104 0.2128861809896528 0  0.9786837570973538 0.7867241244631172 0  0.02419728000065929 0.8365600234152764 0  0.980043283615984 0.1624097203408714 0  0.1645857434226354 0.0205513501962844 0  0.8339481359352011 0.9784483546369231 0  0.1637584777222821 0.9774556328160621 0  0.8374916614314967 0.02165097219510076 0  0.02171915379676059 0.5370700005916152 0  0.9795335762511281 0.4365726939225819 0  0.02319480745007968 0.1370197632171214 0  0.9774462976085161 0.8592616917551974 0  0.9786941241076723 0.7122511101067891 0  0.9797883857882621 0.08781864217752949 0  0.01966314788989931 0.9125801876811624 0  0.02051815350151098 0.2882126194470174 0  0.09063226699593246 0.0214884092697174 0  0.9124408843562394 0.9818463395009377 0  0.03872465516591678 0.452731089005145 0  0.08969424365256845 0.978412979507602 0  0.9124999999999999 0.02165063509461096 0  0.02158104789437187 0.6619299176372371 0  0.9796602354625652 0.4859004208706154 0  0.3127517983598529 0.02417963694738812 0  0.4375629605000894 0.02158039900821679 0  0.5643674594196073 0.01968996000301126 0  0.5368361594956101 0.9790428840407062 0  0.4376176251051295 0.9783667484208922 0  0.6874072695660477 0.978435143102373 0  0.310604317388614 0.979558305560928 0  0.2125577044121564 0.02066685543111635 0  0.6875 0.0216506350946109 0  0.02224009810917643 0.08811420611559456 0  0.790876428529276 0.978633065284896 0  0.2125 0.978349364905389 0  0.9788033534786624 0.2116925349935155 0  0.9769441169344462 0.3150381335760689 0  0.9804648376981185 0.9123186437266726 0  0.7874999988222203 0.02127957051165741 0  0.02109233852270731 0.786866823287435 0  0.9483709287873718 0.5504073206521916 0  0.9259842326464427 0.5519702047534598 0  0.9163209045278007 0.5719292915927929 0  0.9035374059862284 0.5537291796040291 0  0.8938951918780048 0.5738949757882954 0  0.8807940177559743 0.5546750869516996 0  0.8712661812741653 0.5757142549099102 0  0.8580668865514332 0.5563902430113601 0  0.848508161986991 0.5779004013072002 0  0.8354274200119249 0.5591176379057713 0  0.8256349826905482 0.5800610629400762 0  0.8124123591208572 0.5604454546391737 0  0.802603410938817 0.5819653950592523 0  0.7892876429890218 0.562234610648543 0  0.7794355871850538 0.583896242519796 0  0.7661469824381839 0.5648243426306435 0  0.7562387679604726 0.5860005456930413 0  0.7429651600512166 0.5669367633461588 0  0.7330846968880171 0.5879590907760761 0  0.7198577999459205 0.5688986880627463 0  0.7297050500533544 0.5479561801187277 0  0.7066243396993471 0.5499068108517552 0  0.6968285086900206 0.5707989520567972 0  0.6836266810714333 0.5519088927359967 0  0.6738604685766018 0.5727655091567184 0  0.6607284761452521 0.5538781923028128 0  0.6697149783704412 0.5321140554135094 0  0.6473436039782401 0.5350050604671006 0  0.6378867365666199 0.5557804038095817 0  0.6246915360243652 0.5362124690568238 0  0.6151175309583405 0.5575933164645619 0  0.6019784180102355 0.5380659376543677 0  0.5924099113505394 0.5593739656462906 0  0.5794110962027638 0.541110021814312 0  0.5697985396917309 0.5614600003719357 0  0.5568468707330213 0.5433212932327446 0  0.5472634011377896 0.5635652141280936 0  0.5343236363495072 0.5451361960661517 0  0.5247877773262166 0.565493591892781 0  0.5118927934227436 0.5470665328397559 0  0.5023398230005425 0.5674381114577953 0  0.5213991904098014 0.5267047787870831 0  0.4990390504096661 0.528649139287786 0  0.6328887517229864 0.5131744321062524 0  0.5085133205790763 0.5083322037773296 0  0.4861972978925295 0.5102540920324363 0  0.4956914791804768 0.4899605513008993 0  0.4734139980312694 0.4918582759645476 0  0.4826986629698439 0.4717164019717278 0  0.460570567761715 0.473509155475794 0  0.4699344541058981 0.4533140529328089 0  0.4477087341565655 0.4550973130597117 0  0.4381733274019614 0.4752901381741884 0  0.4570222843287571 0.4349938694701042 0  0.4348599018247688 0.436728068420533 0  0.5604623134382263 0.581815997002507 0  0.4443612964408632 0.416499823314016 0  0.422056299386984 0.4183730429856528 0  0.4688721528228815 0.4135009841763965 0  0.4315584877924544 0.398120546824229 0  0.4092288692044618 0.3999974286008185 0  0.7463210599443056 0.6070829843371945 0  0.4187270626688335 0.3797365044773463 0  0.3964262302393312 0.3817184136470017 0  0.3869780036193907 0.4018498778543814 0  0.3742423843122406 0.3837055716372927 0  0.3648701490102072 0.4037049758807119 0  0.3518115403926748 0.3858985036587403 0  0.3426146276710081 0.4056777495658291 0  0.3614541441355358 0.3656396497906528 0  0.339026673715919 0.3678724679736439 0  0.3485566370135618 0.3476560889674916 0  0.3264681821394378 0.3496422822523857 0  0.8219942777991693 0.5379143061758643 0  0.3358297439968608 0.3295117748868035 0  0.3137050884585635 0.3314921667582986 0  0.3229980644152205 0.3113561769498422 0  0.3007986024336577 0.3133063832007756 0  0.3441851868720173 0.3085211458266175 0  0.3101966551534752 0.2930273704914169 0  0.287793053707373 0.2950088132226583 0  0.2914417217227097 0.3337427541189321 0  0.2975120686695638 0.2743682539701985 0  0.274864585256681 0.2764253296978281 0  0.816026571618698 0.6006851919544112 0  0.2844672854128698 0.2557011565880619 0  0.2617267434509338 0.2577713002235077 0  0.3072711221189672 0.2536790056475094 0  0.2521588568690318 0.2785072139143895 0  0.2389277409161178 0.2598761196336353 0  0.248448076747058 0.2389478879785275 0  0.5053822153261678 0.4716915524631118 0  0.229548765875869 0.2806542761043101 0  0.2254561407802683 0.2411354049374563 0  0.2350621310805047 0.2199181955146378 0  0.2117782450160163 0.222165061041625 0  0.2214249125635323 0.2008136877065064 0  0.2448758256083499 0.1985732693215908 0  0.197966291680556 0.2031211006951591 0  0.1883147493074436 0.2245564097761413 0  0.8910637266939049 0.5322898364209732 0  0.1748136087708587 0.2051141748992724 0  0.1842088801696792 0.1837087814679069 0  0.1656574100807746 0.2269812054689968 0  0.3554582346764377 0.4236292557112198 0  0.3328979939923831 0.425459320867588 0  0.3460368767112177 0.4435398346083328 0  0.3238464003
[...]
<PointData  Tensors="$\sigma$"> 
<DataArray  type="Float64"  Name="$\sigma$"  NumberOfComponents="9" format="ascii">4.6331245431428938e+00 -1.7317594074686202e+01 0.0000000000000000e+00 -1.7317594074686202e+01 -3.0947541291317524e+01 0.0000000000000000e+00 0.0000000000000000e+00 0.0000000000000000e+00 0.0000000000000000e+00  1.6750007904917354e+02 -1.4472873338750414e+00 0.0000000000000000e+00 -1.4472873338750414e+00 1.4291015031923721e+03 0.0000000000000000e+00 0.0000000000000000e+00 0.0000000000000000e+00 0.0000000000000000e+00  5.1802615579415017e+00 2.0736741188202810e+01 0.0000000000000000e+00 2.0736741188202810e+01 -3.3006913116058797e+01 0.0000000000000000e+00 0.0000000000000000e+00 0.0000000000000000e+00 0.0000000000000000e+00  -2.6186534181942035e-02 4.8811221465835851e-02 0.0000000000000000e+00 4.8811221465835802e-02 4.6978509964621963e+02 0.0000000000000000e+00 0.0000000000000000e+00 0.0000000000000000e+00 0.0000000000000000e+00  -1.7490189571444545e-01 -1.9308493733852881e-02 0.0000000000000000e+00 -1.9308493733852881e-02 4.5649491212720397e+02 0.0000000000000000e+00 0.0000000000000000e+00 0.0000000000000000e+00 0.0000000000000000e+00  1.8199472869341076e+01 -1.5183766686094746e+01 0.0000000000000000e+00 -1.5183766686094746e+01 1.9602244998239350e+01 0.0000000000000000e+00 0.0000000000000000e+00 0.0000000000000000e+00 0.0000000000000000e+00  2.8341536644666217e+01 -2.5517045621414859e+01 0.0000000000000000e+00 -2.5517045621414859e+01 3.1245730483539695e+01 0.0000000000000000e+00 0.0000000000000000e+00 0.0000000000000000e+00 0.0000000000000000e+00  -6.9976994959454267e-02 -9.1343801808751370e-03 0.0000000000000000e+00 -9.1343801808751370e-03 4.7028219977478346e+02 0.0000000000000000e+00 0.0000000000000000e+00 0.0000000000000000e+00 0.0000000000000000e+00  1.2405633362033035e+02 5.3221096869273708e+01 0.0000000000000000e+00 5.3221096869273708e+01 4.9011869886968577e+02 0.0000000000000000e+00 0.0000000000000000e+00 0.0000000000000000e+00 0.0000000000000000e+00  7.3916568104784702e+01 9.1358566881080250e+01 0.0000000000000000e+00 9.1358566881080250e+01 1.2022596145619808e+02 0.0000000000000000e+00 0.0000000000000000e+00 0.0000000000000000e+00 0.0000000000000000e+00  2.0150509794342972e+02 2.7168776529527599e+02 0.0000000000000000e+00 2.7168776529527599e+02 5.1210323742612525e+02 0.0000000000000000e+00 0.0000000000000000e+00 0.0000000000000000e+00 0.0000000000000000e+00  2.1131423418879402e+02 2.8373874361857594e+02 0.0000000000000000e+00 2.8373874361857594e+02 1.1280982926776148e+03 0.0000000000000000e+00 0.0000000000000000e+00 0.0000000000000000e+00 0.0000000000000000e+00  2.0818911183077731e+02 -2.9181638573802826e+02 0.0000000000000000e+00 -2.9181638573802826e+02 1.1315977463807940e+03 0.0000000000000000e+00 0.0000000000000000e+00 0.0000000000000000e+00 0.0000000000000000e+00  2.0390131750735125e+02 -2.6898427784624920e+02 0.0000000000000000e+00 -2.6898427784624920e+02 5.3085165216251914e+02 0.0000000000000000e+00 0.0000000000000000e+00 0.0000000000000000e+00 0.0000000000000000e+00  7.3175651865216636e+01 -9.0655443984629812e+01 0.0000000000000000e+00 -9.0655443984629812e+01 1.2112152786226818e+02 0.0000000000000000e+00 0.0000000000000000e+00 0.0000000000000000e+00 0.0000000000000000e+00  -1.3876106270036992e-02 -6.9018727394003332e-02 0.0000000000000000e+00 -6.9018727394003221e-02 4.6959057904559216e+02 0.0000000000000000e+00 0.0000000000000000e+00 0.0000000000000000e+00 0.0000000000000000e+00  -3.5117310339621518e-03 -1.2350068599766333e-01 0.0000000000000000e+00 -1.2350068599766340e-01 4.6930456491323309e+02 0.0000000000000000e+00 0.0000000000000000e+00 0.0000000000000000e+00 0.0000000000000000e+00  -1.9975557490953897e-02 -1.2502737237914419e-01 0.0000000000000000e+00 -1.2502737237914416e-01 4.6864733333616226e+02 0.0000000000000000e+00 0.0000000000000000e+00 0.0000000000000000e+00 0.0000000000000000e+00  -8.3613704989522249e-03 -1.9979801217065238e-01 0.0000000000000000e+00 -1.9979801217065241e-01 4.6772779906201271e+02 0.0000000000000000e+00 0.0000000000000000e+00 0.0000000000000000e+00 0.0000000000000000e+00  -3.2781940026245827e-02 -2.7656980317835350e-01 0.0000000000000000e+00 -2.7656980317835339e-01 4.6663446279690714e+02 0.0000000000000000e+00 0.0000000000000000e+00 0.0000000000000000e+00 0.0000000000000000e+00  -5.6435747937427063e-03 -4.0304443327797840e-01 0.0000000000000000e+00 -4.0304443327797845e-01 4.6528982983179480e+02 0.0000000000000000e+00 0.0000000000000000e+00 0.0000000000000000e+00 0.0000000000000000e+00  3.5373463432332940e-03 -4.0499042963210702e-01 0.0000000000000000e+00 -4.0499042963210702e-01 4.6302213323132787e+02 0.0000000000000000e+00 0.0000000000000000e+00 0.0000000000000000e+00 0.0000000000000000e+00  1.5870086485767529e-02 -5.6865681385955547e-01 0.0000000000000000e+00 -5.6865681385955547e-01 4.6095953505999483e+02 0.0000000000000000e+00 0.0000000000000000e+00 0.0000000000000000e+00 0.0000000000000000e+00  -6.8875432707626749e-02 -7.5960449453024403e-01 0.0000000000000000e+00 -7.5960449453024403e-01 4.5789964166321147e+02 0.0000000000000000e+00 0.0000000000000000e+00 0.0000000000000000e+00 0.0000000000000000e+00  7.9791661827268004e-02 -7.2649889465275275e-01 0.0000000000000000e+00 -7.2649889465275275e-01 4.5501530867692577e+02 0.0000000000000000e+00 0.0000000000000000e+00 0.0000000000000000e+00 0.0000000000000000e+00  -1.4644228633306999e-01 -1.0666370038158886e+00 0.0000000000000000e+00 -1.0666370038158886e+00 4.4880052232250262e+02 0.0000000000000000e+00 0.0000000000000000e+00 0.0000000000000000e+00 0.0000000000000000e+00  -8.3586193367445202e-02 -1.6378511660458008e+00 0.0000000000000000e+00 -1.6378511660458008e+00 4.4544328586676517e+02 0.0000000000000000e+00 0.0000000000000000e+00 0.0000000000000000e+00 0.0000000000000000e+00  -1.0592275462993038e-01 -1.5256448506859324e+00 0.0000000000000000e+00 -1.5256448506859324e+00 4.3682365061442192e+02 0.0000000000000000e+00 0.0000000000000000e+00 0.0000000000000000e+00 0.0000000000000000e+00  8.2771537069837708e-03 -2.2559654726385885e+00 0.0000000000000000e+00 -2.2559654726385885e+00 4.2798262368430682e+02 0.0000000000000000e+00 0.0000000000000000e+00 0.0000000000000000e+00 0.0000000000000000e+00  -2.9699601975792379e-03 -2.4872170308736896e+00 0.0000000000000000e+00 -2.4872170308736896e+00 4.1496712719506075e+02 0.0000000000000000e+00 0.0000000000000000e+00 0.0000000000000000e+00 0.0000000000000000e+00  -5.0920034973329620e-01 -4.2052873348308548e+00 0.0000000000000000e+00 -4.2052873348308548e+00 3.9858845069417265e+02 0.0000000000000000e+00 0.0000000000000000e+00 0.0000000000000000e+00 0.0000000000000000e+00  -5.1343056575103685e-01 -7.6808613707470599e+00 0.0000000000000000e+00 -7.6808613707470599e+00 3.7336284234314309e+02 0.0000000000000000e+00 0.0000000000000000e+00 0.0000000000000000e+00 0.0000000000000000e+00  -3.3850250749956123e-01 -9.9106836823735538e+00 0.0000000000000000e+00 -9.9106836823735538e+00 3.3464701008861670e+02 0.0000000000000000e+00 0.0000000000000000e+00 0.0000000000000000e+00 0.0000000000000000e+00  -3.7493214122885501e+00 -1.8625361410370420e+01 0.0000000000000000e+00 -1.8625361410370420e+01 2.8004967812616360e+02 0.0000000000000000e+00 0.0000000000000000e+00 0.0000000000000000e+00 0.0000000000000000e+00  -4.3398695594379211e+00 -2.7895376970320171e+01 0.0000000000000000e+00 -2.7895376970320171e+01 1.9336213045640750e+02 0.0000000000000000e+00 0.0000000000000000e+00 0.0000000000000000e+00 0.0000000000000000e+00  1.2840780041992410e+01 -1.9301693185911283e+01 0.0000000000000000e+00 -1.9301693185911283e+01 9.1635805431158488e+01 0.0000000000000000e+00 0.0000000000000000e+00 0.0000000000000000e+00 0.0000000000000000e+00  -3.4962184045505962e-01 5.1655716659610967e-02 0.0000000000000000e+00 5.1655716659610981e-02 4.5768523591423627e+02 0.0000000000000000e+00 0.0000000000000000e+00 0.0000000000000000e+00 0.0000000000000000e+00  -1.9019189751728314e+00 1.2163730156390208e-01 0.0000000000000000e+00 1.2163730156390193e-01 4.6048780113853155e+02 0.0000000000000000e+00 0.0000000000000000e+00 0.0000000000000000e+00 0.0000000000000000e+00  -4.1784078224854131e+00 2.2108630962071538e-01 0.0000000000000000e+00 2.2108630962071538e-01 4.6469337441839730e+02 0.0000000000000000e+00 0.0000000000000000e+00 0.0000000000000000e+00 0.0000000000000000e+00  -6.9698166534080164e+00 2.4147732554238396e-01 0.0000000000000000e+00 2.4147732554238432e-01 4.6934814602342874e+02 0.0000000000000000e+00 0.0000000000000000e+00 0.0000000000000000e+00 0.0000000000000000e+00  -9.1388626623827669e+00 3.8410311287635041e-01 0.0000000000000000e+00 3.8410311287635091e-01 4.7570775724098218e+02 0.0000000000000000e+00 0.0000000000000000e+00 0.0000000000000000e+00 0.0000000000000000e+00  -1.1662444897169253e+01 8.3030816151948877e-02 0.0000000000000000e+00 8.3030816151948877e-02 4.8189295142004909e+02 0.0000000000000000e+00 0.0000000000000000e+00 0.0000000000000000e+00 0.0000000000000000e+00  -1.3965638879141210e+01 -4.9640113534542519e-03 0.0000000000000000e+00 -4.9640113534541747e-03 4.8677715393978269e+02 0.0000000000000000e+00 0.0000000000000000e+00 0.0000000000000000e+00 0.0000000000000000e+00  -1.4731826410539297e+01 -2.8699655907413520e-02 0.0000000000000000e+00 -2.8699655907413520e-02 4.9236405832540174e+02 0.0000000000000000e+00 0.0000000000000000e+00 0.0000000000000000e+00 0.0000000000000000e+00  -1.6026705578710196e+01 -1.1428408808254610e-03 0.0000000000000000e+00 -1.1428408808254610e-03 4.9567467646462222e+02 0.0000000000000000e+00 0.0000000000000000e+00 0.0000000000000000e+00 0.0000000000000000e+00  -1.6755569552594082e+01 -1.1269308902611323e-01 0.0000000000000000e+00 -1.1269308902611323e-01 4.9905953240227734e+02 0.0000000000000000e+00 0.0000000000000000e+00 0.0000000000000000e+00 0.0000000000000000e+00  -1.6868978326332957e+01 -1.7477881941812828e-01 0.0000000000000000e+00 -1.7477881941812828e-01 5.0178977556919835e+02 0.0000000000000000e+00 0.0000000000000000e+00 0.0000000000000000e+00 0.0000000000000000e+00  -1.6635156224801985e+01 -1.6292640198378938e-01 0.0000000000000000e+00 -1.6292640198378938e-01 5.0352950136860812e+02 0.0000000000000000e+00 0.0000000000000000e+00 0.0000000000000000e+00 0.0000000000000000e+00  -1.6243800463029149e+01 -1.3377230057423320e-01 0.0000000000000000e+00 -1.3377230057423320e-01 5.0478069270694851e+02 0.0000000000000000e+00 0.0000000000000000e+00 0.0000000000000000e+00 0.0000000000000000e+00  -1.5723837055084420e+01 -1.4182340960274614e-01 0.0000000000000000e+00 -1.4182340960274614e-01 5.0555363840777824e+02 0.0000000000000000e+00 0.0000000000000000e+00 0.0000000000000000e+00 0.0000000000000000e+00  -1.5062629229655480e+01 -1.3460686011979403e-01 0.0000000000000000e+00 -1.3460686011979403e-01 5.0585706448290983e+02 0.0000000000000000e+00 0.0000000000000000e+00 0.0000000000000000e+00 0.0000000000000000e+00  -1.4391168845217903e+01 -1.1886827763869691e-01 0.0000000000000000e+00 -1.1886827763869691e-01 5.0586314063149030e+02 0.0000000000000000e+00 0.0000000000000000e+00 0.0000000000000000e+00 0.0000000000000000e+00  -1.3727166384902736e+01 -1.0051661445126726e-01 0.0000000000000000e+00 -1.0051661445126731e-01 5.0558799122198224e+02 0.0000000000000000e+00 0.0000000000000000e+00 0.0000000000000000e+00 0.0000000000000000e+00  -1.3096426063167851e+01 -8.2473485783150877e-02 0.0000000000000000e+00 -8.2473485783150904e-02 5.0511326089484970e+02 0.0000000000000000e+00 0.0000000000000000e+00 0.0000000000000000e+00 0.0000000000000000e+00  -1.2498983173450263e+01 -6.2256692367964536e-02 0.0000000000000000e+00 -6.2256692367964592e-02 5.0445732019814426e+02 0.0000000000000000e+00 0.0000000000000000e+00 0.0000000000000000e+00 0.0000000000000000e+00  -1.1964592477602148e+01 -4.1507045242109734e-02 0.0000000000000000e+00 -4.1507045242109734e-02 5.0364276949202491e+02 0.0000000000000000e+00 0.0000000000000000e+00 0.0000000000000000e+00 0.0000000000000000e+00  -1.1470145226064316e+01 -2.5909865337656407e-02 0.0000000000000000e+00 -2.5909865337656407e-02 5.0270852001652128e+02 0.0000000000000000e+00 0.0000000000000000e+00 0.0000000000000000e+00 0.0000000000000000e+00  -1.1008234336947147e+01 -1.0268322687411511e-02 0.0000000000000000e+00 -1.0268322687411511e-02 5.0163021712571850e+02 0.0000000000000000e+00 0.0000000000000000e+00 0.0000000000000000e+00 0.0000000000000000e+00  -1.0577394859315495e+01 4.2339453872476344e-03 0.0000000000000000e+00 4.2339453872476344e-03 5.0041870222649987e+02 0.0000000000000000e+00 0.0000000000000000e+00 0.0000000000000000e+00 0.0000000000000000e+00  -1.0139078535447052e+01 -3.4610737568518406e-03 0.0000000000000000e+00 -3.4610737568518406e-03 4.9905558528787304e+02 0.0000000000000000e+00 0.0000000000000000e+00 0.0000000000000000e+00 0.0000000000000000e+00  -9.6875154981330045e+00 8.3867833155021037e-03 0.0000000000000000e+00 8.3867833155021037e-03 4.9761515694706884e+02 0.0000000000000000e+00 0.0000000000000000e+00 0.0000000000000000e+00 0.0000000000000000e+00  -9.1889510093845690e+00 1.1807026069904475e-02 0.0000000000000000e+00 1.1807026069904475e-02 4.9594388981454375e+02 0.0000000000000000e+00 0.0000000000000000e+00 0.0000000000000000e+00 0.0000000000000000e+00  -8.6758866299343484e+00 1.9763722068886568e-02 0.0000000000000000e+00 1.9763722068886568e-02 4.9410725672849196e+02 0.0000000000000000e+00 0.0000000000000000e+00 0.0000000000000000e+00 0.0000000000000000e+00  -8.0880121033244858e+00 2.3170138501109059e-03 0.0000000000000000e+00 2.3170138501109059e-03 4.9222878896708630e+02 0.0000000000000000e+00 0.0000000000000000e+00 0.0000000000000000e+00 0.0000000000000000e+00  -7.4273917708578105e+00 9.5530180970127988e-03 0.0000000000000000e+00 9.5530180970127970e-03 4.9020996876618324e+02 0.0000000000000000e+00 0.0000000000000000e+00 0.0000000000000000e+00 0.0000000000000000e+00  -6.7435390095362129e+00 1.1682387450948599e-02 0.0000000000000000e+00 1.1682387450948604e-02 4.8798972855757222e+02 0.0000000000000000e+00 0.0000000000000000e+00 0.0000000000000000e+00 0.0000000000000000e+00  -5.8969152901736104e+00 1.3181211110065748e-02 0.0000000000000000e+00 1.3181211110065748e-02 4.8577079587791974e+02 0.0000000000000000e+00 0.0000000000000000e+00 0.0000000000000000e+00 0.0000000000000000e+00  -5.1380396013402452e+00 -1.4219390859255538e-02 0.0000000000000000e+00 -1.4219390859255441e-02 4.8336332926304806e+02 0.0000000000000000e+00 0.0000000000000000e+00 0.0000000000000000e+00 0.0000000000000000e+00  -4.1956480581653723e+00 -2.9741893979195206e-02 0.0000000000000000e+00 -2.9741893979195487e-02 4.8101343906534646e+02 0.0000000000000000e+00 0.0000000000000000e+00 0.0000000000000000e+00 0.0000000000000000e+00  -3.3026395469206689e+00 -4.0678719580258080e-02 0.0000000000000000e+00 -4.0678719580258357e-02 4.7882522901709024e+02 0.0000000000000000e+00 0.0000000000000000e+00 0.0000000000000000e+00 0.0000000000000000e+00  -2.4231183999089789e+00 -1.7092945172471796e-02 0.0000000000000000e+00 -1.7092945172471612e-02 4.7667740045504434e+02 0.0000000000000000e+00 0.0000000000000000e+00 0.0000000000000000e+00 0.0000000000000000e+00  -1.6366574255310631e+00 -1.0136405485233549e-02 0.0000000000000000e+00 -1.0136405485233348e-02 4.7461784230804079e+02 0.0000000000000000e+00 0.0000000000000000e+00 0.0000000000000000e+00 0.0000000000000000e+00  -9.6552869515916262e-01 -8.7536987217353441e-03 0.0000000000000000e+00 -8.7536987217352088e-03 4.7287275176767611e+02 0.0000000000000000e+00 0.0000000000000000e+00 0.0000000000000000e+00 0.0000000000000000e+00  -4.4031426305467763e-01 2.0850826181030534e-03 0.0000000000000000e+00 2.0850826181031115e-03 4.7138334960466307e+02 0.0000000000000000e+00 0.0000000000000000e+00 0.0000000000000000e+00 0.0000000000000000e+00  -6.3220540928576666e-02 3.4306220370779211e-02 0.0000000000000000e+00 3.4306220370779239e-02 4.7042066820891500e+02 0.0000000000000000e+00 0.0000000000000000e+00 0.0000000000000000e+00 0.0000000000000000e+00  1.6136393370314480e+01 2.0396681495329290e+01 0.0000000000000000e+00 2.0396681495329290e+01 7.0958577983520001e+01 0.0000000000000000e+00 0.0000000000000000e+00 0.0000000000000000e+00 0.0000000000000000e+00  2.7447591289244828e+00 2.3468278855967711e+01 0.0000000000000000e+00 2.3468278855967711e+01 2.0418137501747950e+02 0.0000000000000000e+00 0.0000000000000000e+00 0.0000000000000000e+00 0.0000000000000000e+00  -3.7202349587083411e-01 1.5082164361572584e+01 0.0000000000000000e+00 1.5082164361572584e+01 2.8704856294941425e+02 0.0000000000000000e+00 0.0000000000000000e+00 0.0000000000000000e+00 0.0000000000000000e+00  -2.8699029675701199e-01 9.2572637144468928e+00 0.0000000000000000e+00 9.2572637144468928e+00 3.4472496909258842e+02 0.0000000000000000e+00 0.0000000000000000e+00 0.0000000000000000e+00 0.0000000000000000e+00  -3.5228829353256635e-01 5.4584792136333791e+00 0.0000000000000000e+00 5.4584792136333791e+00 3.7924583934230782e+02 0.0000000000000000e+00 0.0000000000000000e+00 0.0000000000000000e+00 0.0000000000000000e+00  -1.1607240696477326e-01 3.4493864491355741e+00 0.0000000000000000e+00 3.4493864491355741e+00 4.0253799527341789e+02 0.0000000000000000e+00 0.0000000000000000e+00 0.0000000000000000e+00 0.0000000000000000e+00  -1.7670319264166462e-01 3.6054713005515326e+00 0.0000000000000000e+00 3.6054713005515326e+00 4.2129931252833944e+02 0.0000000000000000e+00 0.0000000000000000e+00 0.0000000000000000e+00 0.0000000000000000e+00  -5.3603921179770364e-01 2.2802917313688535e+00 0.0000000000000000e+00 2.2802917313688535e+00 4.2997380878371723e+02 0.0000000000000000e+00 0.0000000000000000e+00 0.0000000000000000e+00 0.0000000000000000e+00  1.6697098557259722e-02 1.4755586543077570e+00 0.0000000000000000e+00 1.4755586543077575e+00 4.4133143913489715e+02 0.0000000000000000e+00 0.0000000000000000e+00 0.0000000000000000e+00 0.0000000000000000e+00  -1.2708698686260006e-01 1.2007792256377048e+00 0.0000000000000000e+00 1.2007792256377059e+00 4.4721694603142981e+02 0.0000000000000000e+00 0.0000000000000000e+00 0.0000000000000000e+00 0.0000000000000000e+00  -9.7754349511823879e-02 5.9397622513741455e-01 0.0000000000000000e+00 5.9397622513741477e-01 4.5139912830938960e+02 0.0000000000000000e+00 0.0000000000000000e+00 0.0000000000000000e+00 0.0000000000000000e+00  4.4025196115255454e-02 3.2748633199078647e-01 0.0000000000000000e+00 3.2748633199078625e-01 4.5421702899985206e+02 0.0000000000000000e+00 0.0000000000000000e+00 0.0000000000000000e+00 0.0000000000000000e+00  -3.6909835716917347e-02 2.2501627459985210e-01 0.0000000000000000e+00 2.2501627459985193e-01 4.5616829299411580e+02 0.0000000000000000e+00 0.0000000000000000e+00 0.0000000000000000e+00 0.0000000000000000e+00  9.8020331479282348e+01 1.2904645701974741e+02 0.0000000000000000e+00 1.2904645701974741e+02 1.7129078020835473e+02 0.0000000000000000e+00 0.0000000000000000e+00 0.0000000000000000e+00 0.0000000000000000e+00  2.3639041844072443e+02 2.9678040677523586e+02 0.0000000000000000e+00 2.9678040677523586e+02 7.3484153338051112e+02 0.0000000000000000e+00 0.0000000000000000e+00 0.0000000000000000e+00 0.0000000000000000e+00  1.3680817564590407e+02 1.9451475804866820e+02 0.0000000000000000e+00 1.9451475804866820e+02 1.3252603742324829e+03 0.0000000000000000e+00 0.0000000000000000e+00 0.0000000000000000e+00 0.0000000000000000e+00  2.1221904925384732e+02 -1.1847866257505098e+02 0.0000000000000000e+00 -1.1847866257505098e+02 1.1949965036097519e+03 0.0000000000000000e+00 0.0000000000000000e+00 0.0000000000000000e+00 0.0000000000000000e+00  1.6554401562051802e+02 -3.1138568435332292e+02 0.0000000000000000e+00 -3.1138568435332292e+02 7.6096516274065038e+02 0.0000000000000000e+00 0.0000000000000000e+00 0.0000000000000000e+00 0.0000000000000000e+00  7.4763228767758818e+01 -1.2215002805209664e+02 0.0000000000000000e+00 -1.2215002805209664e+02 2.0373422606460002e+02 0.0000000000000000e+00 0.0000000000000000e+00 0.0000000000000000e+00 0.0000000000000000e+00  4.2948926619063360e-03 -8.7493174370073964e-02 0.0000000000000000e+00 -8.7493174370073964e-02 4.7013811285738797e+02 0.0000000000000000e+00 0.000000000