<?xml version="1.0"?>
<VTKFile type="UnstructuredGrid"  version="0.1"  >
<UnstructuredGrid>
<Piece  NumberOfPoints="2165" NumberOfCells="4161">
<Points>
<DataArray  type="Float64"  NumberOfComponents="3"  format="ascii">-3.598637933768527e-16 0.3500000000000001 0  0.05 0.4 0  -3.537405593811159e-16 0.45 0  0 1 0  1 1 0  0.9999999999999997 0.65 0  0.9999999999999997 0.5499999999999999 0  1 0 0  0 0 0  0.0191341716182545 0.3538060233744357 0  0.03535533905932737 0.3646446609406727 0  0.04619397662556433 0.3808658283817455 0  0.04619397662556434 0.4191341716182545 0  0.03535533905932738 0.4353553390593274 0  0.01913417161825449 0.4461939766255644 0  0 0.975 0  0 0.95 0  0 0.9249999999999999 0  0 0.8999999999999998 0  0 0.8749999999999998 0  0 0.8499999999999998 0  0 0.8249999999999997 0  0 0.7999999999999996 0  0 0.7749999999999996 0  0 0.7499999999999996 0  0 0.7249999999999996 0  0 0.6999999999999997 0  0 0.6749999999999998 0  0 0.6499999999999999 0  0 0.6249999999999999 0  0 0.6 0  0 0.575 0  0 0.5499999999999998 0  0 0.5249999999999999 0  0 0.4999999999999998 0  0 0.4749999999999999 0  0.975 1 0  0.95 1 0  0.925 1 0  0.9 1 0  0.875 1 0  0.85 1 0  0.825 1 0  0.8 1 0  0.775 1 0  0.75 1 0  0.725 1 0  0.7 1 0  0.675 1 0  0.65 1 0  0.625 1 0  0.6 1 0  0.575 1 0  0.55 1 0  0.525 1 0  0.5 1 0  0.475 1 0  0.45 1 0  0.425 1 0  0.4 1 0  0.375 1 0  0.35 1 0  0.325 1 0  0.3 1 0  0.275 1 0  0.25 1 0  0.225 1 0  0.2 1 0  0.175 1 0  0.15 1 0  0.125 1 0  0.09999999999999998 1 0  0.07499999999999996 1 0  0.05000000000000004 1 0  0.02500000000000002 1 0  1 0.675 0  1 0.7000000000000001 0  1 0.7250000000000001 0  1 0.7500000000000001 0  1 0.7750000000000001 0  1 0.8000000000000002 0  1 0.8250000000000002 0  1 0.8500000000000002 0  1 0.8750000000000003 0  1 0.9000000000000001 0  1 0.9250000000000002 0  1 0.9500000000000001 0  1 0.9750000000000001 0  0.9783058130441221 0.6450484433951209 0  0.9609084258765985 0.6311744900929367 0  0.9512536043909088 0.6111260466978157 0  0.9512536043909088 0.5888739533021843 0  0.9609084258765985 0.5688255099070633 0  0.9783058130441221 0.554951556604879 0  1 0.02500000000000002 0  1 0.05000000000000004 0  1 0.07500000000000008 0  1 0.1000000000000001 0  1 0.1250000000000001 0  1 0.1500000000000002 0  1 0.1750000000000002 0  1 0.2000000000000003 0  1 0.2250000000000003 0  1 0.2500000000000004 0  1 0.2750000000000004 0  1 0.3000000000000003 0  1 0.3250000000000002 0  1 0.3500000000000001 0  1 0.3750000000000001 0  1 0.3999999999999999 0  1 0.425 0  1 0.45 0  1 0.475 0  1 0.5000000000000001 0  1 0.5249999999999999 0  0.025 0 0  0.05 0 0  0.075 0 0  0.1 0 0  0.125 0 0  0.15 0 0  0.175 0 0  0.2 0 0  0.225 0 0  0.25 0 0  0.275 0 0  0.3 0 0  0.325 0 0  0.35 0 0  0.375 0 0  0.4 0 0  0.425 0 0  0.45 0 0  0.475 0 0  0.5 0 0  0.525 0 0  0.55 0 0  0.575 0 0  0.6 0 0  0.625 0 0  0.65 0 0  0.675 0 0  0.7 0 0  0.725 0 0  0.75 0 0  0.775 0 0  0.8 0 0  0.825 0 0  0.85 0 0  0.875 0 0  0.9 0 0  0.925 0 0  0.95 0 0  0.975 0 0  0 0.3250000000000001 0  0 0.3 0  0 0.275 0  0 0.2499999999999999 0  0 0.2249999999999999 0  0 0.1999999999999998 0  0 0.1749999999999998 0  0 0.1499999999999998 0  0 0.1249999999999998 0  0 0.09999999999999987 0  0 0.07499999999999984 0  0 0.04999999999999993 0  0 0.02500000000000002 0  0.06453325334544308 0.4134708543086404 0  0.5146839915088474 0.02134387884913819 0  0.4875871001393628 0.9784117024331356 0  0.9386300160094723 0.5701776715936071 0  0.0216506350946109 0.6124999999999999 0  0.9764205887290853 0.3596067946540696 0  0.3876261045932067 0.02156097490657183 0  0.6125 0.978349364905389 0  0.3612127461797463 0.9792371404802113 0  0.6374786650398092 0.02079982608537345 0  0.9387185538472446 0.6295115890709873 0  0.05482260092545593 0.3633687091864355 0  0.02445354803948679 0.7343198207875321 0  0.2624888813627476 0.02091671348578122 0  0.7375212991274043 0.9794996488945376 0  0.9793010831723812 0.2648509348664836 0  0.2625026480689301 0.9795699185263282 0  0.7362840788105066 0.02225211062275217 0  0.02159327910297104 0.2128861809896528 0  0.9786837570973538 0.7867241244631172 0  0.02419728000065929 0.8365600234152764 0  0.980043283615984 0.1624097203408714 0  0.1645857434226354 0.0205513501962844 0  0.8339481359352011 0.9784483546369231 0  0.1637584777222821 0.9774556328160621 0  0.8374916614314967 0.02165097219510076 0  0.02171915379676059 0.5370700005916152 0  0.9795335762511281 0.4365726939225819 0  0.02319480745007968 0.1370197632171214 0  0.9774462976085161 0.8592616917551974 0  0.9786941241076723 0.7122511101067891 0  0.9797883857882621 0.08781864217752949 0  0.01966314788989931 0.9125801876811624 0  0.02051815350151098 0.2882126194470174 0  0.09063226699593246 0.0214884092697174 0  0.9124408843562394 0.9818463395009377 0  0.03872465516591678 0.452731089005145 0  0.08969424365256845 0.978412979507602 0  0.9124999999999999 0.02165063509461096 0  0.02158104789437187 0.6619299176372371 0  0.9796602354625652 0.4859004208706154 0  0.3127517983598529 0.02417963694738812 0  0.4375629605000894 0.02158039900821679 0  0.5643674594196073 0.01968996000301126 0  0.5368361594956101 0.9790428840407062 0  0.4376176251051295 0.9783667484208922 0  0.6874072695660477 0.978435143102373 0  0.310604317388614 0.979558305560928 0  0.2125577044121564 0.02066685543111635 0  0.6875 0.0216506350946109 0  0.02224009810917643 0.08811420611559456 0  0.790876428529276 0.978633065284896 0  0.2125 0.978349364905389 0  0.9788033534786624 0.2116925349935155 0  0.9769441169344462 0.3150381335760689 0  0.9804648376981185 0.9123186437266726 0  0.7874999988222203 0.02127957051165741 0  0.02109233852270731 0.786866823287435 0  0.9483709287873718 0.5504073206521916 0  0.9259842326464427 0.5519702047534598 0  0.9163209045278007 0.5719292915927929 0  0.9035374059862284 0.5537291796040291 0  0.8938951918780048 0.5738949757882954 0  0.8807940177559743 0.5546750869516996 0  0.8712661812741653 0.5757142549099102 0  0.8580668865514332 0.5563902430113601 0  0.848508161986991 0.5779004013072002 0  0.8354274200119249 0.5591176379057713 0  0.8256349826905482 0.5800610629400762 0  0.8124123591208572 0.5604454546391737 0  0.802603410938817 0.5819653950592523 0  0.7892876429890218 0.562234610648543 0  0.7794355871850538 0.583896242519796 0  0.7661469824381839 0.5648243426306435 0  0.7562387679604726 0.5860005456930413 0  0.7429651600512166 0.5669367633461588 0  0.7330846968880171 0.5879590907760761 0  0.7198577999459205 0.5688986880627463 0  0.7297050500533544 0.5479561801187277 0  0.7066243396993471 0.5499068108517552 0  0.6968285086900206 0.5707989520567972 0  0.6836266810714333 0.5519088927359967 0  0.6738604685766018 0.5727655091567184 0  0.6607284761452521 0.5538781923028128 0  0.6697149783704412 0.5321140554135094 0  0.6473436039782401 0.5350050604671006 0  0.6378867365666199 0.5557804038095817 0  0.6246915360243652 0.5362124690568238 0  0.6151175309583405 0.5575933164645619 0  0.6019784180102355 0.5380659376543677 0  0.5924099113505394 0.5593739656462906 0  0.5794110962027638 0.541110021814312 0  0.5697985396917309 0.5614600003719357 0  0.5568468707330213 0.5433212932327446 0  0.5472634011377896 0.5635652141280936 0  0.5343236363495072 0.5451361960661517 0  0.5247877773262166 0.565493591892781 0  0.5118927934227436 0.5470665328397559 0  0.5023398230005425 0.5674381114577953 0  0.5213991904098014 0.5267047787870831 0  0.4990390504096661 0.528649139287786 0  0.6328887517229864 0.5131744321062524 0  0.5085133205790763 0.5083322037773296 0  0.4861972978925295 0.5102540920324363 0  0.4956914791804768 0.4899605513008993 0  0.4734139980312694 0.4918582759645476 0  0.4826986629698439 0.4717164019717278 0  0.460570567761715 0.473509155475794 0  0.4699344541058981 0.4533140529328089 0  0.4477087341565655 0.4550973130597117 0  0.4381733274019614 0.4752901381741884 0  0.4570222843287571 0.4349938694701042 0  0.4348599018247688 0.436728068420533 0  0.5604623134382263 0.581815997002507 0  0.4443612964408632 0.416499823314016 0  0.422056299386984 0.4183730429856528 0  0.4688721528228815 0.4135009841763965 0  0.4315584877924544 0.398120546824229 0  0.4092288692044618 0.3999974286008185 0  0.7463210599443056 0.6070829843371945 0  0.4187270626688335 0.3797365044773463 0  0.3964262302393312 0.3817184136470017 0  0.3869780036193907 0.4018498778543814 0  0.3742423843122406 0.3837055716372927 0  0.3648701490102072 0.4037049758807119 0  0.3518115403926748 0.3858985036587403 0  0.3426146276710081 0.4056777495658291 0  0.3614541441355358 0.3656396497906528 0  0.339026673715919 0.3678724679736439 0  0.3485566370135618 0.3476560889674916 0  0.3264681821394378 0.3496422822523857 0  0.8219942777991693 0.5379143061758643 0  0.3358297439968608 0.3295117748868035 0  0.3137050884585635 0.3314921667582986 0  0.3229980644152205 0.3113561769498422 0  0.3007986024336577 0.3133063832007756 0  0.3441851868720173 0.3085211458266175 0  0.3101966551534752 0.2930273704914169 0  0.287793053707373 0.2950088132226583 0  0.2914417217227097 0.3337427541189321 0  0.2975120686695638 0.2743682539701985 0  0.274864585256681 0.2764253296978281 0  0.816026571618698 0.6006851919544112 0  0.2844672854128698 0.2557011565880619 0  0.2617267434509338 0.2577713002235077 0  0.3072711221189672 0.2536790056475094 0  0.2521588568690318 0.2785072139143895 0  0.2389277409161178 0.2598761196336353 0  0.248448076747058 0.2389478879785275 0  0.5053822153261678 0.4716915524631118 0  0.229548765875869 0.2806542761043101 0  0.2254561407802683 0.2411354049374563 0  0.2350621310805047 0.2199181955146378 0  0.2117782450160163 0.222165061041625 0  0.2214249125635323 0.2008136877065064 0  0.2448758256083499 0.1985732693215908 0  0.197966291680556 0.2031211006951591 0  0.1883147493074436 0.2245564097761413 0  0.8910637266939049 0.5322898364209732 0  0.1748136087708587 0.2051141748992724 0  0.1842088801696792 0.1837087814679069 0  0.1656574100807746 0.2269812054689968 0  0.3554582346764377 0.4236292557112198 0  0.3328979939923831 0.425459320867588 0  0.3460368767112177 0.4435398346083328 0  0.3238464003
[...]
<PointData  Tensors="$\sigma$"> 
<DataArray  type="Float64"  Name="$\sigma$"  NumberOfComponents="9" format="ascii">-9.3685287203925967e+00 -5.0754984603044569e+01 0.0000000000000000e+00 -5.0754984603044569e+01 -1.0980302945838849e+02 0.0000000000000000e+00 0.0000000000000000e+00 0.0000000000000000e+00 0.0000000000000000e+00  2.8527396351631688e+02 -3.3142922344047998e-01 0.0000000000000000e+00 -3.3142922344047998e-01 2.9165123717624342e+03 0.0000000000000000e+00 0.0000000000000000e+00 0.0000000000000000e+00 0.0000000000000000e+00  -6.1727314670732003e+00 5.7921388760942122e+01 0.0000000000000000e+00 5.7921388760942122e+01 -1.1563313364029645e+02 0.0000000000000000e+00 0.0000000000000000e+00 0.0000000000000000e+00 0.0000000000000000e+00  -1.8123488894350670e-02 1.0152311763815962e-01 0.0000000000000000e+00 1.0152311763815947e-01 9.3859092114249188e+02 0.0000000000000000e+00 0.0000000000000000e+00 0.0000000000000000e+00 0.0000000000000000e+00  -1.6183013004041147e-01 -4.8765733424674176e-02 0.0000000000000000e+00 -4.8765733424674322e-02 9.1124786041750679e+02 0.0000000000000000e+00 0.0000000000000000e+00 0.0000000000000000e+00 0.0000000000000000e+00  4.5872754878446171e+00 -6.0232775982809137e+01 0.0000000000000000e+00 -6.0232775982809137e+01 1.2481304330107205e-01 0.0000000000000000e+00 0.0000000000000000e+00 0.0000000000000000e+00 0.0000000000000000e+00  4.4519956918484432e+01 -2.8789755391455870e+01 0.0000000000000000e+00 -2.8789755391455870e+01 3.3176092979188255e+01 0.0000000000000000e+00 0.0000000000000000e+00 0.0000000000000000e+00 0.0000000000000000e+00  -1.0664221532848674e-01 -8.1679839994381817e-04 0.0000000000000000e+00 -8.1679839994381817e-04 9.3931705006858942e+02 0.0000000000000000e+00 0.0000000000000000e+00 0.0000000000000000e+00 0.0000000000000000e+00  2.5401527723528659e+02 1.0943233679271708e+02 0.0000000000000000e+00 1.0943233679271708e+02 9.8034950096855198e+02 0.0000000000000000e+00 0.0000000000000000e+00 0.0000000000000000e+00 0.0000000000000000e+00  1.4959775888240418e+02 1.6271308104247251e+02 0.0000000000000000e+00 1.6271308104247251e+02 1.7751600792665937e+02 0.0000000000000000e+00 0.0000000000000000e+00 0.0000000000000000e+00 0.0000000000000000e+00  4.4116429853441025e+02 5.6557409340110905e+02 0.0000000000000000e+00 5.6557409340110905e+02 9.2408662237225542e+02 0.0000000000000000e+00 0.0000000000000000e+00 0.0000000000000000e+00 0.0000000000000000e+00  4.2054706326341790e+02 6.3212380941261301e+02 0.0000000000000000e+00 6.3212380941261301e+02 2.2549578971628707e+03 0.0000000000000000e+00 0.0000000000000000e+00 0.0000000000000000e+00 0.0000000000000000e+00  4.1536889069389218e+02 -6.4525351996039831e+02 0.0000000000000000e+00 -6.4525351996039831e+02 2.2548619562815129e+03 0.0000000000000000e+00 0.0000000000000000e+00 0.0000000000000000e+00 0.0000000000000000e+00  4.4308232024893044e+02 -5.5685309311490505e+02 0.0000000000000000e+00 -5.5685309311490505e+02 9.6579213101465518e+02 0.0000000000000000e+00 0.0000000000000000e+00 0.0000000000000000e+00 0.0000000000000000e+00  1.4609338371217049e+02 -1.6567693705252574e+02 0.0000000000000000e+00 -1.6567693705252574e+02 1.7739532802670936e+02 0.0000000000000000e+00 0.0000000000000000e+00 0.0000000000000000e+00 0.0000000000000000e+00  -1.7615202658391671e-02 -9.4883049098275274e-02 0.0000000000000000e+00 -9.4883049098275260e-02 9.3818575403483271e+02 0.0000000000000000e+00 0.0000000000000000e+00 0.0000000000000000e+00 0.0000000000000000e+00  1.0457754271739452e-02 -2.0453219041999707e-01 0.0000000000000000e+00 -2.0453219041999654e-01 9.3756781189239041e+02 0.0000000000000000e+00 0.0000000000000000e+00 0.0000000000000000e+00 0.0000000000000000e+00  1.0188321198312377e-02 -1.9357623450250863e-01 0.0000000000000000e+00 -1.9357623450250866e-01 9.3629628647373852e+02 0.0000000000000000e+00 0.0000000000000000e+00 0.0000000000000000e+00 0.0000000000000000e+00  -1.8743147881766575e-02 -2.7705788830105010e-01 0.0000000000000000e+00 -2.7705788830105066e-01 9.3442087528680065e+02 0.0000000000000000e+00 0.0000000000000000e+00 0.0000000000000000e+00 0.0000000000000000e+00  -7.8224957256610873e-03 -4.1929902393237251e-01 0.0000000000000000e+00 -4.1929902393237184e-01 9.3212815019934351e+02 0.0000000000000000e+00 0.0000000000000000e+00 0.0000000000000000e+00 0.0000000000000000e+00  7.6549294821869382e-02 -6.5203373029506351e-01 0.0000000000000000e+00 -6.5203373029506284e-01 9.2948310672580988e+02 0.0000000000000000e+00 0.0000000000000000e+00 0.0000000000000000e+00 0.0000000000000000e+00  -3.9126178177045328e-04 -6.0044248940146150e-01 0.0000000000000000e+00 -6.0044248940146150e-01 9.2483003627449318e+02 0.0000000000000000e+00 0.0000000000000000e+00 0.0000000000000000e+00 0.0000000000000000e+00  4.7960659960178224e-02 -8.9118177636150064e-01 0.0000000000000000e+00 -8.9118177636150064e-01 9.2065774912113216e+02 0.0000000000000000e+00 0.0000000000000000e+00 0.0000000000000000e+00 0.0000000000000000e+00  2.8892753852760890e-02 -1.1807409570917147e+00 0.0000000000000000e+00 -1.1807409570917147e+00 9.1469158224881403e+02 0.0000000000000000e+00 0.0000000000000000e+00 0.0000000000000000e+00 0.0000000000000000e+00  2.2026819475221110e-01 -1.1487898997151860e+00 0.0000000000000000e+00 -1.1487898997151860e+00 9.0858448050155300e+02 0.0000000000000000e+00 0.0000000000000000e+00 0.0000000000000000e+00 0.0000000000000000e+00  -1.6434993056952091e-01 -1.6609772098589455e+00 0.0000000000000000e+00 -1.6609772098589455e+00 8.9623792428680486e+02 0.0000000000000000e+00 0.0000000000000000e+00 0.0000000000000000e+00 0.0000000000000000e+00  -5.0201619194847440e-02 -2.6328057066541763e+00 0.0000000000000000e+00 -2.6328057066541763e+00 8.8927082794395892e+02 0.0000000000000000e+00 0.0000000000000000e+00 0.0000000000000000e+00 0.0000000000000000e+00  -2.9452510837876839e-02 -2.2780691900247816e+00 0.0000000000000000e+00 -2.2780691900247825e+00 8.7169802522891268e+02 0.0000000000000000e+00 0.0000000000000000e+00 0.0000000000000000e+00 0.0000000000000000e+00  3.5380029002935642e-01 -3.4027221464725561e+00 0.0000000000000000e+00 -3.4027221464725561e+00 8.5444848039127066e+02 0.0000000000000000e+00 0.0000000000000000e+00 0.0000000000000000e+00 0.0000000000000000e+00  5.0690844785573774e-01 -3.0988239263337594e+00 0.0000000000000000e+00 -3.0988239263337594e+00 8.2811833400708042e+02 0.0000000000000000e+00 0.0000000000000000e+00 0.0000000000000000e+00 0.0000000000000000e+00  -2.2878747695113794e-01 -5.7619318486144699e+00 0.0000000000000000e+00 -5.7619318486144691e+00 7.9498615470368668e+02 0.0000000000000000e+00 0.0000000000000000e+00 0.0000000000000000e+00 0.0000000000000000e+00  9.2811810637436021e-01 -1.1758193215597768e+01 0.0000000000000000e+00 -1.1758193215597768e+01 7.4451022633214041e+02 0.0000000000000000e+00 0.0000000000000000e+00 0.0000000000000000e+00 0.0000000000000000e+00  7.6863117645069007e-02 -1.3617857011549310e+01 0.0000000000000000e+00 -1.3617857011549310e+01 6.6732512286898952e+02 0.0000000000000000e+00 0.0000000000000000e+00 0.0000000000000000e+00 0.0000000000000000e+00  -2.1677586360109360e+00 -3.0642365008549422e+01 0.0000000000000000e+00 -3.0642365008549422e+01 5.5618269596737218e+02 0.0000000000000000e+00 0.0000000000000000e+00 0.0000000000000000e+00 0.0000000000000000e+00  -1.0051482019832239e+01 -4.4445449547946616e+01 0.0000000000000000e+00 -4.4445449547946616e+01 3.7513681463151988e+02 0.0000000000000000e+00 0.0000000000000000e+00 0.0000000000000000e+00 0.0000000000000000e+00  2.8204162788475021e+01 -3.8024023791354928e+01 0.0000000000000000e+00 -3.8024023791354928e+01 1.5716640967741137e+02 0.0000000000000000e+00 0.0000000000000000e+00 0.0000000000000000e+00 0.0000000000000000e+00  -6.9896816860752597e-01 6.2981147977424740e-02 0.0000000000000000e+00 6.2981147977423518e-02 9.1344690870744239e+02 0.0000000000000000e+00 0.0000000000000000e+00 0.0000000000000000e+00 0.0000000000000000e+00  -3.8428812966312900e+00 1.5098049661663954e-01 0.0000000000000000e+00 1.5098049661663981e-01 9.1923463296198702e+02 0.0000000000000000e+00 0.0000000000000000e+00 0.0000000000000000e+00 0.0000000000000000e+00  -8.4450709359278697e+00 3.3770577613743180e-01 0.0000000000000000e+00 3.3770577613743180e-01 9.2787485837992392e+02 0.0000000000000000e+00 0.0000000000000000e+00 0.0000000000000000e+00 0.0000000000000000e+00  -1.4093304665824620e+01 3.0747914103319707e-01 0.0000000000000000e+00 3.0747914103319673e-01 9.3755658287534879e+02 0.0000000000000000e+00 0.0000000000000000e+00 0.0000000000000000e+00 0.0000000000000000e+00  -1.8559658810933637e+01 6.2058254934005941e-01 0.0000000000000000e+00 6.2058254934006118e-01 9.5035109731438160e+02 0.0000000000000000e+00 0.0000000000000000e+00 0.0000000000000000e+00 0.0000000000000000e+00  -2.3526208720662819e+01 7.0713896258218459e-02 0.0000000000000000e+00 7.0713896258218889e-02 9.6275034404306462e+02 0.0000000000000000e+00 0.0000000000000000e+00 0.0000000000000000e+00 0.0000000000000000e+00  -2.8332645471138765e+01 -4.7541628395753363e-02 0.0000000000000000e+00 -4.7541628395752655e-02 9.7284280071478827e+02 0.0000000000000000e+00 0.0000000000000000e+00 0.0000000000000000e+00 0.0000000000000000e+00  -3.0235954214682152e+01 -8.1018157791406531e-02 0.0000000000000000e+00 -8.1018157791406531e-02 9.8426484070335255e+02 0.0000000000000000e+00 0.0000000000000000e+00 0.0000000000000000e+00 0.0000000000000000e+00  -3.2695391081682786e+01 2.2174164555489415e-02 0.0000000000000000e+00 2.2174164555489116e-02 9.9116308665117435e+02 0.0000000000000000e+00 0.0000000000000000e+00 0.0000000000000000e+00 0.0000000000000000e+00  -3.4129752630705234e+01 -1.6906871905928922e-01 0.0000000000000000e+00 -1.6906871905928919e-01 9.9807537096813110e+02 0.0000000000000000e+00 0.0000000000000000e+00 0.0000000000000000e+00 0.0000000000000000e+00  -3.4365517431509183e+01 -2.5557159476014946e-01 0.0000000000000000e+00 -2.5557159476014946e-01 1.0035316373540049e+03 0.0000000000000000e+00 0.0000000000000000e+00 0.0000000000000000e+00 0.0000000000000000e+00  -3.3935981470523288e+01 -2.4779626810333949e-01 0.0000000000000000e+00 -2.4779626810333949e-01 1.0070995956453349e+03 0.0000000000000000e+00 0.0000000000000000e+00 0.0000000000000000e+00 0.0000000000000000e+00  -3.3126838162357664e+01 -1.9695930926546804e-01 0.0000000000000000e+00 -1.9695930926546806e-01 1.0096887296044910e+03 0.0000000000000000e+00 0.0000000000000000e+00 0.0000000000000000e+00 0.0000000000000000e+00  -3.2065670466208310e+01 -2.0435101014201162e-01 0.0000000000000000e+00 -2.0435101014201162e-01 1.0112786539669962e+03 0.0000000000000000e+00 0.0000000000000000e+00 0.0000000000000000e+00 0.0000000000000000e+00  -3.0708328085789379e+01 -1.9829209802213771e-01 0.0000000000000000e+00 -1.9829209802213815e-01 1.0119136146424175e+03 0.0000000000000000e+00 0.0000000000000000e+00 0.0000000000000000e+00 0.0000000000000000e+00  -2.9340091534072879e+01 -1.8007241638341021e-01 0.0000000000000000e+00 -1.8007241638341001e-01 1.0119370929856198e+03 0.0000000000000000e+00 0.0000000000000000e+00 0.0000000000000000e+00 0.0000000000000000e+00  -2.7976139716311621e+01 -1.5102328206656898e-01 0.0000000000000000e+00 -1.5102328206656890e-01 1.0113812438671401e+03 0.0000000000000000e+00 0.0000000000000000e+00 0.0000000000000000e+00 0.0000000000000000e+00  -2.6686666266758944e+01 -1.2705633303667085e-01 0.0000000000000000e+00 -1.2705633303667105e-01 1.0104263712573988e+03 0.0000000000000000e+00 0.0000000000000000e+00 0.0000000000000000e+00 0.0000000000000000e+00  -2.5463538606043155e+01 -9.2658706016240794e-02 0.0000000000000000e+00 -9.2658706016241238e-02 1.0090996961267813e+03 0.0000000000000000e+00 0.0000000000000000e+00 0.0000000000000000e+00 0.0000000000000000e+00  -2.4361349663593678e+01 -6.1582917463256732e-02 0.0000000000000000e+00 -6.1582917463256628e-02 1.0074330809752918e+03 0.0000000000000000e+00 0.0000000000000000e+00 0.0000000000000000e+00 0.0000000000000000e+00  -2.3348347967068086e+01 -3.7959222749172072e-02 0.0000000000000000e+00 -3.7959222749172093e-02 1.0055212145853085e+03 0.0000000000000000e+00 0.0000000000000000e+00 0.0000000000000000e+00 0.0000000000000000e+00  -2.2390463771270266e+01 -1.6100473422102364e-02 0.0000000000000000e+00 -1.6100473422102312e-02 1.0033289988994030e+03 0.0000000000000000e+00 0.0000000000000000e+00 0.0000000000000000e+00 0.0000000000000000e+00  -2.1510956228251288e+01 4.9311307497485390e-03 0.0000000000000000e+00 4.9311307497484887e-03 1.0008609721733162e+03 0.0000000000000000e+00 0.0000000000000000e+00 0.0000000000000000e+00 0.0000000000000000e+00  -2.0595597170727615e+01 -1.2219690787124041e-02 0.0000000000000000e+00 -1.2219690787124034e-02 9.9810255617074893e+02 0.0000000000000000e+00 0.0000000000000000e+00 0.0000000000000000e+00 0.0000000000000000e+00  -1.9699376067876649e+01 1.6011279503580179e-03 0.0000000000000000e+00 1.6011279503580179e-03 9.9516703705997168e+02 0.0000000000000000e+00 0.0000000000000000e+00 0.0000000000000000e+00 0.0000000000000000e+00  -1.8686839408856613e+01 1.6791765695842814e-02 0.0000000000000000e+00 1.6791765695842814e-02 9.9180398101401283e+02 0.0000000000000000e+00 0.0000000000000000e+00 0.0000000000000000e+00 0.0000000000000000e+00  -1.7630851482397158e+01 2.6914134310993050e-02 0.0000000000000000e+00 2.6914134310993050e-02 9.8808723035007245e+02 0.0000000000000000e+00 0.0000000000000000e+00 0.0000000000000000e+00 0.0000000000000000e+00  -1.6444977587044455e+01 1.0930041151300609e-02 0.0000000000000000e+00 1.0930041151300609e-02 9.8423895225798992e+02 0.0000000000000000e+00 0.0000000000000000e+00 0.0000000000000000e+00 0.0000000000000000e+00  -1.5092830800081328e+01 2.7444257049275125e-02 0.0000000000000000e+00 2.7444257049275087e-02 9.8012178206479723e+02 0.0000000000000000e+00 0.0000000000000000e+00 0.0000000000000000e+00 0.0000000000000000e+00  -1.3711299926451050e+01 1.4928887473345540e-02 0.0000000000000000e+00 1.4928887473345762e-02 9.7556399500668829e+02 0.0000000000000000e+00 0.0000000000000000e+00 0.0000000000000000e+00 0.0000000000000000e+00  -1.1990408606143815e+01 1.6582105542946660e-02 0.0000000000000000e+00 1.6582105542946611e-02 9.7104610851592906e+02 0.0000000000000000e+00 0.0000000000000000e+00 0.0000000000000000e+00 0.0000000000000000e+00  -1.0417604110699855e+01 -2.9733938621955853e-02 0.0000000000000000e+00 -2.9733938621955142e-02 9.6615367490449160e+02 0.0000000000000000e+00 0.0000000000000000e+00 0.0000000000000000e+00 0.0000000000000000e+00  -8.5187216120544509e+00 -4.4036533573645294e-02 0.0000000000000000e+00 -4.4036533573645918e-02 9.6136708743136796e+02 0.0000000000000000e+00 0.0000000000000000e+00 0.0000000000000000e+00 0.0000000000000000e+00  -6.7074066499826461e+00 -6.7976856940850455e-02 0.0000000000000000e+00 -6.7976856940851482e-02 9.5691421555625345e+02 0.0000000000000000e+00 0.0000000000000000e+00 0.0000000000000000e+00 0.0000000000000000e+00  -4.9242919089043848e+00 -2.4299900505926755e-02 0.0000000000000000e+00 -2.4299900505925860e-02 9.5252425279896147e+02 0.0000000000000000e+00 0.0000000000000000e+00 0.0000000000000000e+00 0.0000000000000000e+00  -3.3177014609281263e+00 -1.0644357696196318e-02 0.0000000000000000e+00 -1.0644357696195712e-02 9.4832583937741970e+02 0.0000000000000000e+00 0.0000000000000000e+00 0.0000000000000000e+00 0.0000000000000000e+00  -1.9536726403682823e+00 -1.6268563070379355e-02 0.0000000000000000e+00 -1.6268563070379400e-02 9.4477321458282142e+02 0.0000000000000000e+00 0.0000000000000000e+00 0.0000000000000000e+00 0.0000000000000000e+00  -8.9340110321182087e-01 5.6065121521573563e-03 0.0000000000000000e+00 5.6065121521573025e-03 9.4176552603409402e+02 0.0000000000000000e+00 0.0000000000000000e+00 0.0000000000000000e+00 0.0000000000000000e+00  -1.3016646182368774e-01 5.2997095297248317e-02 0.0000000000000000e+00 5.2997095297248234e-02 9.3979154013910875e+02 0.0000000000000000e+00 0.0000000000000000e+00 0.0000000000000000e+00 0.0000000000000000e+00  3.6863767576660806e+01 3.2768646256753961e+01 0.0000000000000000e+00 3.2768646256753961e+01 1.2652517211102263e+02 0.0000000000000000e+00 0.0000000000000000e+00 0.0000000000000000e+00 0.0000000000000000e+00  9.0443451869622802e+00 3.6813079764166318e+01 0.0000000000000000e+00 3.6813079764166318e+01 3.9452360811781210e+02 0.0000000000000000e+00 0.0000000000000000e+00 0.0000000000000000e+00 0.0000000000000000e+00  1.4436633819339895e+00 2.1254010849408953e+01 0.0000000000000000e+00 2.1254010849408953e+01 5.6615924141295181e+02 0.0000000000000000e+00 0.0000000000000000e+00 0.0000000000000000e+00 0.0000000000000000e+00  2.8848018902849919e+00 1.3443738945947546e+01 0.0000000000000000e+00 1.3443738945947546e+01 6.8450631517822944e+02 0.0000000000000000e+00 0.0000000000000000e+00 0.0000000000000000e+00 0.0000000000000000e+00  5.2571224359585733e-01 6.7745938980644134e+00 0.0000000000000000e+00 6.7745938980644116e+00 7.5511493799649952e+02 0.0000000000000000e+00 0.0000000000000000e+00 0.0000000000000000e+00 0.0000000000000000e+00  1.1109342179500832e+00 4.8760646712090114e+00 0.0000000000000000e+00 4.8760646712090123e+00 8.0256608604599194e+02 0.0000000000000000e+00 0.0000000000000000e+00 0.0000000000000000e+00 0.0000000000000000e+00  1.0902775131619855e-01 5.4272693822810885e+00 0.0000000000000000e+00 5.4272693822810893e+00 8.4027223444111007e+02 0.0000000000000000e+00 0.0000000000000000e+00 0.0000000000000000e+00 0.0000000000000000e+00  -8.0123241957506164e-01 3.5810123641890947e+00 0.0000000000000000e+00 3.5810123641890890e+00 8.5804218331351638e+02 0.0000000000000000e+00 0.0000000000000000e+00 0.0000000000000000e+00 0.0000000000000000e+00  2.4229679803277529e-01 2.3267251750685567e+00 0.0000000000000000e+00 2.3267251750685567e+00 8.8046245150126651e+02 0.0000000000000000e+00 0.0000000000000000e+00 0.0000000000000000e+00 0.0000000000000000e+00  9.6868140043426532e-02 1.9018015931823407e+00 0.0000000000000000e+00 1.9018015931823395e+00 8.9232759759535668e+02 0.0000000000000000e+00 0.0000000000000000e+00 0.0000000000000000e+00 0.0000000000000000e+00  -1.4216914535855568e-01 7.0835692711475096e-01 0.0000000000000000e+00 7.0835692711474951e-01 9.0100159321119349e+02 0.0000000000000000e+00 0.0000000000000000e+00 0.0000000000000000e+00 0.0000000000000000e+00  2.6415282470117768e-01 5.1664940284915006e-01 0.0000000000000000e+00 5.1664940284914984e-01 9.0658831046402770e+02 0.0000000000000000e+00 0.0000000000000000e+00 0.0000000000000000e+00 0.0000000000000000e+00  -4.8486353065663637e-02 3.1269259464999993e-01 0.0000000000000000e+00 3.1269259464999949e-01 9.1061974534350270e+02 0.0000000000000000e+00 0.0000000000000000e+00 0.0000000000000000e+00 0.0000000000000000e+00  1.9747599826268015e+02 2.2961803093257504e+02 0.0000000000000000e+00 2.2961803093257504e+02 2.3979440965054368e+02 0.0000000000000000e+00 0.0000000000000000e+00 0.0000000000000000e+00 0.0000000000000000e+00  5.0942736879833427e+02 6.4896415365845735e+02 0.0000000000000000e+00 6.4896415365845735e+02 1.3984626737602714e+03 0.0000000000000000e+00 0.0000000000000000e+00 0.0000000000000000e+00 0.0000000000000000e+00  2.5444926488095126e+02 4.4575251833205402e+02 0.0000000000000000e+00 4.4575251833205402e+02 2.6761419282320221e+03 0.0000000000000000e+00 0.0000000000000000e+00 0.0000000000000000e+00 0.0000000000000000e+00  4.1184355792959286e+02 -2.7721850363722581e+02 0.0000000000000000e+00 -2.7721850363722581e+02 2.4486676377603676e+03 0.0000000000000000e+00 0.0000000000000000e+00 0.0000000000000000e+00 0.0000000000000000e+00  3.4970441190934690e+02 -6.7518709334562129e+02 0.0000000000000000e+00 -6.7518709334562129e+02 1.4410554111567569e+03 0.0000000000000000e+00 0.0000000000000000e+00 0.0000000000000000e+00 0.0000000000000000e+00  1.6501659956764635e+02 -2.3540852586027367e+02 0.0000000000000000e+00 -2.3540852586027367e+02 3.1781856145550364e+02 0.0000000000000000e+00 0.0000000000000000e+00 0.0000000000000000e+00 0.0000000000000000e+00  1.3038664261386364e-02 -1.3017375137873993e-01 0.0000000000000000e+00 -1.3017375137873993e-01 9.3904722402546520e+02 0.0000000000000000e+00 0.0000000000000000e+00 