<?xml version="1.0"?>
<VTKFile type="UnstructuredGrid"  version="0.1"  >
<UnstructuredGrid>
<Piece  NumberOfPoints="2165" NumberOfCells="4161">
<Points>
<DataArray  type="Float64"  NumberOfComponents="3"  format="ascii">-3.598637933768527e-16 0.3500000000000001 0  0.05 0.4 0  -3.537405593811159e-16 0.45 0  0 1 0  1 1 0  0.9999999999999997 0.65 0  0.9999999999999997 0.5499999999999999 0  1 0 0  0 0 0  0.0191341716182545 0.3538060233744357 0  0.03535533905932737 0.3646446609406727 0  0.04619397662556433 0.3808658283817455 0  0.04619397662556434 0.4191341716182545 0  0.03535533905932738 0.4353553390593274 0  0.01913417161825449 0.4461939766255644 0  0 0.975 0  0 0.95 0  0 0.9249999999999999 0  0 0.8999999999999998 0  0 0.8749999999999998 0  0 0.8499999999999998 0  0 0.8249999999999997 0  0 0.7999999999999996 0  0 0.7749999999999996 0  0 0.7499999999999996 0  0 0.7249999999999996 0  0 0.6999999999999997 0  0 0.6749999999999998 0  0 0.6499999999999999 0  0 0.6249999999999999 0  0 0.6 0  0 0.575 0  0 0.5499999999999998 0  0 0.5249999999999999 0  0 0.4999999999999998 0  0 0.4749999999999999 0  0.975 1 0  0.95 1 0  0.925 1 0  0.9 1 0  0.875 1 0  0.85 1 0  0.825 1 0  0.8 1 0  0.775 1 0  0.75 1 0  0.725 1 0  0.7 1 0  0.675 1 0  0.65 1 0  0.625 1 0  0.6 1 0  0.575 1 0  0.55 1 0  0.525 1 0  0.5 1 0  0.475 1 0  0.45 1 0  0.425 1 0  0.4 1 0  0.375 1 0  0.35 1 0  0.325 1 0  0.3 1 0  0.275 1 0  0.25 1 0  0.225 1 0  0.2 1 0  0.175 1 0  0.15 1 0  0.125 1 0  0.09999999999999998 1 0  0.07499999999999996 1 0  0.05000000000000004 1 0  0.02500000000000002 1 0  1 0.675 0  1 0.7000000000000001 0  1 0.7250000000000001 0  1 0.7500000000000001 0  1 0.7750000000000001 0  1 0.8000000000000002 0  1 0.8250000000000002 0  1 0.8500000000000002 0  1 0.8750000000000003 0  1 0.9000000000000001 0  1 0.9250000000000002 0  1 0.9500000000000001 0  1 0.9750000000000001 0  0.9783058130441221 0.6450484433951209 0  0.9609084258765985 0.6311744900929367 0  0.9512536043909088 0.6111260466978157 0  0.9512536043909088 0.5888739533021843 0  0.9609084258765985 0.5688255099070633 0  0.9783058130441221 0.554951556604879 0  1 0.02500000000000002 0  1 0.05000000000000004 0  1 0.07500000000000008 0  1 0.1000000000000001 0  1 0.1250000000000001 0  1 0.1500000000000002 0  1 0.1750000000000002 0  1 0.2000000000000003 0  1 0.2250000000000003 0  1 0.2500000000000004 0  1 0.2750000000000004 0  1 0.3000000000000003 0  1 0.3250000000000002 0  1 0.3500000000000001 0  1 0.3750000000000001 0  1 0.3999999999999999 0  1 0.425 0  1 0.45 0  1 0.475 0  1 0.5000000000000001 0  1 0.5249999999999999 0  0.025 0 0  0.05 0 0  0.075 0 0  0.1 0 0  0.125 0 0  0.15 0 0  0.175 0 0  0.2 0 0  0.225 0 0  0.25 0 0  0.275 0 0  0.3 0 0  0.325 0 0  0.35 0 0  0.375 0 0  0.4 0 0  0.425 0 0  0.45 0 0  0.475 0 0  0.5 0 0  0.525 0 0  0.55 0 0  0.575 0 0  0.6 0 0  0.625 0 0  0.65 0 0  0.675 0 0  0.7 0 0  0.725 0 0  0.75 0 0  0.775 0 0  0.8 0 0  0.825 0 0  0.85 0 0  0.875 0 0  0.9 0 0  0.925 0 0  0.95 0 0  0.975 0 0  0 0.3250000000000001 0  0 0.3 0  0 0.275 0  0 0.2499999999999999 0  0 0.2249999999999999 0  0 0.1999999999999998 0  0 0.1749999999999998 0  0 0.1499999999999998 0  0 0.1249999999999998 0  0 0.09999999999999987 0  0 0.07499999999999984 0  0 0.04999999999999993 0  0 0.02500000000000002 0  0.06453325334544308 0.4134708543086404 0  0.5146839915088474 0.02134387884913819 0  0.4875871001393628 0.9784117024331356 0  0.9386300160094723 0.5701776715936071 0  0.0216506350946109 0.6124999999999999 0  0.9764205887290853 0.3596067946540696 0  0.3876261045932067 0.02156097490657183 0  0.6125 0.978349364905389 0  0.3612127461797463 0.9792371404802113 0  0.6374786650398092 0.02079982608537345 0  0.9387185538472446 0.6295115890709873 0  0.05482260092545593 0.3633687091864355 0  0.02445354803948679 0.7343198207875321 0  0.2624888813627476 0.02091671348578122 0  0.7375212991274043 0.9794996488945376 0  0.9793010831723812 0.2648509348664836 0  0.2625026480689301 0.9795699185263282 0  0.7362840788105066 0.02225211062275217 0  0.02159327910297104 0.2128861809896528 0  0.9786837570973538 0.7867241244631172 0  0.02419728000065929 0.8365600234152764 0  0.980043283615984 0.1624097203408714 0  0.1645857434226354 0.0205513501962844 0  0.8339481359352011 0.9784483546369231 0  0.1637584777222821 0.9774556328160621 0  0.8374916614314967 0.02165097219510076 0  0.02171915379676059 0.5370700005916152 0  0.9795335762511281 0.4365726939225819 0  0.02319480745007968 0.1370197632171214 0  0.9774462976085161 0.8592616917551974 0  0.9786941241076723 0.7122511101067891 0  0.9797883857882621 0.08781864217752949 0  0.01966314788989931 0.9125801876811624 0  0.02051815350151098 0.2882126194470174 0  0.09063226699593246 0.0214884092697174 0  0.9124408843562394 0.9818463395009377 0  0.03872465516591678 0.452731089005145 0  0.08969424365256845 0.978412979507602 0  0.9124999999999999 0.02165063509461096 0  0.02158104789437187 0.6619299176372371 0  0.9796602354625652 0.4859004208706154 0  0.3127517983598529 0.02417963694738812 0  0.4375629605000894 0.02158039900821679 0  0.5643674594196073 0.01968996000301126 0  0.5368361594956101 0.9790428840407062 0  0.4376176251051295 0.9783667484208922 0  0.6874072695660477 0.978435143102373 0  0.310604317388614 0.979558305560928 0  0.2125577044121564 0.02066685543111635 0  0.6875 0.0216506350946109 0  0.02224009810917643 0.08811420611559456 0  0.790876428529276 0.978633065284896 0  0.2125 0.978349364905389 0  0.9788033534786624 0.2116925349935155 0  0.9769441169344462 0.3150381335760689 0  0.9804648376981185 0.9123186437266726 0  0.7874999988222203 0.02127957051165741 0  0.02109233852270731 0.786866823287435 0  0.9483709287873718 0.5504073206521916 0  0.9259842326464427 0.5519702047534598 0  0.9163209045278007 0.5719292915927929 0  0.9035374059862284 0.5537291796040291 0  0.8938951918780048 0.5738949757882954 0  0.8807940177559743 0.5546750869516996 0  0.8712661812741653 0.5757142549099102 0  0.8580668865514332 0.5563902430113601 0  0.848508161986991 0.5779004013072002 0  0.8354274200119249 0.5591176379057713 0  0.8256349826905482 0.5800610629400762 0  0.8124123591208572 0.5604454546391737 0  0.802603410938817 0.5819653950592523 0  0.7892876429890218 0.562234610648543 0  0.7794355871850538 0.583896242519796 0  0.7661469824381839 0.5648243426306435 0  0.7562387679604726 0.5860005456930413 0  0.7429651600512166 0.5669367633461588 0  0.7330846968880171 0.5879590907760761 0  0.7198577999459205 0.5688986880627463 0  0.7297050500533544 0.5479561801187277 0  0.7066243396993471 0.5499068108517552 0  0.6968285086900206 0.5707989520567972 0  0.6836266810714333 0.5519088927359967 0  0.6738604685766018 0.5727655091567184 0  0.6607284761452521 0.5538781923028128 0  0.6697149783704412 0.5321140554135094 0  0.6473436039782401 0.5350050604671006 0  0.6378867365666199 0.5557804038095817 0  0.6246915360243652 0.5362124690568238 0  0.6151175309583405 0.5575933164645619 0  0.6019784180102355 0.5380659376543677 0  0.5924099113505394 0.5593739656462906 0  0.5794110962027638 0.541110021814312 0  0.5697985396917309 0.5614600003719357 0  0.5568468707330213 0.5433212932327446 0  0.5472634011377896 0.5635652141280936 0  0.5343236363495072 0.5451361960661517 0  0.5247877773262166 0.565493591892781 0  0.5118927934227436 0.5470665328397559 0  0.5023398230005425 0.5674381114577953 0  0.5213991904098014 0.5267047787870831 0  0.4990390504096661 0.528649139287786 0  0.6328887517229864 0.5131744321062524 0  0.5085133205790763 0.5083322037773296 0  0.4861972978925295 0.5102540920324363 0  0.4956914791804768 0.4899605513008993 0  0.4734139980312694 0.4918582759645476 0  0.4826986629698439 0.4717164019717278 0  0.460570567761715 0.473509155475794 0  0.4699344541058981 0.4533140529328089 0  0.4477087341565655 0.4550973130597117 0  0.4381733274019614 0.4752901381741884 0  0.4570222843287571 0.4349938694701042 0  0.4348599018247688 0.436728068420533 0  0.5604623134382263 0.581815997002507 0  0.4443612964408632 0.416499823314016 0  0.422056299386984 0.4183730429856528 0  0.4688721528228815 0.4135009841763965 0  0.4315584877924544 0.398120546824229 0  0.4092288692044618 0.3999974286008185 0  0.7463210599443056 0.6070829843371945 0  0.4187270626688335 0.3797365044773463 0  0.3964262302393312 0.3817184136470017 0  0.3869780036193907 0.4018498778543814 0  0.3742423843122406 0.3837055716372927 0  0.3648701490102072 0.4037049758807119 0  0.3518115403926748 0.3858985036587403 0  0.3426146276710081 0.4056777495658291 0  0.3614541441355358 0.3656396497906528 0  0.339026673715919 0.3678724679736439 0  0.3485566370135618 0.3476560889674916 0  0.3264681821394378 0.3496422822523857 0  0.8219942777991693 0.5379143061758643 0  0.3358297439968608 0.3295117748868035 0  0.3137050884585635 0.3314921667582986 0  0.3229980644152205 0.3113561769498422 0  0.3007986024336577 0.3133063832007756 0  0.3441851868720173 0.3085211458266175 0  0.3101966551534752 0.2930273704914169 0  0.287793053707373 0.2950088132226583 0  0.2914417217227097 0.3337427541189321 0  0.2975120686695638 0.2743682539701985 0  0.274864585256681 0.2764253296978281 0  0.816026571618698 0.6006851919544112 0  0.2844672854128698 0.2557011565880619 0  0.2617267434509338 0.2577713002235077 0  0.3072711221189672 0.2536790056475094 0  0.2521588568690318 0.2785072139143895 0  0.2389277409161178 0.2598761196336353 0  0.248448076747058 0.2389478879785275 0  0.5053822153261678 0.4716915524631118 0  0.229548765875869 0.2806542761043101 0  0.2254561407802683 0.2411354049374563 0  0.2350621310805047 0.2199181955146378 0  0.2117782450160163 0.222165061041625 0  0.2214249125635323 0.2008136877065064 0  0.2448758256083499 0.1985732693215908 0  0.197966291680556 0.2031211006951591 0  0.1883147493074436 0.2245564097761413 0  0.8910637266939049 0.5322898364209732 0  0.1748136087708587 0.2051141748992724 0  0.1842088801696792 0.1837087814679069 0  0.1656574100807746 0.2269812054689968 0  0.3554582346764377 0.4236292557112198 0  0.3328979939923831 0.425459320867588 0  0.3460368767112177 0.4435398346083328 0  0.3238464003
[...]
<PointData  Tensors="$\sigma$"> 
<DataArray  type="Float64"  Name="$\sigma$"  NumberOfComponents="9" format="ascii">-4.2935943702016237e+02 -6.7402064862855411e+02 0.0000000000000000e+00 -6.7402064862855480e+02 -1.2301722668507909e+03 0.0000000000000000e+00 0.0000000000000000e+00 0.0000000000000000e+00 0.0000000000000000e+00  1.9304021435933128e+03 1.7577364189112920e+01 0.0000000000000000e+00 1.7577364189111105e+01 1.4416118419156473e+04 0.0000000000000000e+00 0.0000000000000000e+00 0.0000000000000000e+00 0.0000000000000000e+00  -3.1928079556870955e+02 7.6091243459676093e+02 0.0000000000000000e+00 7.6091243459676048e+02 -1.2942909109156776e+03 0.0000000000000000e+00 0.0000000000000000e+00 0.0000000000000000e+00 0.0000000000000000e+00  7.9144558401901655e-02 1.7463462253820656e+00 0.0000000000000000e+00 1.7463462253820656e+00 8.9512035233279021e+03 0.0000000000000000e+00 0.0000000000000000e+00 0.0000000000000000e+00 0.0000000000000000e+00  3.2856355491648346e+00 -5.0889090306065879e-02 0.0000000000000000e+00 -5.0889090306071964e-02 8.5873774500290619e+03 0.0000000000000000e+00 0.0000000000000000e+00 0.0000000000000000e+00 0.0000000000000000e+00  -4.9893946734829655e+02 -6.2380512027142458e+02 0.0000000000000000e+00 -6.2380512027142345e+02 -2.8417150144632103e+01 0.0000000000000000e+00 0.0000000000000000e+00 0.0000000000000000e+00 0.0000000000000000e+00  2.4251715632923035e+02 -1.7743023596686109e+02 0.0000000000000000e+00 -1.7743023596685902e+02 2.2514882776553785e+02 0.0000000000000000e+00 0.0000000000000000e+00 0.0000000000000000e+00 0.0000000000000000e+00  2.5974245668882173e-01 2.1003185752279094e-01 0.0000000000000000e+00 2.1003185752279271e-01 8.9519713263206613e+03 0.0000000000000000e+00 0.0000000000000000e+00 0.0000000000000000e+00 0.0000000000000000e+00  2.6588113320802427e+03 1.0655884760460831e+03 0.0000000000000000e+00 1.0655884760460847e+03 9.3412481860580046e+03 0.0000000000000000e+00 0.0000000000000000e+00 0.0000000000000000e+00 0.0000000000000000e+00  1.0415988398113452e+03 1.0882497281679634e+03 0.0000000000000000e+00 1.0882497281679657e+03 7.8490136655510628e+02 0.0000000000000000e+00 0.0000000000000000e+00 0.0000000000000000e+00 0.0000000000000000e+00  4.4995412135797633e+03 5.5617293975522653e+03 0.0000000000000000e+00 5.5617293975522625e+03 6.4085172557817050e+03 0.0000000000000000e+00 0.0000000000000000e+00 0.0000000000000000e+00 0.0000000000000000e+00  4.6947805482846043e+03 4.5849343126045005e+03 0.0000000000000000e+00 4.5849343126044987e+03 1.2980213621416795e+04 0.0000000000000000e+00 0.0000000000000000e+00 0.0000000000000000e+00 0.0000000000000000e+00  4.8835433264564990e+03 -4.6650828040098750e+03 0.0000000000000000e+00 -4.6650828040098722e+03 1.3050553044922644e+04 0.0000000000000000e+00 0.0000000000000000e+00 0.0000000000000000e+00 0.0000000000000000e+00  4.6348428692149791e+03 -5.6024114189188986e+03 0.0000000000000000e+00 -5.6024114189188977e+03 6.5067271947709269e+03 0.0000000000000000e+00 0.0000000000000000e+00 0.0000000000000000e+00 0.0000000000000000e+00  1.0380020032195948e+03 -1.1547558075065815e+03 0.0000000000000000e+00 -1.1547558075065876e+03 6.7483735673941840e+02 0.0000000000000000e+00 0.0000000000000000e+00 0.0000000000000000e+00 0.0000000000000000e+00  2.8374812476943240e-01 -4.9348946206614719e-01 0.0000000000000000e+00 -4.9348946206614713e-01 8.9463357551891113e+03 0.0000000000000000e+00 0.0000000000000000e+00 0.0000000000000000e+00 0.0000000000000000e+00  -1.5084428812585218e-01 -1.4678066621363668e+00 0.0000000000000000e+00 -1.4678066621363577e+00 8.9370267060619626e+03 0.0000000000000000e+00 0.0000000000000000e+00 0.0000000000000000e+00 0.0000000000000000e+00  1.0688906935044864e+00 -1.6699667944216057e+00 0.0000000000000000e+00 -1.6699667944216177e+00 8.9227134234957593e+03 0.0000000000000000e+00 0.0000000000000000e+00 0.0000000000000000e+00 0.0000000000000000e+00  -7.4465131483362224e-01 -1.2364206284602310e+00 0.0000000000000000e+00 -1.2364206284602399e+00 8.8999555082041243e+03 0.0000000000000000e+00 0.0000000000000000e+00 0.0000000000000000e+00 0.0000000000000000e+00  8.5010866017625564e-01 -2.0500751363173197e+00 0.0000000000000000e+00 -2.0500751363173295e+00 8.8690164863610189e+03 0.0000000000000000e+00 0.0000000000000000e+00 0.0000000000000000e+00 0.0000000000000000e+00  1.6909302162595088e+00 -4.7216037719448964e+00 0.0000000000000000e+00 -4.7216037719449151e+00 8.8363950294138594e+03 0.0000000000000000e+00 0.0000000000000000e+00 0.0000000000000000e+00 0.0000000000000000e+00  1.9955455779225087e-01 -3.6492060442075811e+00 0.0000000000000000e+00 -3.6492060442075869e+00 8.7801010059762866e+03 0.0000000000000000e+00 0.0000000000000000e+00 0.0000000000000000e+00 0.0000000000000000e+00  -7.5812549718265865e-01 -4.4479576397183296e+00 0.0000000000000000e+00 -4.4479576397183065e+00 8.7252008925485334e+03 0.0000000000000000e+00 0.0000000000000000e+00 0.0000000000000000e+00 0.0000000000000000e+00  3.2048981076391181e+00 -7.0326843666066905e+00 0.0000000000000000e+00 -7.0326843666066443e+00 8.6574747182416104e+03 0.0000000000000000e+00 0.0000000000000000e+00 0.0000000000000000e+00 0.0000000000000000e+00  1.9192955728448833e+00 -1.0052193968655724e+01 0.0000000000000000e+00 -1.0052193968655693e+01 8.5755191000608575e+03 0.0000000000000000e+00 0.0000000000000000e+00 0.0000000000000000e+00 0.0000000000000000e+00  4.2184976292264684e+00 -1.2057070285214673e+01 0.0000000000000000e+00 -1.2057070285214742e+01 8.4361884623951846e+03 0.0000000000000000e+00 0.0000000000000000e+00 0.0000000000000000e+00 0.0000000000000000e+00  1.8482563851007598e+00 -1.9619687093868375e+01 0.0000000000000000e+00 -1.9619687093868293e+01 8.3422934301973837e+03 0.0000000000000000e+00 0.0000000000000000e+00 0.0000000000000000e+00 0.0000000000000000e+00  2.7675595499517844e+00 -1.3881889745765879e+01 0.0000000000000000e+00 -1.3881889745766038e+01 8.1385208871662699e+03 0.0000000000000000e+00 0.0000000000000000e+00 0.0000000000000000e+00 0.0000000000000000e+00  -1.7511417147907014e+00 -1.4372244978593702e+01 0.0000000000000000e+00 -1.4372244978593724e+01 7.9384120771769130e+03 0.0000000000000000e+00 0.0000000000000000e+00 0.0000000000000000e+00 0.0000000000000000e+00  2.2717210827248550e+01 -1.3434865491603821e+01 0.0000000000000000e+00 -1.3434865491603624e+01 7.6563933304378752e+03 0.0000000000000000e+00 0.0000000000000000e+00 0.0000000000000000e+00 0.0000000000000000e+00  -2.3598431021778403e+01 -1.1797800631073114e+01 0.0000000000000000e+00 -1.1797800631073038e+01 7.2718020953849182e+03 0.0000000000000000e+00 0.0000000000000000e+00 0.0000000000000000e+00 0.0000000000000000e+00  5.9446432415993428e+01 -6.9883662032742677e+01 0.0000000000000000e+00 -6.9883662032741938e+01 6.7263925983463096e+03 0.0000000000000000e+00 0.0000000000000000e+00 0.0000000000000000e+00 0.0000000000000000e+00  -1.1536572119114068e+01 -3.1830563448927670e+01 0.0000000000000000e+00 -3.1830563448928288e+01 6.0272787997739579e+03 0.0000000000000000e+00 0.0000000000000000e+00 0.0000000000000000e+00 0.0000000000000000e+00  -3.9305167542816378e+01 -1.4632421010490791e+02 0.0000000000000000e+00 -1.4632421010490961e+02 4.7784356189138562e+03 0.0000000000000000e+00 0.0000000000000000e+00 0.0000000000000000e+00 0.0000000000000000e+00  9.2962799576288191e+01 -2.9724777563465568e+02 0.0000000000000000e+00 -2.9724777563465511e+02 3.3258827822090152e+03 0.0000000000000000e+00 0.0000000000000000e+00 0.0000000000000000e+00 0.0000000000000000e+00  1.6493729640232920e+02 -9.8073960183423637e+01 0.0000000000000000e+00 -9.8073960183425314e+01 1.0997458068948874e+03 0.0000000000000000e+00 0.0000000000000000e+00 0.0000000000000000e+00 0.0000000000000000e+00  -9.2751305514586413e+00 3.0355397544771601e-01 0.0000000000000000e+00 3.0355397544772300e-01 8.6196601308066183e+03 0.0000000000000000e+00 0.0000000000000000e+00 0.0000000000000000e+00 0.0000000000000000e+00  -4.6037717452475398e+01 -5.3630577263866341e-01 0.0000000000000000e+00 -5.3630577263861368e-01 8.6965271853966024e+03 0.0000000000000000e+00 0.0000000000000000e+00 0.0000000000000000e+00 0.0000000000000000e+00  -1.0252347400403359e+02 2.5897126999252644e+00 0.0000000000000000e+00 2.5897126999252924e+00 8.8124473925153543e+03 0.0000000000000000e+00 0.0000000000000000e+00 0.0000000000000000e+00 0.0000000000000000e+00  -1.6826226940624412e+02 1.6596361288109260e-03 0.0000000000000000e+00 1.6596361288074022e-03 8.9416763969447147e+03 0.0000000000000000e+00 0.0000000000000000e+00 0.0000000000000000e+00 0.0000000000000000e+00  -2.2692524829264522e+02 3.6511375013696066e+00 0.0000000000000000e+00 3.6511375013696079e+00 9.0981411331968084e+03 0.0000000000000000e+00 0.0000000000000000e+00 0.0000000000000000e+00 0.0000000000000000e+00  -2.8828957575857987e+02 -1.1724700415751989e-01 0.0000000000000000e+00 -1.1724700415754591e-01 9.2520150308266620e+03 0.0000000000000000e+00 0.0000000000000000e+00 0.0000000000000000e+00 0.0000000000000000e+00  -3.4671662254969289e+02 1.8232907938663231e-01 0.0000000000000000e+00 1.8232907938663706e-01 9.3855804300184300e+03 0.0000000000000000e+00 0.0000000000000000e+00 0.0000000000000000e+00 0.0000000000000000e+00  -3.7781203906265876e+02 -7.9372436055375639e-01 0.0000000000000000e+00 -7.9372436055374596e-01 9.5293896127731787e+03 0.0000000000000000e+00 0.0000000000000000e+00 0.0000000000000000e+00 0.0000000000000000e+00  -4.0776911588382393e+02 4.8684678928043201e-01 0.0000000000000000e+00 4.8684678928043762e-01 9.6224402300158945e+03 0.0000000000000000e+00 0.0000000000000000e+00 0.0000000000000000e+00 0.0000000000000000e+00  -4.2634375638224788e+02 -1.1505355428967801e+00 0.0000000000000000e+00 -1.1505355428967801e+00 9.7141244038041932e+03 0.0000000000000000e+00 0.0000000000000000e+00 0.0000000000000000e+00 0.0000000000000000e+00  -4.3075789137225632e+02 -7.7392994307696350e-01 0.0000000000000000e+00 -7.7392994307696628e-01 9.7833213308952527e+03 0.0000000000000000e+00 0.0000000000000000e+00 0.0000000000000000e+00 0.0000000000000000e+00  -4.2747187823865727e+02 -1.8981831536283735e+00 0.0000000000000000e+00 -1.8981831536283758e+00 9.8316748772915053e+03 0.0000000000000000e+00 0.0000000000000000e+00 0.0000000000000000e+00 0.0000000000000000e+00  -4.1806652455521805e+02 -1.1416216674209985e+00 0.0000000000000000e+00 -1.1416216674209978e+00 9.8659848306502099e+03 0.0000000000000000e+00 0.0000000000000000e+00 0.0000000000000000e+00 0.0000000000000000e+00  -4.0542937809011778e+02 -6.0366630942139032e-01 0.0000000000000000e+00 -6.0366630942139288e-01 9.8878884483093971e+03 0.0000000000000000e+00 0.0000000000000000e+00 0.0000000000000000e+00 0.0000000000000000e+00  -3.8886967657583733e+02 -9.7882623878297659e-01 0.0000000000000000e+00 -9.7882623878296038e-01 9.8974740096966980e+03 0.0000000000000000e+00 0.0000000000000000e+00 0.0000000000000000e+00 0.0000000000000000e+00  -3.7149343609496896e+02 -1.2205811437956766e+00 0.0000000000000000e+00 -1.2205811437956742e+00 9.8987949087101570e+03 0.0000000000000000e+00 0.0000000000000000e+00 0.0000000000000000e+00 0.0000000000000000e+00  -3.5481632697286256e+02 -5.8952072042712822e-01 0.0000000000000000e+00 -5.8952072042711912e-01 9.8918591335990350e+03 0.0000000000000000e+00 0.0000000000000000e+00 0.0000000000000000e+00 0.0000000000000000e+00  -3.3810898954105306e+02 -8.0535952074990114e-01 0.0000000000000000e+00 -8.0535952074988482e-01 9.8801626718422140e+03 0.0000000000000000e+00 0.0000000000000000e+00 0.0000000000000000e+00 0.0000000000000000e+00  -3.2289491097816187e+02 -3.8598200284716366e-01 0.0000000000000000e+00 -3.8598200284718248e-01 9.8633497298173188e+03 0.0000000000000000e+00 0.0000000000000000e+00 0.0000000000000000e+00 0.0000000000000000e+00  -3.0840852672817010e+02 -3.6080515506741118e-01 0.0000000000000000e+00 -3.6080515506741756e-01 9.8417581056716463e+03 0.0000000000000000e+00 0.0000000000000000e+00 0.0000000000000000e+00 0.0000000000000000e+00  -2.9552359136124551e+02 -1.8419426833838887e-01 0.0000000000000000e+00 -1.8419426833840027e-01 9.8169069902228002e+03 0.0000000000000000e+00 0.0000000000000000e+00 0.0000000000000000e+00 0.0000000000000000e+00  -2.8283112497302756e+02 -9.0377744803541174e-02 0.0000000000000000e+00 -9.0377744803529003e-02 9.7890191984203630e+03 0.0000000000000000e+00 0.0000000000000000e+00 0.0000000000000000e+00 0.0000000000000000e+00  -2.7165248987422171e+02 -7.5380940538771590e-02 0.0000000000000000e+00 -7.5380940538754757e-02 9.7568318140365263e+03 0.0000000000000000e+00 0.0000000000000000e+00 0.0000000000000000e+00 0.0000000000000000e+00  -2.5943573809084012e+02 -4.5142796632035055e-02 0.0000000000000000e+00 -4.5142796632051264e-02 9.7214494665239272e+03 0.0000000000000000e+00 0.0000000000000000e+00 0.0000000000000000e+00 0.0000000000000000e+00  -2.4820392616614660e+02 -1.3520316726947090e-01 0.0000000000000000e+00 -1.3520316726948711e-01 9.6827461819673790e+03 0.0000000000000000e+00 0.0000000000000000e+00 0.0000000000000000e+00 0.0000000000000000e+00  -2.3523530933846610e+02 2.2436959313184529e-01 0.0000000000000000e+00 2.2436959313185673e-01 9.6402999061176979e+03 0.0000000000000000e+00 0.0000000000000000e+00 0.0000000000000000e+00 0.0000000000000000e+00  -2.2144315651969600e+02 -1.2228524706519059e-01 0.0000000000000000e+00 -1.2228524706519289e-01 9.5927309451478213e+03 0.0000000000000000e+00 0.0000000000000000e+00 0.0000000000000000e+00 0.0000000000000000e+00  -2.0652543069099789e+02 2.9752063665694944e-01 0.0000000000000000e+00 2.9752063665695799e-01 9.5425817611037419e+03 0.0000000000000000e+00 0.0000000000000000e+00 0.0000000000000000e+00 0.0000000000000000e+00  -1.8938940167957156e+02 2.9190879013125387e-01 0.0000000000000000e+00 2.9190879013124266e-01 9.4898002828821282e+03 0.0000000000000000e+00 0.0000000000000000e+00 0.0000000000000000e+00 0.0000000000000000e+00  -1.7139781207677373e+02 1.2852131348033385e-01 0.0000000000000000e+00 1.2852131348033100e-01 9.4309511001545652e+03 0.0000000000000000e+00 0.0000000000000000e+00 0.0000000000000000e+00 0.0000000000000000e+00  -1.5043286693790321e+02 -2.4103373055701399e-01 0.0000000000000000e+00 -2.4103373055701482e-01 9.3729221884872750e+03 0.0000000000000000e+00 0.0000000000000000e+00 0.0000000000000000e+00 0.0000000000000000e+00  -1.3009188241892625e+02 -2.3288938567495179e-01 0.0000000000000000e+00 -2.3288938567496872e-01 9.3098232184470089e+03 0.0000000000000000e+00 0.0000000000000000e+00 0.0000000000000000e+00 0.0000000000000000e+00  -1.0642593304373624e+02 6.5765551921405999e-03 0.0000000000000000e+00 6.5765551920864080e-03 9.2487714861461664e+03 0.0000000000000000e+00 0.0000000000000000e+00 0.0000000000000000e+00 0.0000000000000000e+00  -8.4029106563336043e+01 -3.9685685357130474e-01 0.0000000000000000e+00 -3.9685685357131295e-01 9.1907909085362317e+03 0.0000000000000000e+00 0.0000000000000000e+00 0.0000000000000000e+00 0.0000000000000000e+00  -6.1598805033686581e+01 -3.4900994015445247e-02 0.0000000000000000e+00 -3.4900994015462518e-02 9.1338667292033060e+03 0.0000000000000000e+00 0.0000000000000000e+00 0.0000000000000000e+00 0.0000000000000000e+00  -4.1631741473992442e+01 -4.5090659970360124e-02 0.0000000000000000e+00 -4.5090659970353671e-02 9.0793479414088051e+03 0.0000000000000000e+00 0.0000000000000000e+00 0.0000000000000000e+00 0.0000000000000000e+00  -2.4372641106923034e+01 -1.0013628582886669e-01 0.0000000000000000e+00 -1.0013628582889687e-01 9.0333256370798263e+03 0.0000000000000000e+00 0.0000000000000000e+00 0.0000000000000000e+00 0.0000000000000000e+00  -1.1041482711151639e+01 2.2528099383244607e-01 0.0000000000000000e+00 2.2528099383244501e-01 8.9948532417891074e+03 0.0000000000000000e+00 0.0000000000000000e+00 0.0000000000000000e+00 0.0000000000000000e+00  -1.5254493280976604e+00 4.1239939097600431e-01 0.0000000000000000e+00 4.1239939097600797e-01 8.9672202150574267e+03 0.0000000000000000e+00 0.0000000000000000e+00 0.0000000000000000e+00 0.0000000000000000e+00  -1.2305273851194224e+02 -2.3832536010544425e+02 0.0000000000000000e+00 -2.3832536010544479e+02 5.4955412285575983e+02 0.0000000000000000e+00 0.0000000000000000e+00 0.0000000000000000e+00 0.0000000000000000e+00  3.0435774251730942e+02 3.0569146762262460e+02 0.0000000000000000e+00 3.0569146762262454e+02 3.5875777127573342e+03 0.0000000000000000e+00 0.0000000000000000e+00 0.0000000000000000e+00 0.0000000000000000e+00  -2.8001287175332362e+02 -1.0872353084242648e+02 0.0000000000000000e+00 -1.0872353084242623e+02 4.6234317654684137e+03 0.0000000000000000e+00 0.0000000000000000e+00 0.0000000000000000e+00 0.0000000000000000e+00  2.5669151896199071e+02 1.7982516759276879e+02 0.0000000000000000e+00 1.7982516759276848e+02 6.2841828529870709e+03 0.0000000000000000e+00 0.0000000000000000e+00 0.0000000000000000e+00 0.0000000000000000e+00  -1.1652970356268760e+02 -7.8723557577898191e+01 0.0000000000000000e+00 -7.8723557577898319e+01 6.7101857852289513e+03 0.0000000000000000e+00 0.0000000000000000e+00 0.0000000000000000e+00 0.0000000000000000e+00  9.1145215873870725e+01 7.3520547463401044e+01 0.0000000000000000e+00 7.3520547463400888e+01 7.3970486141366910e+03 0.0000000000000000e+00 0.0000000000000000e+00 0.0000000000000000e+00 0.0000000000000000e+00  -2.9259094610086589e+01 3.8798863747891388e+00 0.0000000000000000e+00 3.8798863747892711e+00 7.7236935052853569e+03 0.0000000000000000e+00 0.0000000000000000e+00 0.0000000000000000e+00 0.0000000000000000e+00  2.0356814153899045e+01 2.7869044048522024e+01 0.0000000000000000e+00 2.7869044048522266e+01 7.9693507688407899e+03 0.0000000000000000e+00 0.0000000000000000e+00 0.0000000000000000e+00 0.0000000000000000e+00  4.1273925536896714e+00 1.4784475750760423e+01 0.0000000000000000e+00 1.4784475750760349e+01 8.2204083653656908e+03 0.0000000000000000e+00 0.0000000000000000e+00 0.0000000000000000e+00 0.0000000000000000e+00  6.8252597689555445e+00 8.9188498753868348e+00 0.0000000000000000e+00 8.9188498753868544e+00 8.3497535986730745e+03 0.0000000000000000e+00 0.0000000000000000e+00 0.0000000000000000e+00 0.0000000000000000e+00  -3.3856649310524984e+00 1.6327737772107549e+00 0.0000000000000000e+00 1.6327737772106974e+00 8.4731117386443002e+03 0.0000000000000000e+00 0.0000000000000000e+00 0.0000000000000000e+00 0.0000000000000000e+00  6.5738117358131687e+00 5.3308004358881664e+00 0.0000000000000000e+00 5.3308004358881531e+00 8.5263067412462278e+03 0.0000000000000000e+00 0.0000000000000000e+00 0.0000000000000000e+00 0.0000000000000000e+00  -2.0421593140800565e+00 1.2160354020477204e+00 0.0000000000000000e+00 1.2160354020477333e+00 8.5826476140723462e+03 0.0000000000000000e+00 0.0000000000000000e+00 0.0000000000000000e+00 0.0000000000000000e+00  1.3158082853595902e+03 1.3865330726166530e+03 0.0000000000000000e+00 1.3865330726166565e+03 3.4050291438085515e+02 0.0000000000000000e+00 0.0000000000000000e+00 0.0000000000000000e+00 0.0000000000000000e+00  5.9851768416274117e+03 6.0680569267962755e+03 0.0000000000000000e+00 6.0680569267962674e+03 1.0128256952378246e+04 0.0000000000000000e+00 0.0000000000000000e+00 0.0000000000000000e+00 0.0000000000000000e+00  2.4632984926512372e+03 2.6177079527948999e+03 0.0000000000000000e+00 2.6177079527949018e+03 1.3532191484488934e+04 0.0000000000000000e+00 0.0000000000000000e+00 0.0000000000000000e+00 0.0000000000000000e+00  2.8676400479858971e+03 -2.4658320068571970e+03 0.0000000000000000e+00 -2.4658320068571975e+03 1.3919895271485224e+04 0.0000000000000000e+00 0.0000000000000000e+00 0.0000000000000000e+00 0.0000000000000000e+00  3.6929503966184429e+03 -5.6313723569386684e+03 0.0000000000000000e+00 -5.6313723569386684e+03 8.9669431265157327e+03 0.0000000000000000e+00 0.0000000000000000e+00 0.0000000000000000e+00 0.0000000000000000e+00  2.2714401109404112e+03 -1.8184203972592727e+03 0.0000000000000000e+00 -1.8184203972592736e+03 1.0958407894801985e+03 0.0000000000000000e+00 0.0000000000000000e+00 0.0000000000000000e+00 0.0000000000000000e+00  1.1137479177283818e-01 -6.7088887246387729e-01 0.0000000000000000e+00 -6.7088887246387963e-01 8.9498271602901987e+03 0.0000000000000000e+00 0.000000000000