<?xml version="1.0"?>
<VTKFile type="UnstructuredGrid"  version="0.1"  >
<UnstructuredGrid>
<Piece  NumberOfPoints="2165" NumberOfCells="4161">
<Points>
<DataArray  type="Float64"  NumberOfComponents="3"  format="ascii">-3.598637933768527e-16 0.3500000000000001 0  0.05 0.4 0  -3.537405593811159e-16 0.45 0  0 1 0  1 1 0  0.9999999999999997 0.65 0  0.9999999999999997 0.5499999999999999 0  1 0 0  0 0 0  0.0191341716182545 0.3538060233744357 0  0.03535533905932737 0.3646446609406727 0  0.04619397662556433 0.3808658283817455 0  0.04619397662556434 0.4191341716182545 0  0.03535533905932738 0.4353553390593274 0  0.01913417161825449 0.4461939766255644 0  0 0.975 0  0 0.95 0  0 0.9249999999999999 0  0 0.8999999999999998 0  0 0.8749999999999998 0  0 0.8499999999999998 0  0 0.8249999999999997 0  0 0.7999999999999996 0  0 0.7749999999999996 0  0 0.7499999999999996 0  0 0.7249999999999996 0  0 0.6999999999999997 0  0 0.6749999999999998 0  0 0.6499999999999999 0  0 0.6249999999999999 0  0 0.6 0  0 0.575 0  0 0.5499999999999998 0  0 0.5249999999999999 0  0 0.4999999999999998 0  0 0.4749999999999999 0  0.975 1 0  0.95 1 0  0.925 1 0  0.9 1 0  0.875 1 0  0.85 1 0  0.825 1 0  0.8 1 0  0.775 1 0  0.75 1 0  0.725 1 0  0.7 1 0  0.675 1 0  0.65 1 0  0.625 1 0  0.6 1 0  0.575 1 0  0.55 1 0  0.525 1 0  0.5 1 0  0.475 1 0  0.45 1 0  0.425 1 0  0.4 1 0  0.375 1 0  0.35 1 0  0.325 1 0  0.3 1 0  0.275 1 0  0.25 1 0  0.225 1 0  0.2 1 0  0.175 1 0  0.15 1 0  0.125 1 0  0.09999999999999998 1 0  0.07499999999999996 1 0  0.05000000000000004 1 0  0.02500000000000002 1 0  1 0.675 0  1 0.7000000000000001 0  1 0.7250000000000001 0  1 0.7500000000000001 0  1 0.7750000000000001 0  1 0.8000000000000002 0  1 0.8250000000000002 0  1 0.8500000000000002 0  1 0.8750000000000003 0  1 0.9000000000000001 0  1 0.9250000000000002 0  1 0.9500000000000001 0  1 0.9750000000000001 0  0.9783058130441221 0.6450484433951209 0  0.9609084258765985 0.6311744900929367 0  0.9512536043909088 0.6111260466978157 0  0.9512536043909088 0.5888739533021843 0  0.9609084258765985 0.5688255099070633 0  0.9783058130441221 0.554951556604879 0  1 0.02500000000000002 0  1 0.05000000000000004 0  1 0.07500000000000008 0  1 0.1000000000000001 0  1 0.1250000000000001 0  1 0.1500000000000002 0  1 0.1750000000000002 0  1 0.2000000000000003 0  1 0.2250000000000003 0  1 0.2500000000000004 0  1 0.2750000000000004 0  1 0.3000000000000003 0  1 0.3250000000000002 0  1 0.3500000000000001 0  1 0.3750000000000001 0  1 0.3999999999999999 0  1 0.425 0  1 0.45 0  1 0.475 0  1 0.5000000000000001 0  1 0.5249999999999999 0  0.025 0 0  0.05 0 0  0.075 0 0  0.1 0 0  0.125 0 0  0.15 0 0  0.175 0 0  0.2 0 0  0.225 0 0  0.25 0 0  0.275 0 0  0.3 0 0  0.325 0 0  0.35 0 0  0.375 0 0  0.4 0 0  0.425 0 0  0.45 0 0  0.475 0 0  0.5 0 0  0.525 0 0  0.55 0 0  0.575 0 0  0.6 0 0  0.625 0 0  0.65 0 0  0.675 0 0  0.7 0 0  0.725 0 0  0.75 0 0  0.775 0 0  0.8 0 0  0.825 0 0  0.85 0 0  0.875 0 0  0.9 0 0  0.925 0 0  0.95 0 0  0.975 0 0  0 0.3250000000000001 0  0 0.3 0  0 0.275 0  0 0.2499999999999999 0  0 0.2249999999999999 0  0 0.1999999999999998 0  0 0.1749999999999998 0  0 0.1499999999999998 0  0 0.1249999999999998 0  0 0.09999999999999987 0  0 0.07499999999999984 0  0 0.04999999999999993 0  0 0.02500000000000002 0  0.06453325334544308 0.4134708543086404 0  0.5146839915088474 0.02134387884913819 0  0.4875871001393628 0.9784117024331356 0  0.9386300160094723 0.5701776715936071 0  0.0216506350946109 0.6124999999999999 0  0.9764205887290853 0.3596067946540696 0  0.3876261045932067 0.02156097490657183 0  0.6125 0.978349364905389 0  0.3612127461797463 0.9792371404802113 0  0.6374786650398092 0.02079982608537345 0  0.9387185538472446 0.6295115890709873 0  0.05482260092545593 0.3633687091864355 0  0.02445354803948679 0.7343198207875321 0  0.2624888813627476 0.02091671348578122 0  0.7375212991274043 0.9794996488945376 0  0.9793010831723812 0.2648509348664836 0  0.2625026480689301 0.9795699185263282 0  0.7362840788105066 0.02225211062275217 0  0.02159327910297104 0.2128861809896528 0  0.9786837570973538 0.7867241244631172 0  0.02419728000065929 0.8365600234152764 0  0.980043283615984 0.1624097203408714 0  0.1645857434226354 0.0205513501962844 0  0.8339481359352011 0.9784483546369231 0  0.1637584777222821 0.9774556328160621 0  0.8374916614314967 0.02165097219510076 0  0.02171915379676059 0.5370700005916152 0  0.9795335762511281 0.4365726939225819 0  0.02319480745007968 0.1370197632171214 0  0.9774462976085161 0.8592616917551974 0  0.9786941241076723 0.7122511101067891 0  0.9797883857882621 0.08781864217752949 0  0.01966314788989931 0.9125801876811624 0  0.02051815350151098 0.2882126194470174 0  0.09063226699593246 0.0214884092697174 0  0.9124408843562394 0.9818463395009377 0  0.03872465516591678 0.452731089005145 0  0.08969424365256845 0.978412979507602 0  0.9124999999999999 0.02165063509461096 0  0.02158104789437187 0.6619299176372371 0  0.9796602354625652 0.4859004208706154 0  0.3127517983598529 0.02417963694738812 0  0.4375629605000894 0.02158039900821679 0  0.5643674594196073 0.01968996000301126 0  0.5368361594956101 0.9790428840407062 0  0.4376176251051295 0.9783667484208922 0  0.6874072695660477 0.978435143102373 0  0.310604317388614 0.979558305560928 0  0.2125577044121564 0.02066685543111635 0  0.6875 0.0216506350946109 0  0.02224009810917643 0.08811420611559456 0  0.790876428529276 0.978633065284896 0  0.2125 0.978349364905389 0  0.9788033534786624 0.2116925349935155 0  0.9769441169344462 0.3150381335760689 0  0.9804648376981185 0.9123186437266726 0  0.7874999988222203 0.02127957051165741 0  0.02109233852270731 0.786866823287435 0  0.9483709287873718 0.5504073206521916 0  0.9259842326464427 0.5519702047534598 0  0.9163209045278007 0.5719292915927929 0  0.9035374059862284 0.5537291796040291 0  0.8938951918780048 0.5738949757882954 0  0.8807940177559743 0.5546750869516996 0  0.8712661812741653 0.5757142549099102 0  0.8580668865514332 0.5563902430113601 0  0.848508161986991 0.5779004013072002 0  0.8354274200119249 0.5591176379057713 0  0.8256349826905482 0.5800610629400762 0  0.8124123591208572 0.5604454546391737 0  0.802603410938817 0.5819653950592523 0  0.7892876429890218 0.562234610648543 0  0.7794355871850538 0.583896242519796 0  0.7661469824381839 0.5648243426306435 0  0.7562387679604726 0.5860005456930413 0  0.7429651600512166 0.5669367633461588 0  0.7330846968880171 0.5879590907760761 0  0.7198577999459205 0.5688986880627463 0  0.7297050500533544 0.5479561801187277 0  0.7066243396993471 0.5499068108517552 0  0.6968285086900206 0.5707989520567972 0  0.6836266810714333 0.5519088927359967 0  0.6738604685766018 0.5727655091567184 0  0.6607284761452521 0.5538781923028128 0  0.6697149783704412 0.5321140554135094 0  0.6473436039782401 0.5350050604671006 0  0.6378867365666199 0.5557804038095817 0  0.6246915360243652 0.5362124690568238 0  0.6151175309583405 0.5575933164645619 0  0.6019784180102355 0.5380659376543677 0  0.5924099113505394 0.5593739656462906 0  0.5794110962027638 0.541110021814312 0  0.5697985396917309 0.5614600003719357 0  0.5568468707330213 0.5433212932327446 0  0.5472634011377896 0.5635652141280936 0  0.5343236363495072 0.5451361960661517 0  0.5247877773262166 0.565493591892781 0  0.5118927934227436 0.5470665328397559 0  0.5023398230005425 0.5674381114577953 0  0.5213991904098014 0.5267047787870831 0  0.4990390504096661 0.528649139287786 0  0.6328887517229864 0.5131744321062524 0  0.5085133205790763 0.5083322037773296 0  0.4861972978925295 0.5102540920324363 0  0.4956914791804768 0.4899605513008993 0  0.4734139980312694 0.4918582759645476 0  0.4826986629698439 0.4717164019717278 0  0.460570567761715 0.473509155475794 0  0.4699344541058981 0.4533140529328089 0  0.4477087341565655 0.4550973130597117 0  0.4381733274019614 0.4752901381741884 0  0.4570222843287571 0.4349938694701042 0  0.4348599018247688 0.436728068420533 0  0.5604623134382263 0.581815997002507 0  0.4443612964408632 0.416499823314016 0  0.422056299386984 0.4183730429856528 0  0.4688721528228815 0.4135009841763965 0  0.4315584877924544 0.398120546824229 0  0.4092288692044618 0.3999974286008185 0  0.7463210599443056 0.6070829843371945 0  0.4187270626688335 0.3797365044773463 0  0.3964262302393312 0.3817184136470017 0  0.3869780036193907 0.4018498778543814 0  0.3742423843122406 0.3837055716372927 0  0.3648701490102072 0.4037049758807119 0  0.3518115403926748 0.3858985036587403 0  0.3426146276710081 0.4056777495658291 0  0.3614541441355358 0.3656396497906528 0  0.339026673715919 0.3678724679736439 0  0.3485566370135618 0.3476560889674916 0  0.3264681821394378 0.3496422822523857 0  0.8219942777991693 0.5379143061758643 0  0.3358297439968608 0.3295117748868035 0  0.3137050884585635 0.3314921667582986 0  0.3229980644152205 0.3113561769498422 0  0.3007986024336577 0.3133063832007756 0  0.3441851868720173 0.3085211458266175 0  0.3101966551534752 0.2930273704914169 0  0.287793053707373 0.2950088132226583 0  0.2914417217227097 0.3337427541189321 0  0.2975120686695638 0.2743682539701985 0  0.274864585256681 0.2764253296978281 0  0.816026571618698 0.6006851919544112 0  0.2844672854128698 0.2557011565880619 0  0.2617267434509338 0.2577713002235077 0  0.3072711221189672 0.2536790056475094 0  0.2521588568690318 0.2785072139143895 0  0.2389277409161178 0.2598761196336353 0  0.248448076747058 0.2389478879785275 0  0.5053822153261678 0.4716915524631118 0  0.229548765875869 0.2806542761043101 0  0.2254561407802683 0.2411354049374563 0  0.2350621310805047 0.2199181955146378 0  0.2117782450160163 0.222165061041625 0  0.2214249125635323 0.2008136877065064 0  0.2448758256083499 0.1985732693215908 0  0.197966291680556 0.2031211006951591 0  0.1883147493074436 0.2245564097761413 0  0.8910637266939049 0.5322898364209732 0  0.1748136087708587 0.2051141748992724 0  0.1842088801696792 0.1837087814679069 0  0.1656574100807746 0.2269812054689968 0  0.3554582346764377 0.4236292557112198 0  0.3328979939923831 0.425459320867588 0  0.3460368767112177 0.4435398346083328 0  0.3238464003
[...]
<PointData  Tensors="$\sigma$"> 
<DataArray  type="Float64"  Name="$\sigma$"  NumberOfComponents="9" format="ascii">-3.9021661110575201e+02 -5.6343457004059030e+02 0.0000000000000000e+00 -5.6343457004059087e+02 -1.1977348097578467e+03 0.0000000000000000e+00 0.0000000000000000e+00 0.0000000000000000e+00 0.0000000000000000e+00  2.3282078116599650e+03 -4.3252907841113197e+00 0.0000000000000000e+00 -4.3252907841130552e+00 1.4353759765881136e+04 0.0000000000000000e+00 0.0000000000000000e+00 0.0000000000000000e+00 0.0000000000000000e+00  -2.8536274638663781e+02 6.7972633662269664e+02 0.0000000000000000e+00 6.7972633662269595e+02 -1.2593973813986404e+03 0.0000000000000000e+00 0.0000000000000000e+00 0.0000000000000000e+00 0.0000000000000000e+00  9.5135787228986426e-02 1.3953085184477838e+00 0.0000000000000000e+00 1.3953085184477847e+00 8.0983568217335569e+03 0.0000000000000000e+00 0.0000000000000000e+00 0.0000000000000000e+00 0.0000000000000000e+00  2.7047050503662788e+00 3.6102496683954793e-02 0.0000000000000000e+00 3.6102496683956264e-02 7.8048578720832902e+03 0.0000000000000000e+00 0.0000000000000000e+00 0.0000000000000000e+00 0.0000000000000000e+00  -4.5208488296400992e+02 -5.6662683398336173e+02 0.0000000000000000e+00 -5.6662683398335980e+02 -8.6211342664712177e+01 0.0000000000000000e+00 0.0000000000000000e+00 0.0000000000000000e+00 0.0000000000000000e+00  2.4639915808648175e+02 -1.8871230461315520e+02 0.0000000000000000e+00 -1.8871230461315457e+02 2.5104865090106554e+02 0.0000000000000000e+00 0.0000000000000000e+00 0.0000000000000000e+00 0.0000000000000000e+00  2.2857247495872349e-01 1.7618089855385413e-01 0.0000000000000000e+00 1.7618089855385896e-01 8.1033108824066430e+03 0.0000000000000000e+00 0.0000000000000000e+00 0.0000000000000000e+00 0.0000000000000000e+00  2.4032249354153305e+03 9.6555403499458646e+02 0.0000000000000000e+00 9.6555403499458748e+02 8.4726766326207508e+03 0.0000000000000000e+00 0.0000000000000000e+00 0.0000000000000000e+00 0.0000000000000000e+00  9.8191257227992435e+02 9.3988727667396029e+02 0.0000000000000000e+00 9.3988727667396358e+02 7.7414050442707673e+02 0.0000000000000000e+00 0.0000000000000000e+00 0.0000000000000000e+00 0.0000000000000000e+00  4.1626125264792163e+03 5.0294924808439682e+03 0.0000000000000000e+00 5.0294924808439673e+03 5.7151041903808336e+03 0.0000000000000000e+00 0.0000000000000000e+00 0.0000000000000000e+00 0.0000000000000000e+00  4.3283906081963914e+03 4.7236838907572883e+03 0.0000000000000000e+00 4.7236838907572865e+03 1.2643184684813148e+04 0.0000000000000000e+00 0.0000000000000000e+00 0.0000000000000000e+00 0.0000000000000000e+00  4.4235999960504696e+03 -4.6945632749586193e+03 0.0000000000000000e+00 -4.6945632749586166e+03 1.2755409997019175e+04 0.0000000000000000e+00 0.0000000000000000e+00 0.0000000000000000e+00 0.0000000000000000e+00  4.2276274838085428e+03 -4.9910996175505179e+03 0.0000000000000000e+00 -4.9910996175505197e+03 5.9617559939494204e+03 0.0000000000000000e+00 0.0000000000000000e+00 0.0000000000000000e+00 0.0000000000000000e+00  9.3966213554516639e+02 -1.0431767532428482e+03 0.0000000000000000e+00 -1.0431767532428514e+03 6.5993808279753148e+02 0.0000000000000000e+00 0.0000000000000000e+00 0.0000000000000000e+00 0.0000000000000000e+00  2.1985952146203575e-01 -3.6465405723448163e-01 0.0000000000000000e+00 -3.6465405723448174e-01 8.0944257760862911e+03 0.0000000000000000e+00 0.0000000000000000e+00 0.0000000000000000e+00 0.0000000000000000e+00  -1.1704453209630689e-01 -1.1787035512363917e+00 0.0000000000000000e+00 -1.1787035512363799e+00 8.0867147434150129e+03 0.0000000000000000e+00 0.0000000000000000e+00 0.0000000000000000e+00 0.0000000000000000e+00  8.9564185842335020e-01 -1.3887934465378289e+00 0.0000000000000000e+00 -1.3887934465378353e+00 8.0747900807497854e+03 0.0000000000000000e+00 0.0000000000000000e+00 0.0000000000000000e+00 0.0000000000000000e+00  -6.2251031655133637e-01 -9.8085476918748360e-01 0.0000000000000000e+00 -9.8085476918748715e-01 8.0559960410169469e+03 0.0000000000000000e+00 0.0000000000000000e+00 0.0000000000000000e+00 0.0000000000000000e+00  6.8933801669001382e-01 -1.6704897620664043e+00 0.0000000000000000e+00 -1.6704897620664119e+00 8.0302291185101012e+03 0.0000000000000000e+00 0.0000000000000000e+00 0.0000000000000000e+00 0.0000000000000000e+00  1.4790100395341141e+00 -3.8759671934559128e+00 0.0000000000000000e+00 -3.8759671934559314e+00 8.0031623550419481e+03 0.0000000000000000e+00 0.0000000000000000e+00 0.0000000000000000e+00 0.0000000000000000e+00  1.1553043400829019e-01 -2.9997801685486127e+00 0.0000000000000000e+00 -2.9997801685486301e+00 7.9561902205935448e+03 0.0000000000000000e+00 0.0000000000000000e+00 0.0000000000000000e+00 0.0000000000000000e+00  -6.1942232903655681e-01 -3.7086233108241395e+00 0.0000000000000000e+00 -3.7086233108241160e+00 7.9104004468307894e+03 0.0000000000000000e+00 0.0000000000000000e+00 0.0000000000000000e+00 0.0000000000000000e+00  2.6815370079410115e+00 -5.8762922754359801e+00 0.0000000000000000e+00 -5.8762922754359828e+00 7.8537378473228464e+03 0.0000000000000000e+00 0.0000000000000000e+00 0.0000000000000000e+00 0.0000000000000000e+00  1.6570006678333427e+00 -8.3502586495037114e+00 0.0000000000000000e+00 -8.3502586495036990e+00 7.7845473154921037e+03 0.0000000000000000e+00 0.0000000000000000e+00 0.0000000000000000e+00 0.0000000000000000e+00  3.1641153585050308e+00 -1.0361396559218688e+01 0.0000000000000000e+00 -1.0361396559218704e+01 7.6669734520247312e+03 0.0000000000000000e+00 0.0000000000000000e+00 0.0000000000000000e+00 0.0000000000000000e+00  1.4841066300782066e+00 -1.6752203919112851e+01 0.0000000000000000e+00 -1.6752203919112805e+01 7.5870059702853177e+03 0.0000000000000000e+00 0.0000000000000000e+00 0.0000000000000000e+00 0.0000000000000000e+00  2.0593475497177796e+00 -1.2320816961383692e+01 0.0000000000000000e+00 -1.2320816961383873e+01 7.4122966056643600e+03 0.0000000000000000e+00 0.0000000000000000e+00 0.0000000000000000e+00 0.0000000000000000e+00  -1.1046294821817531e+00 -1.3834305392145675e+01 0.0000000000000000e+00 -1.3834305392145691e+01 7.2402223029018396e+03 0.0000000000000000e+00 0.0000000000000000e+00 0.0000000000000000e+00 0.0000000000000000e+00  1.8790502345131294e+01 -1.2478565216768484e+01 0.0000000000000000e+00 -1.2478565216768390e+01 6.9906409754520382e+03 0.0000000000000000e+00 0.0000000000000000e+00 0.0000000000000000e+00 0.0000000000000000e+00  -1.9699406532538511e+01 -1.4409528407113852e+01 0.0000000000000000e+00 -1.4409528407113582e+01 6.6542047142923539e+03 0.0000000000000000e+00 0.0000000000000000e+00 0.0000000000000000e+00 0.0000000000000000e+00  5.2405226433449691e+01 -6.8451344926951592e+01 0.0000000000000000e+00 -6.8451344926950952e+01 6.1608879862722179e+03 0.0000000000000000e+00 0.0000000000000000e+00 0.0000000000000000e+00 0.0000000000000000e+00  -1.9786030410326351e+01 -3.1250181025026858e+01 0.0000000000000000e+00 -3.1250181025027530e+01 5.5136022222587117e+03 0.0000000000000000e+00 0.0000000000000000e+00 0.0000000000000000e+00 0.0000000000000000e+00  2.2153878210586053e+00 -1.6436470875392305e+02 0.0000000000000000e+00 -1.6436470875392408e+02 4.4015975256332458e+03 0.0000000000000000e+00 0.0000000000000000e+00 0.0000000000000000e+00 0.0000000000000000e+00  2.5347389462891197e+01 -2.4098314386691834e+02 0.0000000000000000e+00 -2.4098314386691683e+02 3.0012978703999815e+03 0.0000000000000000e+00 0.0000000000000000e+00 0.0000000000000000e+00 0.0000000000000000e+00  1.8474809159066874e+02 -1.4051612391623513e+02 0.0000000000000000e+00 -1.4051612391623587e+02 9.8541974363389170e+02 0.0000000000000000e+00 0.0000000000000000e+00 0.0000000000000000e+00 0.0000000000000000e+00  -7.8312536301691740e+00 3.6806846953848699e-01 0.0000000000000000e+00 3.6806846953847427e-01 7.8294039328040981e+03 0.0000000000000000e+00 0.0000000000000000e+00 0.0000000000000000e+00 0.0000000000000000e+00  -3.8946736613092128e+01 -2.5726671603166429e-01 0.0000000000000000e+00 -2.5726671603159573e-01 7.8920381811202378e+03 0.0000000000000000e+00 0.0000000000000000e+00 0.0000000000000000e+00 0.0000000000000000e+00  -8.6504833459202345e+01 2.3058527243807929e+00 0.0000000000000000e+00 2.3058527243808058e+00 7.9871465501691337e+03 0.0000000000000000e+00 0.0000000000000000e+00 0.0000000000000000e+00 0.0000000000000000e+00  -1.4167402985134154e+02 8.6522789733761429e-02 0.0000000000000000e+00 8.6522789733754518e-02 8.0938871978169573e+03 0.0000000000000000e+00 0.0000000000000000e+00 0.0000000000000000e+00 0.0000000000000000e+00  -1.9063146011394753e+02 3.0421346009860777e+00 0.0000000000000000e+00 3.0421346009860897e+00 8.2229424181184186e+03 0.0000000000000000e+00 0.0000000000000000e+00 0.0000000000000000e+00 0.0000000000000000e+00  -2.4137432141948895e+02 -1.6852170793092547e-01 0.0000000000000000e+00 -1.6852170793094107e-01 8.3494375010027507e+03 0.0000000000000000e+00 0.0000000000000000e+00 0.0000000000000000e+00 0.0000000000000000e+00  -2.8948875630430786e+02 1.0878050344479237e-01 0.0000000000000000e+00 1.0878050344480827e-01 8.4590263084331855e+03 0.0000000000000000e+00 0.0000000000000000e+00 0.0000000000000000e+00 0.0000000000000000e+00  -3.1481073952892950e+02 -7.3614163756394291e-01 0.0000000000000000e+00 -7.3614163756393913e-01 8.5763087488422916e+03 0.0000000000000000e+00 0.0000000000000000e+00 0.0000000000000000e+00 0.0000000000000000e+00  -3.3871540436325131e+02 3.1814874515922698e-01 0.0000000000000000e+00 3.1814874515924052e-01 8.6519334039515652e+03 0.0000000000000000e+00 0.0000000000000000e+00 0.0000000000000000e+00 0.0000000000000000e+00  -3.5331529739976406e+02 -1.0110604797991931e+00 0.0000000000000000e+00 -1.0110604797991896e+00 8.7261850065225372e+03 0.0000000000000000e+00 0.0000000000000000e+00 0.0000000000000000e+00 0.0000000000000000e+00  -3.5624411513921581e+02 -6.7884967963789022e-01 0.0000000000000000e+00 -6.7884967963789045e-01 8.7818667436354990e+03 0.0000000000000000e+00 0.0000000000000000e+00 0.0000000000000000e+00 0.0000000000000000e+00  -3.5298189146266117e+02 -1.5925402959819985e+00 0.0000000000000000e+00 -1.5925402959820014e+00 8.8206021296737399e+03 0.0000000000000000e+00 0.0000000000000000e+00 0.0000000000000000e+00 0.0000000000000000e+00  -3.4476878088854539e+02 -9.5659644555016088e-01 0.0000000000000000e+00 -9.5659644555015844e-01 8.8480124401943704e+03 0.0000000000000000e+00 0.0000000000000000e+00 0.0000000000000000e+00 0.0000000000000000e+00  -3.3404123651505290e+02 -5.1542043277561378e-01 0.0000000000000000e+00 -5.1542043277562100e-01 8.8653190021634673e+03 0.0000000000000000e+00 0.0000000000000000e+00 0.0000000000000000e+00 0.0000000000000000e+00  -3.2017633475945996e+02 -8.0147775604829641e-01 0.0000000000000000e+00 -8.0147775604828919e-01 8.8727114484422309e+03 0.0000000000000000e+00 0.0000000000000000e+00 0.0000000000000000e+00 0.0000000000000000e+00  -3.0576130325223312e+02 -1.0077626610208894e+00 0.0000000000000000e+00 -1.0077626610208934e+00 8.8734590139972734e+03 0.0000000000000000e+00 0.0000000000000000e+00 0.0000000000000000e+00 0.0000000000000000e+00  -2.9198879975992378e+02 -4.8523488150908517e-01 0.0000000000000000e+00 -4.8523488150907901e-01 8.8675343764711415e+03 0.0000000000000000e+00 0.0000000000000000e+00 0.0000000000000000e+00 0.0000000000000000e+00  -2.7826595729881871e+02 -6.6297052275415613e-01 0.0000000000000000e+00 -6.6297052275414992e-01 8.8578238614765851e+03 0.0000000000000000e+00 0.0000000000000000e+00 0.0000000000000000e+00 0.0000000000000000e+00  -2.6580223906994274e+02 -3.1704549868209131e-01 0.0000000000000000e+00 -3.1704549868210385e-01 8.8439986583774426e+03 0.0000000000000000e+00 0.0000000000000000e+00 0.0000000000000000e+00 0.0000000000000000e+00  -2.5397683961976978e+02 -2.9880435583110115e-01 0.0000000000000000e+00 -2.9880435583111131e-01 8.8263080943797886e+03 0.0000000000000000e+00 0.0000000000000000e+00 0.0000000000000000e+00 0.0000000000000000e+00  -2.4348634991111473e+02 -1.5290759056821149e-01 0.0000000000000000e+00 -1.5290759056822256e-01 8.8059955940454693e+03 0.0000000000000000e+00 0.0000000000000000e+00 0.0000000000000000e+00 0.0000000000000000e+00  -2.3316556082765896e+02 -7.9972911725996743e-02 0.0000000000000000e+00 -7.9972911725987680e-02 8.7832238783701578e+03 0.0000000000000000e+00 0.0000000000000000e+00 0.0000000000000000e+00 0.0000000000000000e+00  -2.2410074434696617e+02 -6.5697571978900957e-02 0.0000000000000000e+00 -6.5697571978885733e-02 8.7569427636704168e+03 0.0000000000000000e+00 0.0000000000000000e+00 0.0000000000000000e+00 0.0000000000000000e+00  -2.1416926925492589e+02 -4.4142688436719792e-02 0.0000000000000000e+00 -4.4142688436736278e-02 8.7280680257391450e+03 0.0000000000000000e+00 0.0000000000000000e+00 0.0000000000000000e+00 0.0000000000000000e+00  -2.0506343924451795e+02 -1.2679594919252013e-01 0.0000000000000000e+00 -1.2679594919253312e-01 8.6964523690266687e+03 0.0000000000000000e+00 0.0000000000000000e+00 0.0000000000000000e+00 0.0000000000000000e+00  -1.9449341831439583e+02 1.7564082836881720e-01 0.0000000000000000e+00 1.7564082836883124e-01 8.6617851544955192e+03 0.0000000000000000e+00 0.0000000000000000e+00 0.0000000000000000e+00 0.0000000000000000e+00  -1.8323128587444000e+02 -1.1441770737967047e-01 0.0000000000000000e+00 -1.1441770737967159e-01 8.6228831697805381e+03 0.0000000000000000e+00 0.0000000000000000e+00 0.0000000000000000e+00 0.0000000000000000e+00  -1.7101149643877966e+02 2.3688598804217850e-01 0.0000000000000000e+00 2.3688598804218280e-01 8.5818160485916724e+03 0.0000000000000000e+00 0.0000000000000000e+00 0.0000000000000000e+00 0.0000000000000000e+00  -1.5691920785490160e+02 2.3533671072233545e-01 0.0000000000000000e+00 2.3533671072232618e-01 8.5385836944536550e+03 0.0000000000000000e+00 0.0000000000000000e+00 0.0000000000000000e+00 0.0000000000000000e+00  -1.4211196777137332e+02 7.7650756677282939e-02 0.0000000000000000e+00 7.7650756677288310e-02 8.4902948233025782e+03 0.0000000000000000e+00 0.0000000000000000e+00 0.0000000000000000e+00 0.0000000000000000e+00  -1.2479368410888016e+02 -2.2009417562793049e-01 0.0000000000000000e+00 -2.2009417562792560e-01 8.4427057208967490e+03 0.0000000000000000e+00 0.0000000000000000e+00 0.0000000000000000e+00 0.0000000000000000e+00  -1.0795020544816516e+02 -2.2246939200867197e-01 0.0000000000000000e+00 -2.2246939200867683e-01 8.3909273534104450e+03 0.0000000000000000e+00 0.0000000000000000e+00 0.0000000000000000e+00 0.0000000000000000e+00  -8.8354694757506877e+01 -2.2146462456824636e-02 0.0000000000000000e+00 -2.2146462456861669e-02 8.3408073140288452e+03 0.0000000000000000e+00 0.0000000000000000e+00 0.0000000000000000e+00 0.0000000000000000e+00  -6.9761588176888452e+01 -3.5625819870218717e-01 0.0000000000000000e+00 -3.5625819870220876e-01 8.2932934389429447e+03 0.0000000000000000e+00 0.0000000000000000e+00 0.0000000000000000e+00 0.0000000000000000e+00  -5.1151146957608475e+01 -6.7477158969983422e-02 0.0000000000000000e+00 -6.7477158969994136e-02 8.2466106232767361e+03 0.0000000000000000e+00 0.0000000000000000e+00 0.0000000000000000e+00 0.0000000000000000e+00  -3.4559015826883638e+01 -6.7067191865083739e-02 0.0000000000000000e+00 -6.7067191865084544e-02 8.2019948057615020e+03 0.0000000000000000e+00 0.0000000000000000e+00 0.0000000000000000e+00 0.0000000000000000e+00  -2.0220521636929192e+01 -1.2229200451049740e-01 0.0000000000000000e+00 -1.2229200451050801e-01 8.1644614513271472e+03 0.0000000000000000e+00 0.0000000000000000e+00 0.0000000000000000e+00 0.0000000000000000e+00  -9.1660208244044021e+00 1.5696674197504351e-01 0.0000000000000000e+00 1.5696674197504448e-01 8.1332284414759788e+03 0.0000000000000000e+00 0.0000000000000000e+00 0.0000000000000000e+00 0.0000000000000000e+00  -1.2669827319534805e+00 2.8838428026400376e-01 0.0000000000000000e+00 2.8838428026400470e-01 8.1109063912536058e+03 0.0000000000000000e+00 0.0000000000000000e+00 0.0000000000000000e+00 0.0000000000000000e+00  -4.4761062422745319e+01 -1.7223289689237035e+02 0.0000000000000000e+00 -1.7223289689237043e+02 5.3439752846512715e+02 0.0000000000000000e+00 0.0000000000000000e+00 0.0000000000000000e+00 0.0000000000000000e+00  2.7751920603130736e+02 2.5712629347207775e+02 0.0000000000000000e+00 2.5712629347207701e+02 3.2713281126738902e+03 0.0000000000000000e+00 0.0000000000000000e+00 0.0000000000000000e+00 0.0000000000000000e+00  -2.0934917016505540e+02 -6.2892629799443633e+01 0.0000000000000000e+00 -6.2892629799443419e+01 4.2889753972993212e+03 0.0000000000000000e+00 0.0000000000000000e+00 0.0000000000000000e+00 0.0000000000000000e+00  1.9152203633810026e+02 1.4642157358297331e+02 0.0000000000000000e+00 1.4642157358297376e+02 5.7272836152825330e+03 0.0000000000000000e+00 0.0000000000000000e+00 0.0000000000000000e+00 0.0000000000000000e+00  -8.0806462671411424e+01 -5.2323801879819577e+01 0.0000000000000000e+00 -5.2323801879819584e+01 6.1660420428206698e+03 0.0000000000000000e+00 0.0000000000000000e+00 0.0000000000000000e+00 0.0000000000000000e+00  7.0484353264663667e+01 6.3407231998609973e+01 0.0000000000000000e+00 6.3407231998609781e+01 6.7658205865976734e+03 0.0000000000000000e+00 0.0000000000000000e+00 0.0000000000000000e+00 0.0000000000000000e+00  -2.1649013027126827e+01 9.1453552620684615e+00 0.0000000000000000e+00 9.1453552620685699e+00 7.0591543078806890e+03 0.0000000000000000e+00 0.0000000000000000e+00 0.0000000000000000e+00 0.0000000000000000e+00  1.4379247720519379e+01 2.5203189259274765e+01 0.0000000000000000e+00 2.5203189259274971e+01 7.2751603489545932e+03 0.0000000000000000e+00 0.0000000000000000e+00 0.0000000000000000e+00 0.0000000000000000e+00  3.5512537870912286e+00 1.3309000071248025e+01 0.0000000000000000e+00 1.3309000071248015e+01 7.4909457833474089e+03 0.0000000000000000e+00 0.0000000000000000e+00 0.0000000000000000e+00 0.0000000000000000e+00  5.5580687783707363e+00 8.2870559242015958e+00 0.0000000000000000e+00 8.2870559242015958e+00 7.6042396837427414e+03 0.0000000000000000e+00 0.0000000000000000e+00 0.0000000000000000e+00 0.0000000000000000e+00  -3.0225001348291607e+00 1.4421111156681787e+00 0.0000000000000000e+00 1.4421111156681434e+00 7.7078999578732164e+03 0.0000000000000000e+00 0.0000000000000000e+00 0.0000000000000000e+00 0.0000000000000000e+00  5.5137601219552890e+00 4.5645607178540208e+00 0.0000000000000000e+00 4.5645607178540049e+00 7.7536969208840619e+03 0.0000000000000000e+00 0.0000000000000000e+00 0.0000000000000000e+00 0.0000000000000000e+00  -1.7227378730838543e+00 9.3669191458369883e-01 0.0000000000000000e+00 9.3669191458370438e-01 7.8010257584745650e+03 0.0000000000000000e+00 0.0000000000000000e+00 0.0000000000000000e+00 0.0000000000000000e+00  1.2552323915840464e+03 1.2478821580107528e+03 0.0000000000000000e+00 1.2478821580107549e+03 5.2777092000088589e+02 0.0000000000000000e+00 0.0000000000000000e+00 0.0000000000000000e+00 0.0000000000000000e+00  5.2890638435007968e+03 6.0097556187439959e+03 0.0000000000000000e+00 6.0097556187439895e+03 9.6050712707605308e+03 0.0000000000000000e+00 0.0000000000000000e+00 0.0000000000000000e+00 0.0000000000000000e+00  2.8781594824468179e+03 2.7873048836872531e+03 0.0000000000000000e+00 2.7873048836872540e+03 1.3714882067211147e+04 0.0000000000000000e+00 0.0000000000000000e+00 0.0000000000000000e+00 0.0000000000000000e+00  3.7018652997774234e+03 -2.6579688605275214e+03 0.0000000000000000e+00 -2.6579688605275223e+03 1.4458290584145443e+04 0.0000000000000000e+00 0.0000000000000000e+00 0.0000000000000000e+00 0.0000000000000000e+00  3.1162569276551440e+03 -5.6047962968592055e+03 0.0000000000000000e+00 -5.6047962968592055e+03 8.6224061571974580e+03 0.0000000000000000e+00 0.0000000000000000e+00 0.0000000000000000e+00 0.0000000000000000e+00  2.0021064489437263e+03 -1.6696105792747326e+03 0.0000000000000000e+00 -1.6696105792747330e+03 1.0924572079948214e+03 0.0000000000000000e+00 0.0000000000000000e+00 0.0000000000000000e+00 0.0000000000000000e+00  8.2624169555661930e-02 -4.9862652014271830e-01 0.0000000000000000e+00 -4.9862652014272119e-01 8.1015975364321048e+03 0.0000000000000000e+00 0.00000000000