<?xml version="1.0"?>
<VTKFile type="UnstructuredGrid"  version="0.1"  >
<UnstructuredGrid>
<Piece  NumberOfPoints="2165" NumberOfCells="4161">
<Points>
<DataArray  type="Float64"  NumberOfComponents="3"  format="ascii">-3.598637933768527e-16 0.3500000000000001 0  0.05 0.4 0  -3.537405593811159e-16 0.45 0  0 1 0  1 1 0  0.9999999999999997 0.65 0  0.9999999999999997 0.5499999999999999 0  1 0 0  0 0 0  0.0191341716182545 0.3538060233744357 0  0.03535533905932737 0.3646446609406727 0  0.04619397662556433 0.3808658283817455 0  0.04619397662556434 0.4191341716182545 0  0.03535533905932738 0.4353553390593274 0  0.01913417161825449 0.4461939766255644 0  0 0.975 0  0 0.95 0  0 0.9249999999999999 0  0 0.8999999999999998 0  0 0.8749999999999998 0  0 0.8499999999999998 0  0 0.8249999999999997 0  0 0.7999999999999996 0  0 0.7749999999999996 0  0 0.7499999999999996 0  0 0.7249999999999996 0  0 0.6999999999999997 0  0 0.6749999999999998 0  0 0.6499999999999999 0  0 0.6249999999999999 0  0 0.6 0  0 0.575 0  0 0.5499999999999998 0  0 0.5249999999999999 0  0 0.4999999999999998 0  0 0.4749999999999999 0  0.975 1 0  0.95 1 0  0.925 1 0  0.9 1 0  0.875 1 0  0.85 1 0  0.825 1 0  0.8 1 0  0.775 1 0  0.75 1 0  0.725 1 0  0.7 1 0  0.675 1 0  0.65 1 0  0.625 1 0  0.6 1 0  0.575 1 0  0.55 1 0  0.525 1 0  0.5 1 0  0.475 1 0  0.45 1 0  0.425 1 0  0.4 1 0  0.375 1 0  0.35 1 0  0.325 1 0  0.3 1 0  0.275 1 0  0.25 1 0  0.225 1 0  0.2 1 0  0.175 1 0  0.15 1 0  0.125 1 0  0.09999999999999998 1 0  0.07499999999999996 1 0  0.05000000000000004 1 0  0.02500000000000002 1 0  1 0.675 0  1 0.7000000000000001 0  1 0.7250000000000001 0  1 0.7500000000000001 0  1 0.7750000000000001 0  1 0.8000000000000002 0  1 0.8250000000000002 0  1 0.8500000000000002 0  1 0.8750000000000003 0  1 0.9000000000000001 0  1 0.9250000000000002 0  1 0.9500000000000001 0  1 0.9750000000000001 0  0.9783058130441221 0.6450484433951209 0  0.9609084258765985 0.6311744900929367 0  0.9512536043909088 0.6111260466978157 0  0.9512536043909088 0.5888739533021843 0  0.9609084258765985 0.5688255099070633 0  0.9783058130441221 0.554951556604879 0  1 0.02500000000000002 0  1 0.05000000000000004 0  1 0.07500000000000008 0  1 0.1000000000000001 0  1 0.1250000000000001 0  1 0.1500000000000002 0  1 0.1750000000000002 0  1 0.2000000000000003 0  1 0.2250000000000003 0  1 0.2500000000000004 0  1 0.2750000000000004 0  1 0.3000000000000003 0  1 0.3250000000000002 0  1 0.3500000000000001 0  1 0.3750000000000001 0  1 0.3999999999999999 0  1 0.425 0  1 0.45 0  1 0.475 0  1 0.5000000000000001 0  1 0.5249999999999999 0  0.025 0 0  0.05 0 0  0.075 0 0  0.1 0 0  0.125 0 0  0.15 0 0  0.175 0 0  0.2 0 0  0.225 0 0  0.25 0 0  0.275 0 0  0.3 0 0  0.325 0 0  0.35 0 0  0.375 0 0  0.4 0 0  0.425 0 0  0.45 0 0  0.475 0 0  0.5 0 0  0.525 0 0  0.55 0 0  0.575 0 0  0.6 0 0  0.625 0 0  0.65 0 0  0.675 0 0  0.7 0 0  0.725 0 0  0.75 0 0  0.775 0 0  0.8 0 0  0.825 0 0  0.85 0 0  0.875 0 0  0.9 0 0  0.925 0 0  0.95 0 0  0.975 0 0  0 0.3250000000000001 0  0 0.3 0  0 0.275 0  0 0.2499999999999999 0  0 0.2249999999999999 0  0 0.1999999999999998 0  0 0.1749999999999998 0  0 0.1499999999999998 0  0 0.1249999999999998 0  0 0.09999999999999987 0  0 0.07499999999999984 0  0 0.04999999999999993 0  0 0.02500000000000002 0  0.06453325334544308 0.4134708543086404 0  0.5146839915088474 0.02134387884913819 0  0.4875871001393628 0.9784117024331356 0  0.9386300160094723 0.5701776715936071 0  0.0216506350946109 0.6124999999999999 0  0.9764205887290853 0.3596067946540696 0  0.3876261045932067 0.02156097490657183 0  0.6125 0.978349364905389 0  0.3612127461797463 0.9792371404802113 0  0.6374786650398092 0.02079982608537345 0  0.9387185538472446 0.6295115890709873 0  0.05482260092545593 0.3633687091864355 0  0.02445354803948679 0.7343198207875321 0  0.2624888813627476 0.02091671348578122 0  0.7375212991274043 0.9794996488945376 0  0.9793010831723812 0.2648509348664836 0  0.2625026480689301 0.9795699185263282 0  0.7362840788105066 0.02225211062275217 0  0.02159327910297104 0.2128861809896528 0  0.9786837570973538 0.7867241244631172 0  0.02419728000065929 0.8365600234152764 0  0.980043283615984 0.1624097203408714 0  0.1645857434226354 0.0205513501962844 0  0.8339481359352011 0.9784483546369231 0  0.1637584777222821 0.9774556328160621 0  0.8374916614314967 0.02165097219510076 0  0.02171915379676059 0.5370700005916152 0  0.9795335762511281 0.4365726939225819 0  0.02319480745007968 0.1370197632171214 0  0.9774462976085161 0.8592616917551974 0  0.9786941241076723 0.7122511101067891 0  0.9797883857882621 0.08781864217752949 0  0.01966314788989931 0.9125801876811624 0  0.02051815350151098 0.2882126194470174 0  0.09063226699593246 0.0214884092697174 0  0.9124408843562394 0.9818463395009377 0  0.03872465516591678 0.452731089005145 0  0.08969424365256845 0.978412979507602 0  0.9124999999999999 0.02165063509461096 0  0.02158104789437187 0.6619299176372371 0  0.9796602354625652 0.4859004208706154 0  0.3127517983598529 0.02417963694738812 0  0.4375629605000894 0.02158039900821679 0  0.5643674594196073 0.01968996000301126 0  0.5368361594956101 0.9790428840407062 0  0.4376176251051295 0.9783667484208922 0  0.6874072695660477 0.978435143102373 0  0.310604317388614 0.979558305560928 0  0.2125577044121564 0.02066685543111635 0  0.6875 0.0216506350946109 0  0.02224009810917643 0.08811420611559456 0  0.790876428529276 0.978633065284896 0  0.2125 0.978349364905389 0  0.9788033534786624 0.2116925349935155 0  0.9769441169344462 0.3150381335760689 0  0.9804648376981185 0.9123186437266726 0  0.7874999988222203 0.02127957051165741 0  0.02109233852270731 0.786866823287435 0  0.9483709287873718 0.5504073206521916 0  0.9259842326464427 0.5519702047534598 0  0.9163209045278007 0.5719292915927929 0  0.9035374059862284 0.5537291796040291 0  0.8938951918780048 0.5738949757882954 0  0.8807940177559743 0.5546750869516996 0  0.8712661812741653 0.5757142549099102 0  0.8580668865514332 0.5563902430113601 0  0.848508161986991 0.5779004013072002 0  0.8354274200119249 0.5591176379057713 0  0.8256349826905482 0.5800610629400762 0  0.8124123591208572 0.5604454546391737 0  0.802603410938817 0.5819653950592523 0  0.7892876429890218 0.562234610648543 0  0.7794355871850538 0.583896242519796 0  0.7661469824381839 0.5648243426306435 0  0.7562387679604726 0.5860005456930413 0  0.7429651600512166 0.5669367633461588 0  0.7330846968880171 0.5879590907760761 0  0.7198577999459205 0.5688986880627463 0  0.7297050500533544 0.5479561801187277 0  0.7066243396993471 0.5499068108517552 0  0.6968285086900206 0.5707989520567972 0  0.6836266810714333 0.5519088927359967 0  0.6738604685766018 0.5727655091567184 0  0.6607284761452521 0.5538781923028128 0  0.6697149783704412 0.5321140554135094 0  0.6473436039782401 0.5350050604671006 0  0.6378867365666199 0.5557804038095817 0  0.6246915360243652 0.5362124690568238 0  0.6151175309583405 0.5575933164645619 0  0.6019784180102355 0.5380659376543677 0  0.5924099113505394 0.5593739656462906 0  0.5794110962027638 0.541110021814312 0  0.5697985396917309 0.5614600003719357 0  0.5568468707330213 0.5433212932327446 0  0.5472634011377896 0.5635652141280936 0  0.5343236363495072 0.5451361960661517 0  0.5247877773262166 0.565493591892781 0  0.5118927934227436 0.5470665328397559 0  0.5023398230005425 0.5674381114577953 0  0.5213991904098014 0.5267047787870831 0  0.4990390504096661 0.528649139287786 0  0.6328887517229864 0.5131744321062524 0  0.5085133205790763 0.5083322037773296 0  0.4861972978925295 0.5102540920324363 0  0.4956914791804768 0.4899605513008993 0  0.4734139980312694 0.4918582759645476 0  0.4826986629698439 0.4717164019717278 0  0.460570567761715 0.473509155475794 0  0.4699344541058981 0.4533140529328089 0  0.4477087341565655 0.4550973130597117 0  0.4381733274019614 0.4752901381741884 0  0.4570222843287571 0.4349938694701042 0  0.4348599018247688 0.436728068420533 0  0.5604623134382263 0.581815997002507 0  0.4443612964408632 0.416499823314016 0  0.422056299386984 0.4183730429856528 0  0.4688721528228815 0.4135009841763965 0  0.4315584877924544 0.398120546824229 0  0.4092288692044618 0.3999974286008185 0  0.7463210599443056 0.6070829843371945 0  0.4187270626688335 0.3797365044773463 0  0.3964262302393312 0.3817184136470017 0  0.3869780036193907 0.4018498778543814 0  0.3742423843122406 0.3837055716372927 0  0.3648701490102072 0.4037049758807119 0  0.3518115403926748 0.3858985036587403 0  0.3426146276710081 0.4056777495658291 0  0.3614541441355358 0.3656396497906528 0  0.339026673715919 0.3678724679736439 0  0.3485566370135618 0.3476560889674916 0  0.3264681821394378 0.3496422822523857 0  0.8219942777991693 0.5379143061758643 0  0.3358297439968608 0.3295117748868035 0  0.3137050884585635 0.3314921667582986 0  0.3229980644152205 0.3113561769498422 0  0.3007986024336577 0.3133063832007756 0  0.3441851868720173 0.3085211458266175 0  0.3101966551534752 0.2930273704914169 0  0.287793053707373 0.2950088132226583 0  0.2914417217227097 0.3337427541189321 0  0.2975120686695638 0.2743682539701985 0  0.274864585256681 0.2764253296978281 0  0.816026571618698 0.6006851919544112 0  0.2844672854128698 0.2557011565880619 0  0.2617267434509338 0.2577713002235077 0  0.3072711221189672 0.2536790056475094 0  0.2521588568690318 0.2785072139143895 0  0.2389277409161178 0.2598761196336353 0  0.248448076747058 0.2389478879785275 0  0.5053822153261678 0.4716915524631118 0  0.229548765875869 0.2806542761043101 0  0.2254561407802683 0.2411354049374563 0  0.2350621310805047 0.2199181955146378 0  0.2117782450160163 0.222165061041625 0  0.2214249125635323 0.2008136877065064 0  0.2448758256083499 0.1985732693215908 0  0.197966291680556 0.2031211006951591 0  0.1883147493074436 0.2245564097761413 0  0.8910637266939049 0.5322898364209732 0  0.1748136087708587 0.2051141748992724 0  0.1842088801696792 0.1837087814679069 0  0.1656574100807746 0.2269812054689968 0  0.3554582346764377 0.4236292557112198 0  0.3328979939923831 0.425459320867588 0  0.3460368767112177 0.4435398346083328 0  0.3238464003
[...]
<PointData  Tensors="$\sigma$"> 
<DataArray  type="Float64"  Name="$\sigma$"  NumberOfComponents="9" format="ascii">-3.3417109003866031e+01 -8.5306681336444854e+01 0.0000000000000000e+00 -8.5306681336444854e+01 -1.9232019213211177e+02 0.0000000000000000e+00 0.0000000000000000e+00 0.0000000000000000e+00 0.0000000000000000e+00  3.8020116014293058e+02 2.8226356079249317e+00 0.0000000000000000e+00 2.8226356079249513e+00 4.4061143122634940e+03 0.0000000000000000e+00 0.0000000000000000e+00 0.0000000000000000e+00 0.0000000000000000e+00  -2.6113688152100728e+01 9.7440312134963307e+01 0.0000000000000000e+00 9.7440312134963307e+01 -2.0129641377818228e+02 0.0000000000000000e+00 0.0000000000000000e+00 0.0000000000000000e+00 0.0000000000000000e+00  -2.5447828629156701e-03 1.5848789185290146e-01 0.0000000000000000e+00 1.5848789185290135e-01 1.4073153770581785e+03 0.0000000000000000e+00 0.0000000000000000e+00 0.0000000000000000e+00 0.0000000000000000e+00  -6.9512149632169562e-02 -5.8979602047019720e-02 0.0000000000000000e+00 -5.8979602047020234e-02 1.3657688766216877e+03 0.0000000000000000e+00 0.0000000000000000e+00 0.0000000000000000e+00 0.0000000000000000e+00  -2.5092577930076427e+01 -1.0454928634712928e+02 0.0000000000000000e+00 -1.0454928634712928e+02 -1.6218998273780596e+01 0.0000000000000000e+00 0.0000000000000000e+00 0.0000000000000000e+00 0.0000000000000000e+00  5.5651296814802713e+01 -3.1357314316249433e+01 0.0000000000000000e+00 -3.1357314316249379e+01 3.8754346925760430e+01 0.0000000000000000e+00 0.0000000000000000e+00 0.0000000000000000e+00 0.0000000000000000e+00  -1.2309794494057719e-01 1.1947117026062333e-02 0.0000000000000000e+00 1.1947117026062456e-02 1.4081896830792630e+03 0.0000000000000000e+00 0.0000000000000000e+00 0.0000000000000000e+00 0.0000000000000000e+00  3.8834626579508108e+02 1.6574516283134997e+02 0.0000000000000000e+00 1.6574516283134997e+02 1.4712763600736025e+03 0.0000000000000000e+00 0.0000000000000000e+00 0.0000000000000000e+00 0.0000000000000000e+00  2.2479203058716863e+02 2.2676825653180316e+02 0.0000000000000000e+00 2.2676825653180316e+02 2.2795387952238934e+02 0.0000000000000000e+00 0.0000000000000000e+00 0.0000000000000000e+00 0.0000000000000000e+00  6.9287235031686441e+02 8.6138430170062099e+02 0.0000000000000000e+00 8.6138430170062099e+02 1.3070176206317565e+03 0.0000000000000000e+00 0.0000000000000000e+00 0.0000000000000000e+00 0.0000000000000000e+00  6.2505155777810990e+02 9.9738098455284558e+02 0.0000000000000000e+00 9.9738098455284546e+02 3.3716782873708471e+03 0.0000000000000000e+00 0.0000000000000000e+00 0.0000000000000000e+00 0.0000000000000000e+00  6.1741989230704189e+02 -1.0136966789174618e+03 0.0000000000000000e+00 -1.0136966789174618e+03 3.3671697831083125e+03 0.0000000000000000e+00 0.0000000000000000e+00 0.0000000000000000e+00 0.0000000000000000e+00  6.9287977209063115e+02 -8.4612733317944219e+02 0.0000000000000000e+00 -8.4612733317944219e+02 1.3738551748156863e+03 0.0000000000000000e+00 0.0000000000000000e+00 0.0000000000000000e+00 0.0000000000000000e+00  2.1804124631186204e+02 -2.3536956461378358e+02 0.0000000000000000e+00 -2.3536956461378358e+02 2.2569303517962919e+02 0.0000000000000000e+00 0.0000000000000000e+00 0.0000000000000000e+00 0.0000000000000000e+00  -1.8037625902306429e-02 -1.0717662697561665e-01 0.0000000000000000e+00 -1.0717662697561646e-01 1.4066930942299871e+03 0.0000000000000000e+00 0.0000000000000000e+00 0.0000000000000000e+00 0.0000000000000000e+00  1.7648186429768713e-02 -2.7421859830813433e-01 0.0000000000000000e+00 -2.7421859830813328e-01 1.4057224754846613e+03 0.0000000000000000e+00 0.0000000000000000e+00 0.0000000000000000e+00 0.0000000000000000e+00  5.1133948790079528e-02 -2.5989691237918677e-01 0.0000000000000000e+00 -2.5989691237918766e-01 1.4038571005137958e+03 0.0000000000000000e+00 0.0000000000000000e+00 0.0000000000000000e+00 0.0000000000000000e+00  -4.4733101994361209e-02 -3.2719705961086099e-01 0.0000000000000000e+00 -3.2719705961086126e-01 1.4010463984613098e+03 0.0000000000000000e+00 0.0000000000000000e+00 0.0000000000000000e+00 0.0000000000000000e+00  2.2230981150011084e-02 -5.2688154508703255e-01 0.0000000000000000e+00 -5.2688154508703156e-01 1.3975112438560730e+03 0.0000000000000000e+00 0.0000000000000000e+00 0.0000000000000000e+00 0.0000000000000000e+00  1.7588098047666842e-01 -8.6830723706548762e-01 0.0000000000000000e+00 -8.6830723706548885e-01 1.3935606889003143e+03 0.0000000000000000e+00 0.0000000000000000e+00 0.0000000000000000e+00 0.0000000000000000e+00  -1.9550673002168329e-02 -7.5475733662905564e-01 0.0000000000000000e+00 -7.5475733662905431e-01 1.3865567379208428e+03 0.0000000000000000e+00 0.0000000000000000e+00 0.0000000000000000e+00 0.0000000000000000e+00  5.6854932961975226e-02 -1.1460778766063611e+00 0.0000000000000000e+00 -1.1460778766063608e+00 1.3802019324322066e+03 0.0000000000000000e+00 0.0000000000000000e+00 0.0000000000000000e+00 0.0000000000000000e+00  1.6181075754535509e-01 -1.5172440518773462e+00 0.0000000000000000e+00 -1.5172440518773458e+00 1.3714061646480825e+03 0.0000000000000000e+00 0.0000000000000000e+00 0.0000000000000000e+00 0.0000000000000000e+00  3.4791883807386065e-01 -1.5565261396282704e+00 0.0000000000000000e+00 -1.5565261396282688e+00 1.3619576658826181e+03 0.0000000000000000e+00 0.0000000000000000e+00 0.0000000000000000e+00 0.0000000000000000e+00  -1.1296200953434783e-01 -2.1803484573619776e+00 0.0000000000000000e+00 -2.1803484573619758e+00 1.3436275798140807e+03 0.0000000000000000e+00 0.0000000000000000e+00 0.0000000000000000e+00 0.0000000000000000e+00  -9.4724681989706086e-03 -3.5290747780383200e+00 0.0000000000000000e+00 -3.5290747780383205e+00 1.3328643936610708e+03 0.0000000000000000e+00 0.0000000000000000e+00 0.0000000000000000e+00 0.0000000000000000e+00  -4.2603094750705240e-03 -2.9252825765050705e+00 0.0000000000000000e+00 -2.9252825765050705e+00 1.3062823756553119e+03 0.0000000000000000e+00 0.0000000000000000e+00 0.0000000000000000e+00 0.0000000000000000e+00  6.6391920746398492e-01 -4.4030667184852108e+00 0.0000000000000000e+00 -4.4030667184852108e+00 1.2808416042299973e+03 0.0000000000000000e+00 0.0000000000000000e+00 0.0000000000000000e+00 0.0000000000000000e+00  1.0284783844385799e+00 -3.4363798915672246e+00 0.0000000000000000e+00 -3.4363798915672246e+00 1.2410530022809680e+03 0.0000000000000000e+00 0.0000000000000000e+00 0.0000000000000000e+00 0.0000000000000000e+00  -2.5238575404566871e-01 -6.9177766987394218e+00 0.0000000000000000e+00 -6.9177766987394218e+00 1.1911073722094970e+03 0.0000000000000000e+00 0.0000000000000000e+00 0.0000000000000000e+00 0.0000000000000000e+00  2.7430538154906814e+00 -1.5420743459722551e+01 0.0000000000000000e+00 -1.5420743459722551e+01 1.1147215439081508e+03 0.0000000000000000e+00 0.0000000000000000e+00 0.0000000000000000e+00 0.0000000000000000e+00  -4.1037716350828934e-01 -1.6019400790051396e+01 0.0000000000000000e+00 -1.6019400790051396e+01 1.0009863268002849e+03 0.0000000000000000e+00 0.0000000000000000e+00 0.0000000000000000e+00 0.0000000000000000e+00  1.0822682024772947e+00 -4.1886151221764671e+01 0.0000000000000000e+00 -4.1886151221764671e+01 8.3176098902076706e+02 0.0000000000000000e+00 0.0000000000000000e+00 0.0000000000000000e+00 0.0000000000000000e+00  -1.5399138366022141e+01 -5.7056756478037016e+01 0.0000000000000000e+00 -5.7056756478037016e+01 5.5907409130793064e+02 0.0000000000000000e+00 0.0000000000000000e+00 0.0000000000000000e+00 0.0000000000000000e+00  4.4431898651125998e+01 -5.5947205697086197e+01 0.0000000000000000e+00 -5.5947205697086197e+01 2.2081666486284504e+02 0.0000000000000000e+00 0.0000000000000000e+00 0.0000000000000000e+00 0.0000000000000000e+00  -1.0673262471586309e+00 7.2643092074942239e-02 0.0000000000000000e+00 7.2643092074939922e-02 1.3689362468324025e+03 0.0000000000000000e+00 0.0000000000000000e+00 0.0000000000000000e+00 0.0000000000000000e+00  -5.7962493115782801e+00 1.5437942852286032e-01 0.0000000000000000e+00 1.5437942852286032e-01 1.3777446401452423e+03 0.0000000000000000e+00 0.0000000000000000e+00 0.0000000000000000e+00 0.0000000000000000e+00  -1.2736931853957453e+01 4.3955791269602956e-01 0.0000000000000000e+00 4.3955791269603051e-01 1.3908715946457044e+03 0.0000000000000000e+00 0.0000000000000000e+00 0.0000000000000000e+00 0.0000000000000000e+00  -2.1192070433533441e+01 3.1873548838273563e-01 0.0000000000000000e+00 3.1873548838273641e-01 1.4057105502179591e+03 0.0000000000000000e+00 0.0000000000000000e+00 0.0000000000000000e+00 0.0000000000000000e+00  -2.8034815987504196e+01 8.0470180020138560e-01 0.0000000000000000e+00 8.0470180020138737e-01 1.4249063246848468e+03 0.0000000000000000e+00 0.0000000000000000e+00 0.0000000000000000e+00 0.0000000000000000e+00  -3.5432034551406389e+01 5.0137078122105806e-02 0.0000000000000000e+00 5.0137078122107971e-02 1.4434787534028151e+03 0.0000000000000000e+00 0.0000000000000000e+00 0.0000000000000000e+00 0.0000000000000000e+00  -4.2719192135956746e+01 -6.6469948786411645e-02 0.0000000000000000e+00 -6.6469948786410535e-02 1.4588587976717304e+03 0.0000000000000000e+00 0.0000000000000000e+00 0.0000000000000000e+00 0.0000000000000000e+00  -4.5833474251634520e+01 -1.3087470682478675e-01 0.0000000000000000e+00 -1.3087470682478639e-01 1.4760912874963556e+03 0.0000000000000000e+00 0.0000000000000000e+00 0.0000000000000000e+00 0.0000000000000000e+00  -4.9427475859760079e+01 4.7573547026188386e-02 0.0000000000000000e+00 4.7573547026187886e-02 1.4866332593902991e+03 0.0000000000000000e+00 0.0000000000000000e+00 0.0000000000000000e+00 0.0000000000000000e+00  -5.1572973546883055e+01 -2.1628614797158988e-01 0.0000000000000000e+00 -2.1628614797159010e-01 1.4971033168330237e+03 0.0000000000000000e+00 0.0000000000000000e+00 0.0000000000000000e+00 0.0000000000000000e+00  -5.1919143901752477e+01 -3.0779885217134767e-01 0.0000000000000000e+00 -3.0779885217134750e-01 1.5052694790878393e+03 0.0000000000000000e+00 0.0000000000000000e+00 0.0000000000000000e+00 0.0000000000000000e+00  -5.1311615850252345e+01 -3.1928431251798678e-01 0.0000000000000000e+00 -3.1928431251798689e-01 1.5106832921876116e+03 0.0000000000000000e+00 0.0000000000000000e+00 0.0000000000000000e+00 0.0000000000000000e+00  -5.0077446062846690e+01 -2.4595647154102210e-01 0.0000000000000000e+00 -2.4595647154102185e-01 1.5146085046870508e+03 0.0000000000000000e+00 0.0000000000000000e+00 0.0000000000000000e+00 0.0000000000000000e+00  -4.8472683831590999e+01 -2.4549451376767484e-01 0.0000000000000000e+00 -2.4549451376767528e-01 1.5170198663724145e+03 0.0000000000000000e+00 0.0000000000000000e+00 0.0000000000000000e+00 0.0000000000000000e+00  -4.6415696656314402e+01 -2.4359582881086891e-01 0.0000000000000000e+00 -2.4359582881086941e-01 1.5179933536399071e+03 0.0000000000000000e+00 0.0000000000000000e+00 0.0000000000000000e+00 0.0000000000000000e+00  -4.4344463002001135e+01 -2.2922360721240354e-01 0.0000000000000000e+00 -2.2922360721240312e-01 1.5180370653208709e+03 0.0000000000000000e+00 0.0000000000000000e+00 0.0000000000000000e+00 0.0000000000000000e+00  -4.2279182343364738e+01 -1.8717465773889366e-01 0.0000000000000000e+00 -1.8717465773889352e-01 1.5171951876068479e+03 0.0000000000000000e+00 0.0000000000000000e+00 0.0000000000000000e+00 0.0000000000000000e+00  -4.0326605384415856e+01 -1.6230570960929924e-01 0.0000000000000000e+00 -1.6230570960929935e-01 1.5157610177719005e+03 0.0000000000000000e+00 0.0000000000000000e+00 0.0000000000000000e+00 0.0000000000000000e+00  -3.8478092859600487e+01 -1.1397854318447405e-01 0.0000000000000000e+00 -1.1397854318447422e-01 1.5137623475056203e+03 0.0000000000000000e+00 0.0000000000000000e+00 0.0000000000000000e+00 0.0000000000000000e+00  -3.6800176798909881e+01 -7.6747892640820353e-02 0.0000000000000000e+00 -7.6747892640818965e-02 1.5112392169495208e+03 0.0000000000000000e+00 0.0000000000000000e+00 0.0000000000000000e+00 0.0000000000000000e+00  -3.5269893839322940e+01 -4.6736192906281990e-02 0.0000000000000000e+00 -4.6736192906282024e-02 1.5083444302530011e+03 0.0000000000000000e+00 0.0000000000000000e+00 0.0000000000000000e+00 0.0000000000000000e+00  -3.3807841074245928e+01 -2.0601673549753053e-02 0.0000000000000000e+00 -2.0601673549753320e-02 1.5050391101138134e+03 0.0000000000000000e+00 0.0000000000000000e+00 0.0000000000000000e+00 0.0000000000000000e+00  -3.2484543726331268e+01 5.1485222706536705e-03 0.0000000000000000e+00 5.1485222706536210e-03 1.5013066573212225e+03 0.0000000000000000e+00 0.0000000000000000e+00 0.0000000000000000e+00 0.0000000000000000e+00  -3.1081801447519418e+01 -1.8296528312254100e-02 0.0000000000000000e+00 -1.8296528312254295e-02 1.4971522722647485e+03 0.0000000000000000e+00 0.0000000000000000e+00 0.0000000000000000e+00 0.0000000000000000e+00  -2.9744260731050566e+01 -7.5474238310843066e-03 0.0000000000000000e+00 -7.5474238310842484e-03 1.4927047838165690e+03 0.0000000000000000e+00 0.0000000000000000e+00 0.0000000000000000e+00 0.0000000000000000e+00  -2.8215199994368749e+01 2.2318744490534420e-02 0.0000000000000000e+00 2.2318744490534410e-02 1.4876577255401442e+03 0.0000000000000000e+00 0.0000000000000000e+00 0.0000000000000000e+00 0.0000000000000000e+00  -2.6610516682172218e+01 2.5612755137628999e-02 0.0000000000000000e+00 2.5612755137628999e-02 1.4820603019226598e+03 0.0000000000000000e+00 0.0000000000000000e+00 0.0000000000000000e+00 0.0000000000000000e+00  -2.4829234029716726e+01 2.0396056530551602e-02 0.0000000000000000e+00 2.0396056530551602e-02 1.4762279140403214e+03 0.0000000000000000e+00 0.0000000000000000e+00 0.0000000000000000e+00 0.0000000000000000e+00  -2.2779432929589774e+01 4.4201496337901235e-02 0.0000000000000000e+00 4.4201496337901963e-02 1.4700136672719032e+03 0.0000000000000000e+00 0.0000000000000000e+00 0.0000000000000000e+00 0.0000000000000000e+00  -2.0692167069197289e+01 1.2980341805789282e-02 0.0000000000000000e+00 1.2980341805789388e-02 1.4631059862393804e+03 0.0000000000000000e+00 0.0000000000000000e+00 0.0000000000000000e+00 0.0000000000000000e+00  -1.8105769955279719e+01 1.1378287055890992e-02 0.0000000000000000e+00 1.1378287055890585e-02 1.4562840519768768e+03 0.0000000000000000e+00 0.0000000000000000e+00 0.0000000000000000e+00 0.0000000000000000e+00  -1.5711816198183877e+01 -4.6843684181741008e-02 0.0000000000000000e+00 -4.6843684181740376e-02 1.4488925290697605e+03 0.0000000000000000e+00 0.0000000000000000e+00 0.0000000000000000e+00 0.0000000000000000e+00  -1.2855795963896844e+01 -5.1473308176384194e-02 0.0000000000000000e+00 -5.1473308176385214e-02 1.4416645294484267e+03 0.0000000000000000e+00 0.0000000000000000e+00 0.0000000000000000e+00 0.0000000000000000e+00  -1.0121352089687811e+01 -9.1078758568689425e-02 0.0000000000000000e+00 -9.1078758568692034e-02 1.4349432695070857e+03 0.0000000000000000e+00 0.0000000000000000e+00 0.0000000000000000e+00 0.0000000000000000e+00  -7.4355210381717152e+00 -3.1463964962038099e-02 0.0000000000000000e+00 -3.1463964962037169e-02 1.4282958570775345e+03 0.0000000000000000e+00 0.0000000000000000e+00 0.0000000000000000e+00 0.0000000000000000e+00  -5.0038408885072601e+00 -1.0166034121248215e-02 0.0000000000000000e+00 -1.0166034121247308e-02 1.4219538939530694e+03 0.0000000000000000e+00 0.0000000000000000e+00 0.0000000000000000e+00 0.0000000000000000e+00  -2.9434894704655368e+00 -2.4390416605041494e-02 0.0000000000000000e+00 -2.4390416605040887e-02 1.4165930808983005e+03 0.0000000000000000e+00 0.0000000000000000e+00 0.0000000000000000e+00 0.0000000000000000e+00  -1.3455348180200888e+00 1.0725793465063362e-02 0.0000000000000000e+00 1.0725793465063091e-02 1.4120724389593959e+03 0.0000000000000000e+00 0.0000000000000000e+00 0.0000000000000000e+00 0.0000000000000000e+00  -1.9568197944370030e-01 6.5497447936097436e-02 0.0000000000000000e+00 6.5497447936097034e-02 1.4090659632290722e+03 0.0000000000000000e+00 0.0000000000000000e+00 0.0000000000000000e+00 0.0000000000000000e+00  5.6639547222427360e+01 4.2676355866674797e+01 0.0000000000000000e+00 4.2676355866674797e+01 1.8200627502505748e+02 0.0000000000000000e+00 0.0000000000000000e+00 0.0000000000000000e+00 0.0000000000000000e+00  1.5629157580283822e+01 4.6621941270368296e+01 0.0000000000000000e+00 4.6621941270368296e+01 5.8579492085303502e+02 0.0000000000000000e+00 0.0000000000000000e+00 0.0000000000000000e+00 0.0000000000000000e+00  2.1798661991415904e+00 2.5128218471775657e+01 0.0000000000000000e+00 2.5128218471775657e+01 8.4377756511615974e+02 0.0000000000000000e+00 0.0000000000000000e+00 0.0000000000000000e+00 0.0000000000000000e+00  7.0328650273974125e+00 1.7334906201794926e+01 0.0000000000000000e+00 1.7334906201794922e+01 1.0246640351768915e+03 0.0000000000000000e+00 0.0000000000000000e+00 0.0000000000000000e+00 0.0000000000000000e+00  8.4576620888866649e-01 7.1653090582938388e+00 0.0000000000000000e+00 7.1653090582938450e+00 1.1301892056049287e+03 0.0000000000000000e+00 0.0000000000000000e+00 0.0000000000000000e+00 0.0000000000000000e+00  2.5695459236354909e+00 6.3744661363630195e+00 0.0000000000000000e+00 6.3744661363630222e+00 1.2025176662913402e+03 0.0000000000000000e+00 0.0000000000000000e+00 0.0000000000000000e+00 0.0000000000000000e+00  1.8502824963679759e-01 6.8783561136503026e+00 0.0000000000000000e+00 6.8783561136503009e+00 1.2584466966836101e+03 0.0000000000000000e+00 0.0000000000000000e+00 0.0000000000000000e+00 0.0000000000000000e+00  -8.6718374175372348e-01 4.7662478160689918e+00 0.0000000000000000e+00 4.7662478160689785e+00 1.2860030633463139e+03 0.0000000000000000e+00 0.0000000000000000e+00 0.0000000000000000e+00 0.0000000000000000e+00  4.8250403709070561e-01 3.0723690359859068e+00 0.0000000000000000e+00 3.0723690359859077e+00 1.3191660430729851e+03 0.0000000000000000e+00 0.0000000000000000e+00 0.0000000000000000e+00 0.0000000000000000e+00  3.7682939668236126e-01 2.4785864366968715e+00 0.0000000000000000e+00 2.4785864366968715e+00 1.3371439649899116e+03 0.0000000000000000e+00 0.0000000000000000e+00 0.0000000000000000e+00 0.0000000000000000e+00  -2.5300050787531136e-01 7.1907237452665529e-01 0.0000000000000000e+00 7.1907237452665718e-01 1.3504195219290350e+03 0.0000000000000000e+00 0.0000000000000000e+00 0.0000000000000000e+00 0.0000000000000000e+00  5.2666640397476916e-01 7.2456909026526539e-01 0.0000000000000000e+00 7.2456909026526484e-01 1.3586964280534812e+03 0.0000000000000000e+00 0.0000000000000000e+00 0.0000000000000000e+00 0.0000000000000000e+00  -9.2188619002606845e-02 3.6847629680445837e-01 0.0000000000000000e+00 3.6847629680445787e-01 1.3648406750324618e+03 0.0000000000000000e+00 0.0000000000000000e+00 0.0000000000000000e+00 0.0000000000000000e+00  2.9654986360325648e+02 3.1613526018690510e+02 0.0000000000000000e+00 3.1613526018690510e+02 2.8952195179605962e+02 0.0000000000000000e+00 0.0000000000000000e+00 0.0000000000000000e+00 0.0000000000000000e+00  7.9170807883580062e+02 1.0155246732396812e+03 0.0000000000000000e+00 1.0155246732396812e+03 2.0350889050439582e+03 0.0000000000000000e+00 0.0000000000000000e+00 0.0000000000000000e+00 0.0000000000000000e+00  3.6359841089436429e+02 7.1274025987947743e+02 0.0000000000000000e+00 7.1274025987947743e+02 4.0145603393049760e+03 0.0000000000000000e+00 0.0000000000000000e+00 0.0000000000000000e+00 0.0000000000000000e+00  5.9958489228952601e+02 -4.5276837547154946e+02 0.0000000000000000e+00 -4.5276837547154946e+02 3.7104355523817862e+03 0.0000000000000000e+00 0.0000000000000000e+00 0.0000000000000000e+00 0.0000000000000000e+00  5.3960091518039724e+02 -1.0496464289266414e+03 0.0000000000000000e+00 -1.0496464289266414e+03 2.0827636904718292e+03 0.0000000000000000e+00 0.0000000000000000e+00 0.0000000000000000e+00 0.0000000000000000e+00  2.6178379079365777e+02 -3.4172981344958657e+02 0.0000000000000000e+00 -3.4172981344958657e+02 4.0810425683685281e+02 0.0000000000000000e+00 0.0000000000000000e+00 0.0000000000000000e+00 0.0000000000000000e+00  2.1975236249488911e-02 -1.5991234392763221e-01 0.0000000000000000e+00 -1.5991234392763237e-01 1.4078148462912695e+03 0.0000000000000000e+00 0.0000000000000000e+00 0