<?xml version="1.0"?>
<VTKFile type="UnstructuredGrid"  version="0.1"  >
<UnstructuredGrid>
<Piece  NumberOfPoints="2165" NumberOfCells="4161">
<Points>
<DataArray  type="Float64"  NumberOfComponents="3"  format="ascii">-3.598637933768527e-16 0.3500000000000001 0  0.05 0.4 0  -3.537405593811159e-16 0.45 0  0 1 0  1 1 0  0.9999999999999997 0.65 0  0.9999999999999997 0.5499999999999999 0  1 0 0  0 0 0  0.0191341716182545 0.3538060233744357 0  0.03535533905932737 0.3646446609406727 0  0.04619397662556433 0.3808658283817455 0  0.04619397662556434 0.4191341716182545 0  0.03535533905932738 0.4353553390593274 0  0.01913417161825449 0.4461939766255644 0  0 0.975 0  0 0.95 0  0 0.9249999999999999 0  0 0.8999999999999998 0  0 0.8749999999999998 0  0 0.8499999999999998 0  0 0.8249999999999997 0  0 0.7999999999999996 0  0 0.7749999999999996 0  0 0.7499999999999996 0  0 0.7249999999999996 0  0 0.6999999999999997 0  0 0.6749999999999998 0  0 0.6499999999999999 0  0 0.6249999999999999 0  0 0.6 0  0 0.575 0  0 0.5499999999999998 0  0 0.5249999999999999 0  0 0.4999999999999998 0  0 0.4749999999999999 0  0.975 1 0  0.95 1 0  0.925 1 0  0.9 1 0  0.875 1 0  0.85 1 0  0.825 1 0  0.8 1 0  0.775 1 0  0.75 1 0  0.725 1 0  0.7 1 0  0.675 1 0  0.65 1 0  0.625 1 0  0.6 1 0  0.575 1 0  0.55 1 0  0.525 1 0  0.5 1 0  0.475 1 0  0.45 1 0  0.425 1 0  0.4 1 0  0.375 1 0  0.35 1 0  0.325 1 0  0.3 1 0  0.275 1 0  0.25 1 0  0.225 1 0  0.2 1 0  0.175 1 0  0.15 1 0  0.125 1 0  0.09999999999999998 1 0  0.07499999999999996 1 0  0.05000000000000004 1 0  0.02500000000000002 1 0  1 0.675 0  1 0.7000000000000001 0  1 0.7250000000000001 0  1 0.7500000000000001 0  1 0.7750000000000001 0  1 0.8000000000000002 0  1 0.8250000000000002 0  1 0.8500000000000002 0  1 0.8750000000000003 0  1 0.9000000000000001 0  1 0.9250000000000002 0  1 0.9500000000000001 0  1 0.9750000000000001 0  0.9783058130441221 0.6450484433951209 0  0.9609084258765985 0.6311744900929367 0  0.9512536043909088 0.6111260466978157 0  0.9512536043909088 0.5888739533021843 0  0.9609084258765985 0.5688255099070633 0  0.9783058130441221 0.554951556604879 0  1 0.02500000000000002 0  1 0.05000000000000004 0  1 0.07500000000000008 0  1 0.1000000000000001 0  1 0.1250000000000001 0  1 0.1500000000000002 0  1 0.1750000000000002 0  1 0.2000000000000003 0  1 0.2250000000000003 0  1 0.2500000000000004 0  1 0.2750000000000004 0  1 0.3000000000000003 0  1 0.3250000000000002 0  1 0.3500000000000001 0  1 0.3750000000000001 0  1 0.3999999999999999 0  1 0.425 0  1 0.45 0  1 0.475 0  1 0.5000000000000001 0  1 0.5249999999999999 0  0.025 0 0  0.05 0 0  0.075 0 0  0.1 0 0  0.125 0 0  0.15 0 0  0.175 0 0  0.2 0 0  0.225 0 0  0.25 0 0  0.275 0 0  0.3 0 0  0.325 0 0  0.35 0 0  0.375 0 0  0.4 0 0  0.425 0 0  0.45 0 0  0.475 0 0  0.5 0 0  0.525 0 0  0.55 0 0  0.575 0 0  0.6 0 0  0.625 0 0  0.65 0 0  0.675 0 0  0.7 0 0  0.725 0 0  0.75 0 0  0.775 0 0  0.8 0 0  0.825 0 0  0.85 0 0  0.875 0 0  0.9 0 0  0.925 0 0  0.95 0 0  0.975 0 0  0 0.3250000000000001 0  0 0.3 0  0 0.275 0  0 0.2499999999999999 0  0 0.2249999999999999 0  0 0.1999999999999998 0  0 0.1749999999999998 0  0 0.1499999999999998 0  0 0.1249999999999998 0  0 0.09999999999999987 0  0 0.07499999999999984 0  0 0.04999999999999993 0  0 0.02500000000000002 0  0.06453325334544308 0.4134708543086404 0  0.5146839915088474 0.02134387884913819 0  0.4875871001393628 0.9784117024331356 0  0.9386300160094723 0.5701776715936071 0  0.0216506350946109 0.6124999999999999 0  0.9764205887290853 0.3596067946540696 0  0.3876261045932067 0.02156097490657183 0  0.6125 0.978349364905389 0  0.3612127461797463 0.9792371404802113 0  0.6374786650398092 0.02079982608537345 0  0.9387185538472446 0.6295115890709873 0  0.05482260092545593 0.3633687091864355 0  0.02445354803948679 0.7343198207875321 0  0.2624888813627476 0.02091671348578122 0  0.7375212991274043 0.9794996488945376 0  0.9793010831723812 0.2648509348664836 0  0.2625026480689301 0.9795699185263282 0  0.7362840788105066 0.02225211062275217 0  0.02159327910297104 0.2128861809896528 0  0.9786837570973538 0.7867241244631172 0  0.02419728000065929 0.8365600234152764 0  0.980043283615984 0.1624097203408714 0  0.1645857434226354 0.0205513501962844 0  0.8339481359352011 0.9784483546369231 0  0.1637584777222821 0.9774556328160621 0  0.8374916614314967 0.02165097219510076 0  0.02171915379676059 0.5370700005916152 0  0.9795335762511281 0.4365726939225819 0  0.02319480745007968 0.1370197632171214 0  0.9774462976085161 0.8592616917551974 0  0.9786941241076723 0.7122511101067891 0  0.9797883857882621 0.08781864217752949 0  0.01966314788989931 0.9125801876811624 0  0.02051815350151098 0.2882126194470174 0  0.09063226699593246 0.0214884092697174 0  0.9124408843562394 0.9818463395009377 0  0.03872465516591678 0.452731089005145 0  0.08969424365256845 0.978412979507602 0  0.9124999999999999 0.02165063509461096 0  0.02158104789437187 0.6619299176372371 0  0.9796602354625652 0.4859004208706154 0  0.3127517983598529 0.02417963694738812 0  0.4375629605000894 0.02158039900821679 0  0.5643674594196073 0.01968996000301126 0  0.5368361594956101 0.9790428840407062 0  0.4376176251051295 0.9783667484208922 0  0.6874072695660477 0.978435143102373 0  0.310604317388614 0.979558305560928 0  0.2125577044121564 0.02066685543111635 0  0.6875 0.0216506350946109 0  0.02224009810917643 0.08811420611559456 0  0.790876428529276 0.978633065284896 0  0.2125 0.978349364905389 0  0.9788033534786624 0.2116925349935155 0  0.9769441169344462 0.3150381335760689 0  0.9804648376981185 0.9123186437266726 0  0.7874999988222203 0.02127957051165741 0  0.02109233852270731 0.786866823287435 0  0.9483709287873718 0.5504073206521916 0  0.9259842326464427 0.5519702047534598 0  0.9163209045278007 0.5719292915927929 0  0.9035374059862284 0.5537291796040291 0  0.8938951918780048 0.5738949757882954 0  0.8807940177559743 0.5546750869516996 0  0.8712661812741653 0.5757142549099102 0  0.8580668865514332 0.5563902430113601 0  0.848508161986991 0.5779004013072002 0  0.8354274200119249 0.5591176379057713 0  0.8256349826905482 0.5800610629400762 0  0.8124123591208572 0.5604454546391737 0  0.802603410938817 0.5819653950592523 0  0.7892876429890218 0.562234610648543 0  0.7794355871850538 0.583896242519796 0  0.7661469824381839 0.5648243426306435 0  0.7562387679604726 0.5860005456930413 0  0.7429651600512166 0.5669367633461588 0  0.7330846968880171 0.5879590907760761 0  0.7198577999459205 0.5688986880627463 0  0.7297050500533544 0.5479561801187277 0  0.7066243396993471 0.5499068108517552 0  0.6968285086900206 0.5707989520567972 0  0.6836266810714333 0.5519088927359967 0  0.6738604685766018 0.5727655091567184 0  0.6607284761452521 0.5538781923028128 0  0.6697149783704412 0.5321140554135094 0  0.6473436039782401 0.5350050604671006 0  0.6378867365666199 0.5557804038095817 0  0.6246915360243652 0.5362124690568238 0  0.6151175309583405 0.5575933164645619 0  0.6019784180102355 0.5380659376543677 0  0.5924099113505394 0.5593739656462906 0  0.5794110962027638 0.541110021814312 0  0.5697985396917309 0.5614600003719357 0  0.5568468707330213 0.5433212932327446 0  0.5472634011377896 0.5635652141280936 0  0.5343236363495072 0.5451361960661517 0  0.5247877773262166 0.565493591892781 0  0.5118927934227436 0.5470665328397559 0  0.5023398230005425 0.5674381114577953 0  0.5213991904098014 0.5267047787870831 0  0.4990390504096661 0.528649139287786 0  0.6328887517229864 0.5131744321062524 0  0.5085133205790763 0.5083322037773296 0  0.4861972978925295 0.5102540920324363 0  0.4956914791804768 0.4899605513008993 0  0.4734139980312694 0.4918582759645476 0  0.4826986629698439 0.4717164019717278 0  0.460570567761715 0.473509155475794 0  0.4699344541058981 0.4533140529328089 0  0.4477087341565655 0.4550973130597117 0  0.4381733274019614 0.4752901381741884 0  0.4570222843287571 0.4349938694701042 0  0.4348599018247688 0.436728068420533 0  0.5604623134382263 0.581815997002507 0  0.4443612964408632 0.416499823314016 0  0.422056299386984 0.4183730429856528 0  0.4688721528228815 0.4135009841763965 0  0.4315584877924544 0.398120546824229 0  0.4092288692044618 0.3999974286008185 0  0.7463210599443056 0.6070829843371945 0  0.4187270626688335 0.3797365044773463 0  0.3964262302393312 0.3817184136470017 0  0.3869780036193907 0.4018498778543814 0  0.3742423843122406 0.3837055716372927 0  0.3648701490102072 0.4037049758807119 0  0.3518115403926748 0.3858985036587403 0  0.3426146276710081 0.4056777495658291 0  0.3614541441355358 0.3656396497906528 0  0.339026673715919 0.3678724679736439 0  0.3485566370135618 0.3476560889674916 0  0.3264681821394378 0.3496422822523857 0  0.8219942777991693 0.5379143061758643 0  0.3358297439968608 0.3295117748868035 0  0.3137050884585635 0.3314921667582986 0  0.3229980644152205 0.3113561769498422 0  0.3007986024336577 0.3133063832007756 0  0.3441851868720173 0.3085211458266175 0  0.3101966551534752 0.2930273704914169 0  0.287793053707373 0.2950088132226583 0  0.2914417217227097 0.3337427541189321 0  0.2975120686695638 0.2743682539701985 0  0.274864585256681 0.2764253296978281 0  0.816026571618698 0.6006851919544112 0  0.2844672854128698 0.2557011565880619 0  0.2617267434509338 0.2577713002235077 0  0.3072711221189672 0.2536790056475094 0  0.2521588568690318 0.2785072139143895 0  0.2389277409161178 0.2598761196336353 0  0.248448076747058 0.2389478879785275 0  0.5053822153261678 0.4716915524631118 0  0.229548765875869 0.2806542761043101 0  0.2254561407802683 0.2411354049374563 0  0.2350621310805047 0.2199181955146378 0  0.2117782450160163 0.222165061041625 0  0.2214249125635323 0.2008136877065064 0  0.2448758256083499 0.1985732693215908 0  0.197966291680556 0.2031211006951591 0  0.1883147493074436 0.2245564097761413 0  0.8910637266939049 0.5322898364209732 0  0.1748136087708587 0.2051141748992724 0  0.1842088801696792 0.1837087814679069 0  0.1656574100807746 0.2269812054689968 0  0.3554582346764377 0.4236292557112198 0  0.3328979939923831 0.425459320867588 0  0.3460368767112177 0.4435398346083328 0  0.3238464003
[...]
<PointData  Tensors="$\sigma$"> 
<DataArray  type="Float64"  Name="$\sigma$"  NumberOfComponents="9" format="ascii">-1.4031573623920261e+02 -2.0360363296569881e+02 0.0000000000000000e+00 -2.0360363296569875e+02 -4.8401683771573431e+02 0.0000000000000000e+00 0.0000000000000000e+00 0.0000000000000000e+00 0.0000000000000000e+00  6.4941535212792428e+02 2.1577456798585015e+01 0.0000000000000000e+00 2.1577456798584894e+01 9.6125171337006959e+03 0.0000000000000000e+00 0.0000000000000000e+00 0.0000000000000000e+00 0.0000000000000000e+00  -1.1623110496338008e+02 2.4086776713827678e+02 0.0000000000000000e+00 2.4086776713827695e+02 -5.0450707551626658e+02 0.0000000000000000e+00 0.0000000000000000e+00 0.0000000000000000e+00 0.0000000000000000e+00  4.6423617976602903e-02 3.8202054791782813e-01 0.0000000000000000e+00 3.8202054791782791e-01 3.0476680167430600e+03 0.0000000000000000e+00 0.0000000000000000e+00 0.0000000000000000e+00 0.0000000000000000e+00  5.0396003543105861e-01 -3.1726285157107584e-02 0.0000000000000000e+00 -3.1726285157107494e-02 2.9559440648279615e+03 0.0000000000000000e+00 0.0000000000000000e+00 0.0000000000000000e+00 0.0000000000000000e+00  -1.5766820105248183e+02 -2.2688142146080480e+02 0.0000000000000000e+00 -2.2688142146080466e+02 -5.7737448435255615e+01 0.0000000000000000e+00 0.0000000000000000e+00 0.0000000000000000e+00 0.0000000000000000e+00  9.9556385792389236e+01 -5.8855430362110134e+01 0.0000000000000000e+00 -5.8855430362110077e+01 8.2643208279248100e+01 0.0000000000000000e+00 0.0000000000000000e+00 0.0000000000000000e+00 0.0000000000000000e+00  -8.7519966777742694e-02 6.6265495707730743e-02 0.0000000000000000e+00 6.6265495707731450e-02 3.0488136005489041e+03 0.0000000000000000e+00 0.0000000000000000e+00 0.0000000000000000e+00 0.0000000000000000e+00  8.7429571496160759e+02 3.6242812590751839e+02 0.0000000000000000e+00 3.6242812590751845e+02 3.1942908708115247e+03 0.0000000000000000e+00 0.0000000000000000e+00 0.0000000000000000e+00 0.0000000000000000e+00  4.9050627083483641e+02 4.3524801818451886e+02 0.0000000000000000e+00 4.3524801818451886e+02 3.9622112685402629e+02 0.0000000000000000e+00 0.0000000000000000e+00 0.0000000000000000e+00 0.0000000000000000e+00  1.6096282258193296e+03 1.9020887030526203e+03 0.0000000000000000e+00 1.9020887030526203e+03 2.5792265654064136e+03 0.0000000000000000e+00 0.0000000000000000e+00 0.0000000000000000e+00 0.0000000000000000e+00  1.3206818670865289e+03 2.3170059103448039e+03 0.0000000000000000e+00 2.3170059103448034e+03 7.2448201863100330e+03 0.0000000000000000e+00 0.0000000000000000e+00 0.0000000000000000e+00 0.0000000000000000e+00  1.3025578034964005e+03 -2.3386954496831436e+03 0.0000000000000000e+00 -2.3386954496831440e+03 7.2194840662203433e+03 0.0000000000000000e+00 0.0000000000000000e+00 0.0000000000000000e+00 0.0000000000000000e+00  1.5956173572187383e+03 -1.8663914426398755e+03 0.0000000000000000e+00 -1.8663914426398765e+03 2.7386338765853407e+03 0.0000000000000000e+00 0.0000000000000000e+00 0.0000000000000000e+00 0.0000000000000000e+00  4.7484042322096855e+02 -4.6846074715953642e+02 0.0000000000000000e+00 -4.6846074715953728e+02 3.8342434633913052e+02 0.0000000000000000e+00 0.0000000000000000e+00 0.0000000000000000e+00 0.0000000000000000e+00  7.9610186289645283e-03 -1.2973481234695955e-01 0.0000000000000000e+00 -1.2973481234695847e-01 3.0463225557856440e+03 0.0000000000000000e+00 0.0000000000000000e+00 0.0000000000000000e+00 0.0000000000000000e+00  1.2612622698878471e-02 -4.6999389838131411e-01 0.0000000000000000e+00 -4.6999389838131084e-01 3.0440566912461491e+03 0.0000000000000000e+00 0.0000000000000000e+00 0.0000000000000000e+00 0.0000000000000000e+00  2.2213575104473901e-01 -4.8598564774170971e-01 0.0000000000000000e+00 -4.8598564774170844e-01 3.0401315747925778e+03 0.0000000000000000e+00 0.0000000000000000e+00 0.0000000000000000e+00 0.0000000000000000e+00  -1.7134995857281418e-01 -4.4179308549691737e-01 0.0000000000000000e+00 -4.4179308549691843e-01 3.0341496561928407e+03 0.0000000000000000e+00 0.0000000000000000e+00 0.0000000000000000e+00 0.0000000000000000e+00  1.3337867114077456e-01 -7.8929511324938384e-01 0.0000000000000000e+00 -7.8929511324938528e-01 3.0261387673751283e+03 0.0000000000000000e+00 0.0000000000000000e+00 0.0000000000000000e+00 0.0000000000000000e+00  5.2627127303012688e-01 -1.5102506532274045e+00 0.0000000000000000e+00 -1.5102506532274027e+00 3.0175608867461447e+03 0.0000000000000000e+00 0.0000000000000000e+00 0.0000000000000000e+00 0.0000000000000000e+00  -7.9098066846588641e-02 -1.1958440443913794e+00 0.0000000000000000e+00 -1.1958440443913774e+00 3.0025125910423080e+03 0.0000000000000000e+00 0.0000000000000000e+00 0.0000000000000000e+00 0.0000000000000000e+00  -1.0741057970612216e-02 -1.7671088152957892e+00 0.0000000000000000e+00 -1.7671088152957892e+00 2.9882557720785708e+03 0.0000000000000000e+00 0.0000000000000000e+00 0.0000000000000000e+00 0.0000000000000000e+00  6.9164539840028694e-01 -2.4264600390762117e+00 0.0000000000000000e+00 -2.4264600390762117e+00 2.9697775251528819e+03 0.0000000000000000e+00 0.0000000000000000e+00 0.0000000000000000e+00 0.0000000000000000e+00  6.8739561540778016e-01 -2.9347414433173546e+00 0.0000000000000000e+00 -2.9347414433173529e+00 2.9482487593317137e+03 0.0000000000000000e+00 0.0000000000000000e+00 0.0000000000000000e+00 0.0000000000000000e+00  3.2390494922476815e-01 -3.8144109892444464e+00 0.0000000000000000e+00 -3.8144109892444331e+00 2.9095558664790324e+03 0.0000000000000000e+00 0.0000000000000000e+00 0.0000000000000000e+00 0.0000000000000000e+00  2.9292124535224567e-01 -6.3153828881374992e+00 0.0000000000000000e+00 -6.3153828881374903e+00 2.8849437727797654e+03 0.0000000000000000e+00 0.0000000000000000e+00 0.0000000000000000e+00 0.0000000000000000e+00  6.1754334507797867e-02 -4.8239800532830808e+00 0.0000000000000000e+00 -4.8239800532830941e+00 2.8269378864729583e+03 0.0000000000000000e+00 0.0000000000000000e+00 0.0000000000000000e+00 0.0000000000000000e+00  1.2900873142096256e+00 -7.2742294100516345e+00 0.0000000000000000e+00 -7.2742294100516443e+00 2.7728646151883599e+03 0.0000000000000000e+00 0.0000000000000000e+00 0.0000000000000000e+00 0.0000000000000000e+00  3.4865907824449449e+00 -4.2735764590046701e+00 0.0000000000000000e+00 -4.2735764590047198e+00 2.6858692253441363e+03 0.0000000000000000e+00 0.0000000000000000e+00 0.0000000000000000e+00 0.0000000000000000e+00  -1.9386142500973518e+00 -9.6727059439164158e+00 0.0000000000000000e+00 -9.6727059439163554e+00 2.5781685897541674e+03 0.0000000000000000e+00 0.0000000000000000e+00 0.0000000000000000e+00 0.0000000000000000e+00  1.1165426845410416e+01 -2.7194594533413685e+01 0.0000000000000000e+00 -2.7194594533413714e+01 2.4067076976175658e+03 0.0000000000000000e+00 0.0000000000000000e+00 0.0000000000000000e+00 0.0000000000000000e+00  -5.0269903616719542e+00 -2.0855292988505106e+01 0.0000000000000000e+00 -2.0855292988505052e+01 2.1726613987266305e+03 0.0000000000000000e+00 0.0000000000000000e+00 0.0000000000000000e+00 0.0000000000000000e+00  1.3063662620163541e+01 -8.0072334314341518e+01 0.0000000000000000e+00 -8.0072334314341674e+01 1.7900574864499176e+03 0.0000000000000000e+00 0.0000000000000000e+00 0.0000000000000000e+00 0.0000000000000000e+00  -2.9269547716867120e+01 -9.4788258892008557e+01 0.0000000000000000e+00 -9.4788258892008415e+01 1.2115555384968020e+03 0.0000000000000000e+00 0.0000000000000000e+00 0.0000000000000000e+00 0.0000000000000000e+00  1.0023880544260783e+02 -1.1004693058232476e+02 0.0000000000000000e+00 -1.1004693058232451e+02 4.4353417077488990e+02 0.0000000000000000e+00 0.0000000000000000e+00 0.0000000000000000e+00 0.0000000000000000e+00  -2.4311096479923120e+00 1.3212659050557918e-01 0.0000000000000000e+00 1.3212659050557626e-01 2.9624943557440520e+03 0.0000000000000000e+00 0.0000000000000000e+00 0.0000000000000000e+00 0.0000000000000000e+00  -1.2627469365411123e+01 9.6956917015808983e-02 0.0000000000000000e+00 9.6956917015811703e-02 2.9819216535831229e+03 0.0000000000000000e+00 0.0000000000000000e+00 0.0000000000000000e+00 0.0000000000000000e+00  -2.7833976600655657e+01 8.1089394469650788e-01 0.0000000000000000e+00 8.1089394469651199e-01 3.0110193429857613e+03 0.0000000000000000e+00 0.0000000000000000e+00 0.0000000000000000e+00 0.0000000000000000e+00  -4.5881031198898413e+01 2.3047610167066440e-01 0.0000000000000000e+00 2.3047610167067370e-01 3.0443080104311839e+03 0.0000000000000000e+00 0.0000000000000000e+00 0.0000000000000000e+00 0.0000000000000000e+00  -6.1278280578379224e+01 1.2838596974646808e+00 0.0000000000000000e+00 1.2838596974646868e+00 3.0856552009365560e+03 0.0000000000000000e+00 0.0000000000000000e+00 0.0000000000000000e+00 0.0000000000000000e+00  -7.7271023207561271e+01 -3.2081022842987472e-02 0.0000000000000000e+00 -3.2081022842980540e-02 3.1257256041027267e+03 0.0000000000000000e+00 0.0000000000000000e+00 0.0000000000000000e+00 0.0000000000000000e+00  -9.3069967887636736e+01 -2.8027956494507841e-02 0.0000000000000000e+00 -2.8027956494506932e-02 3.1598738624236717e+03 0.0000000000000000e+00 0.0000000000000000e+00 0.0000000000000000e+00 0.0000000000000000e+00  -1.0058611096335270e+02 -2.8514044028945340e-01 0.0000000000000000e+00 -2.8514044028945268e-01 3.1972376164542470e+03 0.0000000000000000e+00 0.0000000000000000e+00 0.0000000000000000e+00 0.0000000000000000e+00  -1.0815921256016235e+02 1.1851495088711618e-01 0.0000000000000000e+00 1.1851495088711279e-01 3.2206853306708076e+03 0.0000000000000000e+00 0.0000000000000000e+00 0.0000000000000000e+00 0.0000000000000000e+00  -1.1277046096291383e+02 -3.7270010647674090e-01 0.0000000000000000e+00 -3.7270010647674040e-01 3.2437457801254086e+03 0.0000000000000000e+00 0.0000000000000000e+00 0.0000000000000000e+00 0.0000000000000000e+00  -1.1350219617381522e+02 -3.9989595839138586e-01 0.0000000000000000e+00 -3.9989595839138520e-01 3.2613394470605708e+03 0.0000000000000000e+00 0.0000000000000000e+00 0.0000000000000000e+00 0.0000000000000000e+00  -1.1229562179603805e+02 -5.5720977202828004e-01 0.0000000000000000e+00 -5.5720977202828115e-01 3.2732727209487921e+03 0.0000000000000000e+00 0.0000000000000000e+00 0.0000000000000000e+00 0.0000000000000000e+00  -1.0956699278838329e+02 -3.7798429423948821e-01 0.0000000000000000e+00 -3.7798429423948854e-01 3.2818273495955332e+03 0.0000000000000000e+00 0.0000000000000000e+00 0.0000000000000000e+00 0.0000000000000000e+00  -1.0605225724297402e+02 -3.2111878480228306e-01 0.0000000000000000e+00 -3.2111878480228701e-01 3.2871398798940877e+03 0.0000000000000000e+00 0.0000000000000000e+00 0.0000000000000000e+00 0.0000000000000000e+00  -1.0155166716854042e+02 -3.4801116364734280e-01 0.0000000000000000e+00 -3.4801116364734241e-01 3.2893210834749275e+03 0.0000000000000000e+00 0.0000000000000000e+00 0.0000000000000000e+00 0.0000000000000000e+00  -9.6976195278407658e+01 -3.7830311011296835e-01 0.0000000000000000e+00 -3.7830311011296858e-01 3.2894575335521918e+03 0.0000000000000000e+00 0.0000000000000000e+00 0.0000000000000000e+00 0.0000000000000000e+00  -9.2487288885225340e+01 -2.6344728940799916e-01 0.0000000000000000e+00 -2.6344728940799800e-01 3.2875856049861291e+03 0.0000000000000000e+00 0.0000000000000000e+00 0.0000000000000000e+00 0.0000000000000000e+00  -8.8174914873216693e+01 -2.6229501235008562e-01 0.0000000000000000e+00 -2.6229501235008723e-01 3.2844814716691135e+03 0.0000000000000000e+00 0.0000000000000000e+00 0.0000000000000000e+00 0.0000000000000000e+00  -8.4155051507602096e+01 -1.5990659015152947e-01 0.0000000000000000e+00 -1.5990659015153094e-01 3.2801244835536368e+03 0.0000000000000000e+00 0.0000000000000000e+00 0.0000000000000000e+00 0.0000000000000000e+00  -8.0433049564678399e+01 -1.1941664154636800e-01 0.0000000000000000e+00 -1.1941664154636744e-01 3.2745943619495179e+03 0.0000000000000000e+00 0.0000000000000000e+00 0.0000000000000000e+00 0.0000000000000000e+00  -7.7098748305303104e+01 -6.8798598597256302e-02 0.0000000000000000e+00 -6.8798598597257274e-02 3.2682503513040710e+03 0.0000000000000000e+00 0.0000000000000000e+00 0.0000000000000000e+00 0.0000000000000000e+00  -7.3847225369430348e+01 -3.4449468715984935e-02 0.0000000000000000e+00 -3.4449468715985712e-02 3.2610681855704688e+03 0.0000000000000000e+00 0.0000000000000000e+00 0.0000000000000000e+00 0.0000000000000000e+00  -7.0984209759582981e+01 -1.1147962258077847e-03 0.0000000000000000e+00 -1.1147962258073840e-03 3.2528808951821256e+03 0.0000000000000000e+00 0.0000000000000000e+00 0.0000000000000000e+00 0.0000000000000000e+00  -6.7854064331754572e+01 -2.8202944744982306e-02 0.0000000000000000e+00 -2.8202944744981799e-02 3.2438442682679088e+03 0.0000000000000000e+00 0.0000000000000000e+00 0.0000000000000000e+00 0.0000000000000000e+00  -6.4974848000873976e+01 -3.9858281200039945e-02 0.0000000000000000e+00 -3.9858281200039251e-02 3.2340436497174487e+03 0.0000000000000000e+00 0.0000000000000000e+00 0.0000000000000000e+00 0.0000000000000000e+00  -6.1631128591321733e+01 5.0404895771292604e-02 0.0000000000000000e+00 5.0404895771293576e-02 3.2231347531653660e+03 0.0000000000000000e+00 0.0000000000000000e+00 0.0000000000000000e+00 0.0000000000000000e+00  -5.8093409708803492e+01 -5.1941831365487608e-03 0.0000000000000000e+00 -5.1941831365484052e-03 3.2109491165479567e+03 0.0000000000000000e+00 0.0000000000000000e+00 0.0000000000000000e+00 0.0000000000000000e+00  -5.4229469417638931e+01 5.9654028075572914e-02 0.0000000000000000e+00 5.9654028075573552e-02 3.1981425541057702e+03 0.0000000000000000e+00 0.0000000000000000e+00 0.0000000000000000e+00 0.0000000000000000e+00  -4.9738971162519292e+01 9.2718803398984764e-02 0.0000000000000000e+00 9.2718803398984043e-02 3.1846028007668815e+03 0.0000000000000000e+00 0.0000000000000000e+00 0.0000000000000000e+00 0.0000000000000000e+00  -4.5135173436373002e+01 6.9036024806289446e-03 0.0000000000000000e+00 6.9036024806288067e-03 3.1694565054172849e+03 0.0000000000000000e+00 0.0000000000000000e+00 0.0000000000000000e+00 0.0000000000000000e+00  -3.9560047799960621e+01 -3.0405618203452365e-02 0.0000000000000000e+00 -3.0405618203452774e-02 3.1545714987964307e+03 0.0000000000000000e+00 0.0000000000000000e+00 0.0000000000000000e+00 0.0000000000000000e+00  -3.4268145192656434e+01 -1.0010370754613175e-01 0.0000000000000000e+00 -1.0010370754612911e-01 3.1383885800342850e+03 0.0000000000000000e+00 0.0000000000000000e+00 0.0000000000000000e+00 0.0000000000000000e+00  -2.8055022263831098e+01 -5.3604374717035309e-02 0.0000000000000000e+00 -5.3604374717039827e-02 3.1226296755317176e+03 0.0000000000000000e+00 0.0000000000000000e+00 0.0000000000000000e+00 0.0000000000000000e+00  -2.2092562290562068e+01 -1.5503329155121809e-01 0.0000000000000000e+00 -1.5503329155121820e-01 3.1079285787615358e+03 0.0000000000000000e+00 0.0000000000000000e+00 0.0000000000000000e+00 0.0000000000000000e+00  -1.6236312260269209e+01 -5.6437137432117521e-02 0.0000000000000000e+00 -5.6437137432117077e-02 3.0933405742261211e+03 0.0000000000000000e+00 0.0000000000000000e+00 0.0000000000000000e+00 0.0000000000000000e+00  -1.0926990646416245e+01 -1.7711069083800234e-02 0.0000000000000000e+00 -1.7711069083798218e-02 3.0794842918487525e+03 0.0000000000000000e+00 0.0000000000000000e+00 0.0000000000000000e+00 0.0000000000000000e+00  -6.4053396555807414e+00 -5.5493701915535487e-02 0.0000000000000000e+00 -5.5493701915533239e-02 3.0678265053722557e+03 0.0000000000000000e+00 0.0000000000000000e+00 0.0000000000000000e+00 0.0000000000000000e+00  -2.9168745436480177e+00 3.6230313951983853e-02 0.0000000000000000e+00 3.6230313951985386e-02 3.0580594721414359e+03 0.0000000000000000e+00 0.0000000000000000e+00 0.0000000000000000e+00 0.0000000000000000e+00  -4.1351695844717062e-01 9.7673854234228530e-02 0.0000000000000000e+00 9.7673854234227614e-02 3.0513552539949956e+03 0.0000000000000000e+00 0.0000000000000000e+00 0.0000000000000000e+00 0.0000000000000000e+00  1.0321621403488716e+02 5.7881875163950205e+01 0.0000000000000000e+00 5.7881875163950760e+01 3.5845918308724566e+02 0.0000000000000000e+00 0.0000000000000000e+00 0.0000000000000000e+00 0.0000000000000000e+00  4.9516398677222696e+01 7.8780951477505425e+01 0.0000000000000000e+00 7.8780951477505411e+01 1.2675469156995646e+03 0.0000000000000000e+00 0.0000000000000000e+00 0.0000000000000000e+00 0.0000000000000000e+00  -8.1189287718036809e+00 2.8942366614322957e+01 0.0000000000000000e+00 2.8942366614322982e+01 1.8060582932717577e+03 0.0000000000000000e+00 0.0000000000000000e+00 0.0000000000000000e+00 0.0000000000000000e+00  2.8181723024964395e+01 3.3958032248792186e+01 0.0000000000000000e+00 3.3958032248792378e+01 2.2216778479831705e+03 0.0000000000000000e+00 0.0000000000000000e+00 0.0000000000000000e+00 0.0000000000000000e+00  -3.5572417056423253e+00 3.5741518755463026e+00 0.0000000000000000e+00 3.5741518755464128e+00 2.4361746002331261e+03 0.0000000000000000e+00 0.0000000000000000e+00 0.0000000000000000e+00 0.0000000000000000e+00  9.9757342424412254e+00 1.3176254240157837e+01 0.0000000000000000e+00 1.3176254240157830e+01 2.6045107876300349e+03 0.0000000000000000e+00 0.0000000000000000e+00 0.0000000000000000e+00 0.0000000000000000e+00  -1.1639635720632870e+00 9.7888031842159364e+00 0.0000000000000000e+00 9.7888031842159133e+00 2.7189671192163760e+03 0.0000000000000000e+00 0.0000000000000000e+00 0.0000000000000000e+00 0.0000000000000000e+00  3.2610462540379459e-01 8.8487941529446417e+00 0.0000000000000000e+00 8.8487941529446079e+00 2.7840386453346650e+03 0.0000000000000000e+00 0.0000000000000000e+00 0.0000000000000000e+00 0.0000000000000000e+00  1.1676145787436143e+00 5.1638985771690304e+00 0.0000000000000000e+00 5.1638985771690455e+00 2.8534700119016693e+03 0.0000000000000000e+00 0.0000000000000000e+00 0.0000000000000000e+00 0.0000000000000000e+00  1.5039882911143301e+00 4.0297364797095998e+00 0.0000000000000000e+00 4.0297364797096078e+00 2.8931666718593274e+03 0.0000000000000000e+00 0.0000000000000000e+00 0.0000000000000000e+00 0.0000000000000000e+00  -8.6289163674573821e-01 5.8146144663050969e-01 0.0000000000000000e+00 5.8146144663051158e-01 2.9232007894660801e+03 0.0000000000000000e+00 0.0000000000000000e+00 0.0000000000000000e+00 0.0000000000000000e+00  1.5610174438154079e+00 1.5242322171705500e+00 0.0000000000000000e+00 1.5242322171705545e+00 2.9402340603550133e+03 0.0000000000000000e+00 0.0000000000000000e+00 0.0000000000000000e+00 0.0000000000000000e+00  -3.6894534735067802e-01 4.4599046418722094e-01 0.0000000000000000e+00 4.4599046418722416e-01 2.9541491972770104e+03 0.0000000000000000e+00 0.0000000000000000e+00 0.0000000000000000e+00 0.0000000000000000e+00  6.5172764285319977e+02 5.7491020693429004e+02 0.0000000000000000e+00 5.7491020693429016e+02 4.3685902178925056e+02 0.0000000000000000e+00 0.0000000000000000e+00 0.0000000000000000e+00 0.0000000000000000e+00  1.8122376802405174e+03 2.3465196343014268e+03 0.0000000000000000e+00 2.3465196343014250e+03 4.1780993247473725e+03 0.0000000000000000e+00 0.0000000000000000e+00 0.0000000000000000e+00 0.0000000000000000e+00  7.2412609343623058e+02 1.6822412025456076e+03 0.0000000000000000e+00 1.6822412025456063e+03 8.6354911527690183e+03 0.0000000000000000e+00 0.0000000000000000e+00 0.0000000000000000e+00 0.0000000000000000e+00  1.2012431746525524e+03 -1.1233372147861321e+03 0.0000000000000000e+00 -1.1233372147861317e+03 8.1306501328079394e+03 0.0000000000000000e+00 0.0000000000000000e+00 0.0000000000000000e+00 0.0000000000000000e+00  1.2190190094066916e+03 -2.3809249673262452e+03 0.0000000000000000e+00 -2.3809249673262457e+03 4.2127621161301950e+03 0.0000000000000000e+00 0.0000000000000000e+00 0.0000000000000000e+00 0.0000000000000000e+00  6.4110354006479963e+02 -6.9104959327308029e+02 0.0000000000000000e+00 -6.9104959327308018e+02 6.5340989240149395e+02 0.0000000000000000e+00 0.0000000000000000e+00 0.0000000000000000e+00 0.0000000000000000e+00  4.3288225311912169e-02 -2.1756154175522951e-01 0.0000000000000000e+00 -2.1756154175522938e-01 3.0481528388174997e+03 0.0000000000000000e+00 0.0000000000000000e