<?xml version="1.0"?>
<VTKFile type="UnstructuredGrid"  version="0.1"  >
<UnstructuredGrid>
<Piece  NumberOfPoints="2165" NumberOfCells="4161">
<Points>
<DataArray  type="Float64"  NumberOfComponents="3"  format="ascii">-3.598637933768527e-16 0.3500000000000001 0  0.05 0.4 0  -3.537405593811159e-16 0.45 0  0 1 0  1 1 0  0.9999999999999997 0.65 0  0.9999999999999997 0.5499999999999999 0  1 0 0  0 0 0  0.0191341716182545 0.3538060233744357 0  0.03535533905932737 0.3646446609406727 0  0.04619397662556433 0.3808658283817455 0  0.04619397662556434 0.4191341716182545 0  0.03535533905932738 0.4353553390593274 0  0.01913417161825449 0.4461939766255644 0  0 0.975 0  0 0.95 0  0 0.9249999999999999 0  0 0.8999999999999998 0  0 0.8749999999999998 0  0 0.8499999999999998 0  0 0.8249999999999997 0  0 0.7999999999999996 0  0 0.7749999999999996 0  0 0.7499999999999996 0  0 0.7249999999999996 0  0 0.6999999999999997 0  0 0.6749999999999998 0  0 0.6499999999999999 0  0 0.6249999999999999 0  0 0.6 0  0 0.575 0  0 0.5499999999999998 0  0 0.5249999999999999 0  0 0.4999999999999998 0  0 0.4749999999999999 0  0.975 1 0  0.95 1 0  0.925 1 0  0.9 1 0  0.875 1 0  0.85 1 0  0.825 1 0  0.8 1 0  0.775 1 0  0.75 1 0  0.725 1 0  0.7 1 0  0.675 1 0  0.65 1 0  0.625 1 0  0.6 1 0  0.575 1 0  0.55 1 0  0.525 1 0  0.5 1 0  0.475 1 0  0.45 1 0  0.425 1 0  0.4 1 0  0.375 1 0  0.35 1 0  0.325 1 0  0.3 1 0  0.275 1 0  0.25 1 0  0.225 1 0  0.2 1 0  0.175 1 0  0.15 1 0  0.125 1 0  0.09999999999999998 1 0  0.07499999999999996 1 0  0.05000000000000004 1 0  0.02500000000000002 1 0  1 0.675 0  1 0.7000000000000001 0  1 0.7250000000000001 0  1 0.7500000000000001 0  1 0.7750000000000001 0  1 0.8000000000000002 0  1 0.8250000000000002 0  1 0.8500000000000002 0  1 0.8750000000000003 0  1 0.9000000000000001 0  1 0.9250000000000002 0  1 0.9500000000000001 0  1 0.9750000000000001 0  0.9783058130441221 0.6450484433951209 0  0.9609084258765985 0.6311744900929367 0  0.9512536043909088 0.6111260466978157 0  0.9512536043909088 0.5888739533021843 0  0.9609084258765985 0.5688255099070633 0  0.9783058130441221 0.554951556604879 0  1 0.02500000000000002 0  1 0.05000000000000004 0  1 0.07500000000000008 0  1 0.1000000000000001 0  1 0.1250000000000001 0  1 0.1500000000000002 0  1 0.1750000000000002 0  1 0.2000000000000003 0  1 0.2250000000000003 0  1 0.2500000000000004 0  1 0.2750000000000004 0  1 0.3000000000000003 0  1 0.3250000000000002 0  1 0.3500000000000001 0  1 0.3750000000000001 0  1 0.3999999999999999 0  1 0.425 0  1 0.45 0  1 0.475 0  1 0.5000000000000001 0  1 0.5249999999999999 0  0.025 0 0  0.05 0 0  0.075 0 0  0.1 0 0  0.125 0 0  0.15 0 0  0.175 0 0  0.2 0 0  0.225 0 0  0.25 0 0  0.275 0 0  0.3 0 0  0.325 0 0  0.35 0 0  0.375 0 0  0.4 0 0  0.425 0 0  0.45 0 0  0.475 0 0  0.5 0 0  0.525 0 0  0.55 0 0  0.575 0 0  0.6 0 0  0.625 0 0  0.65 0 0  0.675 0 0  0.7 0 0  0.725 0 0  0.75 0 0  0.775 0 0  0.8 0 0  0.825 0 0  0.85 0 0  0.875 0 0  0.9 0 0  0.925 0 0  0.95 0 0  0.975 0 0  0 0.3250000000000001 0  0 0.3 0  0 0.275 0  0 0.2499999999999999 0  0 0.2249999999999999 0  0 0.1999999999999998 0  0 0.1749999999999998 0  0 0.1499999999999998 0  0 0.1249999999999998 0  0 0.09999999999999987 0  0 0.07499999999999984 0  0 0.04999999999999993 0  0 0.02500000000000002 0  0.06453325334544308 0.4134708543086404 0  0.5146839915088474 0.02134387884913819 0  0.4875871001393628 0.9784117024331356 0  0.9386300160094723 0.5701776715936071 0  0.0216506350946109 0.6124999999999999 0  0.9764205887290853 0.3596067946540696 0  0.3876261045932067 0.02156097490657183 0  0.6125 0.978349364905389 0  0.3612127461797463 0.9792371404802113 0  0.6374786650398092 0.02079982608537345 0  0.9387185538472446 0.6295115890709873 0  0.05482260092545593 0.3633687091864355 0  0.02445354803948679 0.7343198207875321 0  0.2624888813627476 0.02091671348578122 0  0.7375212991274043 0.9794996488945376 0  0.9793010831723812 0.2648509348664836 0  0.2625026480689301 0.9795699185263282 0  0.7362840788105066 0.02225211062275217 0  0.02159327910297104 0.2128861809896528 0  0.9786837570973538 0.7867241244631172 0  0.02419728000065929 0.8365600234152764 0  0.980043283615984 0.1624097203408714 0  0.1645857434226354 0.0205513501962844 0  0.8339481359352011 0.9784483546369231 0  0.1637584777222821 0.9774556328160621 0  0.8374916614314967 0.02165097219510076 0  0.02171915379676059 0.5370700005916152 0  0.9795335762511281 0.4365726939225819 0  0.02319480745007968 0.1370197632171214 0  0.9774462976085161 0.8592616917551974 0  0.9786941241076723 0.7122511101067891 0  0.9797883857882621 0.08781864217752949 0  0.01966314788989931 0.9125801876811624 0  0.02051815350151098 0.2882126194470174 0  0.09063226699593246 0.0214884092697174 0  0.9124408843562394 0.9818463395009377 0  0.03872465516591678 0.452731089005145 0  0.08969424365256845 0.978412979507602 0  0.9124999999999999 0.02165063509461096 0  0.02158104789437187 0.6619299176372371 0  0.9796602354625652 0.4859004208706154 0  0.3127517983598529 0.02417963694738812 0  0.4375629605000894 0.02158039900821679 0  0.5643674594196073 0.01968996000301126 0  0.5368361594956101 0.9790428840407062 0  0.4376176251051295 0.9783667484208922 0  0.6874072695660477 0.978435143102373 0  0.310604317388614 0.979558305560928 0  0.2125577044121564 0.02066685543111635 0  0.6875 0.0216506350946109 0  0.02224009810917643 0.08811420611559456 0  0.790876428529276 0.978633065284896 0  0.2125 0.978349364905389 0  0.9788033534786624 0.2116925349935155 0  0.9769441169344462 0.3150381335760689 0  0.9804648376981185 0.9123186437266726 0  0.7874999988222203 0.02127957051165741 0  0.02109233852270731 0.786866823287435 0  0.9483709287873718 0.5504073206521916 0  0.9259842326464427 0.5519702047534598 0  0.9163209045278007 0.5719292915927929 0  0.9035374059862284 0.5537291796040291 0  0.8938951918780048 0.5738949757882954 0  0.8807940177559743 0.5546750869516996 0  0.8712661812741653 0.5757142549099102 0  0.8580668865514332 0.5563902430113601 0  0.848508161986991 0.5779004013072002 0  0.8354274200119249 0.5591176379057713 0  0.8256349826905482 0.5800610629400762 0  0.8124123591208572 0.5604454546391737 0  0.802603410938817 0.5819653950592523 0  0.7892876429890218 0.562234610648543 0  0.7794355871850538 0.583896242519796 0  0.7661469824381839 0.5648243426306435 0  0.7562387679604726 0.5860005456930413 0  0.7429651600512166 0.5669367633461588 0  0.7330846968880171 0.5879590907760761 0  0.7198577999459205 0.5688986880627463 0  0.7297050500533544 0.5479561801187277 0  0.7066243396993471 0.5499068108517552 0  0.6968285086900206 0.5707989520567972 0  0.6836266810714333 0.5519088927359967 0  0.6738604685766018 0.5727655091567184 0  0.6607284761452521 0.5538781923028128 0  0.6697149783704412 0.5321140554135094 0  0.6473436039782401 0.5350050604671006 0  0.6378867365666199 0.5557804038095817 0  0.6246915360243652 0.5362124690568238 0  0.6151175309583405 0.5575933164645619 0  0.6019784180102355 0.5380659376543677 0  0.5924099113505394 0.5593739656462906 0  0.5794110962027638 0.541110021814312 0  0.5697985396917309 0.5614600003719357 0  0.5568468707330213 0.5433212932327446 0  0.5472634011377896 0.5635652141280936 0  0.5343236363495072 0.5451361960661517 0  0.5247877773262166 0.565493591892781 0  0.5118927934227436 0.5470665328397559 0  0.5023398230005425 0.5674381114577953 0  0.5213991904098014 0.5267047787870831 0  0.4990390504096661 0.528649139287786 0  0.6328887517229864 0.5131744321062524 0  0.5085133205790763 0.5083322037773296 0  0.4861972978925295 0.5102540920324363 0  0.4956914791804768 0.4899605513008993 0  0.4734139980312694 0.4918582759645476 0  0.4826986629698439 0.4717164019717278 0  0.460570567761715 0.473509155475794 0  0.4699344541058981 0.4533140529328089 0  0.4477087341565655 0.4550973130597117 0  0.4381733274019614 0.4752901381741884 0  0.4570222843287571 0.4349938694701042 0  0.4348599018247688 0.436728068420533 0  0.5604623134382263 0.581815997002507 0  0.4443612964408632 0.416499823314016 0  0.422056299386984 0.4183730429856528 0  0.4688721528228815 0.4135009841763965 0  0.4315584877924544 0.398120546824229 0  0.4092288692044618 0.3999974286008185 0  0.7463210599443056 0.6070829843371945 0  0.4187270626688335 0.3797365044773463 0  0.3964262302393312 0.3817184136470017 0  0.3869780036193907 0.4018498778543814 0  0.3742423843122406 0.3837055716372927 0  0.3648701490102072 0.4037049758807119 0  0.3518115403926748 0.3858985036587403 0  0.3426146276710081 0.4056777495658291 0  0.3614541441355358 0.3656396497906528 0  0.339026673715919 0.3678724679736439 0  0.3485566370135618 0.3476560889674916 0  0.3264681821394378 0.3496422822523857 0  0.8219942777991693 0.5379143061758643 0  0.3358297439968608 0.3295117748868035 0  0.3137050884585635 0.3314921667582986 0  0.3229980644152205 0.3113561769498422 0  0.3007986024336577 0.3133063832007756 0  0.3441851868720173 0.3085211458266175 0  0.3101966551534752 0.2930273704914169 0  0.287793053707373 0.2950088132226583 0  0.2914417217227097 0.3337427541189321 0  0.2975120686695638 0.2743682539701985 0  0.274864585256681 0.2764253296978281 0  0.816026571618698 0.6006851919544112 0  0.2844672854128698 0.2557011565880619 0  0.2617267434509338 0.2577713002235077 0  0.3072711221189672 0.2536790056475094 0  0.2521588568690318 0.2785072139143895 0  0.2389277409161178 0.2598761196336353 0  0.248448076747058 0.2389478879785275 0  0.5053822153261678 0.4716915524631118 0  0.229548765875869 0.2806542761043101 0  0.2254561407802683 0.2411354049374563 0  0.2350621310805047 0.2199181955146378 0  0.2117782450160163 0.222165061041625 0  0.2214249125635323 0.2008136877065064 0  0.2448758256083499 0.1985732693215908 0  0.197966291680556 0.2031211006951591 0  0.1883147493074436 0.2245564097761413 0  0.8910637266939049 0.5322898364209732 0  0.1748136087708587 0.2051141748992724 0  0.1842088801696792 0.1837087814679069 0  0.1656574100807746 0.2269812054689968 0  0.3554582346764377 0.4236292557112198 0  0.3328979939923831 0.425459320867588 0  0.3460368767112177 0.4435398346083328 0  0.3238464003
[...]
<PointData  Tensors="$\sigma$"> 
<DataArray  type="Float64"  Name="$\sigma$"  NumberOfComponents="9" format="ascii">-3.8371168111336016e+02 -4.8676882019305100e+02 0.0000000000000000e+00 -4.8676882019305197e+02 -1.1475433183494536e+03 0.0000000000000000e+00 0.0000000000000000e+00 0.0000000000000000e+00 0.0000000000000000e+00  2.9371264698525833e+03 1.0325783925612290e+01 0.0000000000000000e+00 1.0325783925610239e+01 1.4659870715404879e+04 0.0000000000000000e+00 0.0000000000000000e+00 0.0000000000000000e+00 0.0000000000000000e+00  -2.9257480368968999e+02 6.0877336969037128e+02 0.0000000000000000e+00 6.0877336969037106e+02 -1.2066465875177598e+03 0.0000000000000000e+00 0.0000000000000000e+00 0.0000000000000000e+00 0.0000000000000000e+00  8.6244294498952934e-02 1.2025585590530090e+00 0.0000000000000000e+00 1.2025585590530090e+00 7.4329644215693734e+03 0.0000000000000000e+00 0.0000000000000000e+00 0.0000000000000000e+00 0.0000000000000000e+00  2.3546236652471846e+00 6.4561793392437353e-02 0.0000000000000000e+00 6.4561793392445860e-02 7.1890350404055134e+03 0.0000000000000000e+00 0.0000000000000000e+00 0.0000000000000000e+00 0.0000000000000000e+00  -4.3499740755425182e+02 -4.9572975983017784e+02 0.0000000000000000e+00 -4.9572975983017693e+02 -1.3032931043042473e+02 0.0000000000000000e+00 0.0000000000000000e+00 0.0000000000000000e+00 0.0000000000000000e+00  2.4102989974688600e+02 -1.9122507677656264e+02 0.0000000000000000e+00 -1.9122507677656213e+02 2.5591163093270927e+02 0.0000000000000000e+00 0.0000000000000000e+00 0.0000000000000000e+00 0.0000000000000000e+00  1.9893848652967591e-01 1.5942291172331910e-01 0.0000000000000000e+00 1.5942291172332138e-01 7.4445621300335597e+03 0.0000000000000000e+00 0.0000000000000000e+00 0.0000000000000000e+00 0.0000000000000000e+00  2.2023755487110707e+03 8.8672794170063412e+02 0.0000000000000000e+00 8.8672794170063503e+02 7.7851437444517478e+03 0.0000000000000000e+00 0.0000000000000000e+00 0.0000000000000000e+00 0.0000000000000000e+00  9.9095171086831249e+02 8.4507293915539196e+02 0.0000000000000000e+00 8.4507293915539447e+02 7.5311495746785613e+02 0.0000000000000000e+00 0.0000000000000000e+00 0.0000000000000000e+00 0.0000000000000000e+00  3.8679122921574135e+03 4.6363492173281738e+03 0.0000000000000000e+00 4.6363492173281738e+03 5.2261530474877081e+03 0.0000000000000000e+00 0.0000000000000000e+00 0.0000000000000000e+00 0.0000000000000000e+00  4.0428153558859831e+03 4.6634086306930531e+03 0.0000000000000000e+00 4.6634086306930531e+03 1.2694295335710302e+04 0.0000000000000000e+00 0.0000000000000000e+00 0.0000000000000000e+00 0.0000000000000000e+00  4.0761049890803120e+03 -4.6125873266545577e+03 0.0000000000000000e+00 -4.6125873266545550e+03 1.2756792040105480e+04 0.0000000000000000e+00 0.0000000000000000e+00 0.0000000000000000e+00 0.0000000000000000e+00  3.9115766087372112e+03 -4.5707192229107231e+03 0.0000000000000000e+00 -4.5707192229107286e+03 5.5217833106588178e+03 0.0000000000000000e+00 0.0000000000000000e+00 0.0000000000000000e+00 0.0000000000000000e+00  9.4161961255652432e+02 -9.6450280340561426e+02 0.0000000000000000e+00 -9.6450280340561676e+02 6.5760473374761102e+02 0.0000000000000000e+00 0.0000000000000000e+00 0.0000000000000000e+00 0.0000000000000000e+00  1.8360560150227076e-01 -3.1648760967218703e-01 0.0000000000000000e+00 -3.1648760967218836e-01 7.4295322335315432e+03 0.0000000000000000e+00 0.0000000000000000e+00 0.0000000000000000e+00 0.0000000000000000e+00  -9.0320011100905012e-02 -1.0365448566409794e+00 0.0000000000000000e+00 -1.0365448566409716e+00 7.4228400142073106e+03 0.0000000000000000e+00 0.0000000000000000e+00 0.0000000000000000e+00 0.0000000000000000e+00  7.7048268961045152e-01 -1.2246395494287725e+00 0.0000000000000000e+00 -1.2246395494287778e+00 7.4123654521243161e+03 0.0000000000000000e+00 0.0000000000000000e+00 0.0000000000000000e+00 0.0000000000000000e+00  -5.4337613654517547e-01 -8.7375455786867373e-01 0.0000000000000000e+00 -8.7375455786867540e-01 7.3959847197156905e+03 0.0000000000000000e+00 0.0000000000000000e+00 0.0000000000000000e+00 0.0000000000000000e+00  5.7577982442185394e-01 -1.5005673913790056e+00 0.0000000000000000e+00 -1.5005673913790141e+00 7.3734637088523123e+03 0.0000000000000000e+00 0.0000000000000000e+00 0.0000000000000000e+00 0.0000000000000000e+00  1.3208624899080323e+00 -3.4313834591776100e+00 0.0000000000000000e+00 -3.4313834591776291e+00 7.3498077543860572e+03 0.0000000000000000e+00 0.0000000000000000e+00 0.0000000000000000e+00 0.0000000000000000e+00  6.1966953916917721e-02 -2.6585240293016770e+00 0.0000000000000000e+00 -2.6585240293016854e+00 7.3086895484266524e+03 0.0000000000000000e+00 0.0000000000000000e+00 0.0000000000000000e+00 0.0000000000000000e+00  -5.1491686791651348e-01 -3.3337296303784716e+00 0.0000000000000000e+00 -3.3337296303784485e+00 7.2686393252243679e+03 0.0000000000000000e+00 0.0000000000000000e+00 0.0000000000000000e+00 0.0000000000000000e+00  2.3262636538617389e+00 -5.2288899763296453e+00 0.0000000000000000e+00 -5.2288899763296319e+00 7.2189687659039737e+03 0.0000000000000000e+00 0.0000000000000000e+00 0.0000000000000000e+00 0.0000000000000000e+00  1.4793275660563363e+00 -7.3383284103171711e+00 0.0000000000000000e+00 -7.3383284103172084e+00 7.1582353609887423e+03 0.0000000000000000e+00 0.0000000000000000e+00 0.0000000000000000e+00 0.0000000000000000e+00  2.5777057106173928e+00 -9.2033002694379498e+00 0.0000000000000000e+00 -9.2033002694379746e+00 7.0549758246526608e+03 0.0000000000000000e+00 0.0000000000000000e+00 0.0000000000000000e+00 0.0000000000000000e+00  1.3136617034494871e+00 -1.4833543554542295e+01 0.0000000000000000e+00 -1.4833543554542260e+01 6.9846800351215934e+03 0.0000000000000000e+00 0.0000000000000000e+00 0.0000000000000000e+00 0.0000000000000000e+00  1.6252218937903773e+00 -1.1001582136062755e+01 0.0000000000000000e+00 -1.1001582136062856e+01 6.8304699398160747e+03 0.0000000000000000e+00 0.0000000000000000e+00 0.0000000000000000e+00 0.0000000000000000e+00  -4.9625479939885120e-01 -1.2911852546111188e+01 0.0000000000000000e+00 -1.2911852546111254e+01 6.6792842653286652e+03 0.0000000000000000e+00 0.0000000000000000e+00 0.0000000000000000e+00 0.0000000000000000e+00  1.6090083486745169e+01 -1.0775611792040813e+01 0.0000000000000000e+00 -1.0775611792040879e+01 6.4560581557185687e+03 0.0000000000000000e+00 0.0000000000000000e+00 0.0000000000000000e+00 0.0000000000000000e+00  -1.6358543102068392e+01 -1.3836629337243412e+01 0.0000000000000000e+00 -1.3836629337243247e+01 6.1598981264039585e+03 0.0000000000000000e+00 0.0000000000000000e+00 0.0000000000000000e+00 0.0000000000000000e+00  4.6665075436229856e+01 -6.2245094809180230e+01 0.0000000000000000e+00 -6.2245094809179832e+01 5.7157246054868283e+03 0.0000000000000000e+00 0.0000000000000000e+00 0.0000000000000000e+00 0.0000000000000000e+00  -2.1467590330589548e+01 -2.7464550937000183e+01 0.0000000000000000e+00 -2.7464550937000880e+01 5.1290626332738602e+03 0.0000000000000000e+00 0.0000000000000000e+00 0.0000000000000000e+00 0.0000000000000000e+00  1.9457434238366744e+01 -1.6449752031535218e+02 0.0000000000000000e+00 -1.6449752031535226e+02 4.1336926892878864e+03 0.0000000000000000e+00 0.0000000000000000e+00 0.0000000000000000e+00 0.0000000000000000e+00  -1.0893200415550490e+01 -2.0660409393283646e+02 0.0000000000000000e+00 -2.0660409393283464e+02 2.8050895684737548e+03 0.0000000000000000e+00 0.0000000000000000e+00 0.0000000000000000e+00 0.0000000000000000e+00  1.8569332668529660e+02 -1.6563152494543493e+02 0.0000000000000000e+00 -1.6563152494543445e+02 9.3708759755479787e+02 0.0000000000000000e+00 0.0000000000000000e+00 0.0000000000000000e+00 0.0000000000000000e+00  -6.8189481916502910e+00 3.6437742337065226e-01 0.0000000000000000e+00 3.6437742337063739e-01 7.2091183513127289e+03 0.0000000000000000e+00 0.0000000000000000e+00 0.0000000000000000e+00 0.0000000000000000e+00  -3.3944001531424966e+01 -1.4567217426637039e-01 0.0000000000000000e+00 -1.4567217426632428e-01 7.2626981620390752e+03 0.0000000000000000e+00 0.0000000000000000e+00 0.0000000000000000e+00 0.0000000000000000e+00  -7.5358371696292778e+01 2.0739422205551614e+00 0.0000000000000000e+00 2.0739422205551539e+00 7.3443585083155176e+03 0.0000000000000000e+00 0.0000000000000000e+00 0.0000000000000000e+00 0.0000000000000000e+00  -1.2341955680332377e+02 1.2770127864477199e-01 0.0000000000000000e+00 1.2770127864476988e-01 7.4364748592682199e+03 0.0000000000000000e+00 0.0000000000000000e+00 0.0000000000000000e+00 0.0000000000000000e+00  -1.6607751302780443e+02 2.6753915524308023e+00 0.0000000000000000e+00 2.6753915524308005e+00 7.5478988109145403e+03 0.0000000000000000e+00 0.0000000000000000e+00 0.0000000000000000e+00 0.0000000000000000e+00  -2.1005647545045593e+02 -1.6114754884838345e-01 0.0000000000000000e+00 -1.6114754884837304e-01 7.6570882370544423e+03 0.0000000000000000e+00 0.0000000000000000e+00 0.0000000000000000e+00 0.0000000000000000e+00  -2.5198372464783154e+02 1.2577863758273003e-01 0.0000000000000000e+00 1.2577863758273700e-01 7.7516704773242709e+03 0.0000000000000000e+00 0.0000000000000000e+00 0.0000000000000000e+00 0.0000000000000000e+00  -2.7384732468905082e+02 -6.4139250257620128e-01 0.0000000000000000e+00 -6.4139250257620417e-01 7.8528485996014051e+03 0.0000000000000000e+00 0.0000000000000000e+00 0.0000000000000000e+00 0.0000000000000000e+00  -2.9449429853029386e+02 2.7923083334114951e-01 0.0000000000000000e+00 2.7923083334115906e-01 7.9179484484868190e+03 0.0000000000000000e+00 0.0000000000000000e+00 0.0000000000000000e+00 0.0000000000000000e+00  -3.0706249894179876e+02 -8.7939621988761363e-01 0.0000000000000000e+00 -8.7939621988761241e-01 7.9818183508108286e+03 0.0000000000000000e+00 0.0000000000000000e+00 0.0000000000000000e+00 0.0000000000000000e+00  -3.0947411864819469e+02 -5.8996850954928692e-01 0.0000000000000000e+00 -5.8996850954928703e-01 8.0296268176834010e+03 0.0000000000000000e+00 0.0000000000000000e+00 0.0000000000000000e+00 0.0000000000000000e+00  -3.0655620722578021e+02 -1.3749079202728072e+00 0.0000000000000000e+00 -1.3749079202728103e+00 8.0627858860388178e+03 0.0000000000000000e+00 0.0000000000000000e+00 0.0000000000000000e+00 0.0000000000000000e+00  -2.9936420937772857e+02 -8.1828425023996443e-01 0.0000000000000000e+00 -8.1828425023997065e-01 8.0862005728533704e+03 0.0000000000000000e+00 0.0000000000000000e+00 0.0000000000000000e+00 0.0000000000000000e+00  -2.9002071241270772e+02 -4.4675196033946180e-01 0.0000000000000000e+00 -4.4675196033947157e-01 8.1008938716498069e+03 0.0000000000000000e+00 0.0000000000000000e+00 0.0000000000000000e+00 0.0000000000000000e+00  -2.7799173951675300e+02 -6.7655005138560109e-01 0.0000000000000000e+00 -6.7655005138558966e-01 8.1070591539342313e+03 0.0000000000000000e+00 0.0000000000000000e+00 0.0000000000000000e+00 0.0000000000000000e+00  -2.6551895272160721e+02 -8.6047920393582666e-01 0.0000000000000000e+00 -8.6047920393582789e-01 8.1075175094267934e+03 0.0000000000000000e+00 0.0000000000000000e+00 0.0000000000000000e+00 0.0000000000000000e+00  -2.5361948726015501e+02 -4.0794943463590921e-01 0.0000000000000000e+00 -4.0794943463590044e-01 8.1022272267325743e+03 0.0000000000000000e+00 0.0000000000000000e+00 0.0000000000000000e+00 0.0000000000000000e+00  -2.4179445517112811e+02 -5.5852316761780740e-01 0.0000000000000000e+00 -5.5852316761780207e-01 8.0936955143348705e+03 0.0000000000000000e+00 0.0000000000000000e+00 0.0000000000000000e+00 0.0000000000000000e+00  -2.3105913011355852e+02 -2.5750520744716099e-01 0.0000000000000000e+00 -2.5750520744717259e-01 8.0816258469648456e+03 0.0000000000000000e+00 0.0000000000000000e+00 0.0000000000000000e+00 0.0000000000000000e+00  -2.2089483977698322e+02 -2.4047647934143804e-01 0.0000000000000000e+00 -2.4047647934144520e-01 8.0662244874718281e+03 0.0000000000000000e+00 0.0000000000000000e+00 0.0000000000000000e+00 0.0000000000000000e+00  -2.1188662947254821e+02 -1.1360281477519062e-01 0.0000000000000000e+00 -1.1360281477519087e-01 8.0485612454864840e+03 0.0000000000000000e+00 0.0000000000000000e+00 0.0000000000000000e+00 0.0000000000000000e+00  -2.0301977262377372e+02 -5.1529630522460720e-02 0.0000000000000000e+00 -5.1529630522452172e-02 8.0287594968997864e+03 0.0000000000000000e+00 0.0000000000000000e+00 0.0000000000000000e+00 0.0000000000000000e+00  -1.9524323171839436e+02 -3.4944186600457221e-02 0.0000000000000000e+00 -3.4944186600449609e-02 8.0059153498668347e+03 0.0000000000000000e+00 0.0000000000000000e+00 0.0000000000000000e+00 0.0000000000000000e+00  -1.8669228399815341e+02 -2.2249462671220990e-02 0.0000000000000000e+00 -2.2249462671225018e-02 7.9808183350721692e+03 0.0000000000000000e+00 0.0000000000000000e+00 0.0000000000000000e+00 0.0000000000000000e+00  -1.7885355642107552e+02 -9.9297373219043777e-02 0.0000000000000000e+00 -9.9297373219050730e-02 7.9533309413890447e+03 0.0000000000000000e+00 0.0000000000000000e+00 0.0000000000000000e+00 0.0000000000000000e+00  -1.6970613771707522e+02 1.6422706173400800e-01 0.0000000000000000e+00 1.6422706173402143e-01 7.9231699038882070e+03 0.0000000000000000e+00 0.0000000000000000e+00 0.0000000000000000e+00 0.0000000000000000e+00  -1.5995886732641654e+02 -8.8125224357766499e-02 0.0000000000000000e+00 -8.8125224357762308e-02 7.8893150581556474e+03 0.0000000000000000e+00 0.0000000000000000e+00 0.0000000000000000e+00 0.0000000000000000e+00  -1.4934701833920496e+02 2.1235348475613330e-01 0.0000000000000000e+00 2.1235348475613630e-01 7.8535692185162698e+03 0.0000000000000000e+00 0.0000000000000000e+00 0.0000000000000000e+00 0.0000000000000000e+00  -1.3707833942823763e+02 2.1561458896852953e-01 0.0000000000000000e+00 2.1561458896851524e-01 7.8159295701279652e+03 0.0000000000000000e+00 0.0000000000000000e+00 0.0000000000000000e+00 0.0000000000000000e+00  -1.2419110029560944e+02 6.7733926694052982e-02 0.0000000000000000e+00 6.7733926694056118e-02 7.7738530678110556e+03 0.0000000000000000e+00 0.0000000000000000e+00 0.0000000000000000e+00 0.0000000000000000e+00  -1.0907036534042646e+02 -1.8194871707477556e-01 0.0000000000000000e+00 -1.8194871707478205e-01 7.7324040260040892e+03 0.0000000000000000e+00 0.0000000000000000e+00 0.0000000000000000e+00 0.0000000000000000e+00  -9.4370237230493942e+01 -1.9956678582588336e-01 0.0000000000000000e+00 -1.9956678582589180e-01 7.6872924571711610e+03 0.0000000000000000e+00 0.0000000000000000e+00 0.0000000000000000e+00 0.0000000000000000e+00  -7.7247619920678275e+01 -2.7763992913289817e-02 0.0000000000000000e+00 -2.7763992913318266e-02 7.6436064915336501e+03 0.0000000000000000e+00 0.0000000000000000e+00 0.0000000000000000e+00 0.0000000000000000e+00  -6.0980303652687851e+01 -3.1790338012794894e-01 0.0000000000000000e+00 -3.1790338012795266e-01 7.6022625646925380e+03 0.0000000000000000e+00 0.0000000000000000e+00 0.0000000000000000e+00 0.0000000000000000e+00  -4.4718965248462439e+01 -6.9432824132631535e-02 0.0000000000000000e+00 -6.9432824132631965e-02 7.5616014483931349e+03 0.0000000000000000e+00 0.0000000000000000e+00 0.0000000000000000e+00 0.0000000000000000e+00  -3.0203557627800812e+01 -6.0580689591710618e-02 0.0000000000000000e+00 -6.0580689591713845e-02 7.5227829687896656e+03 0.0000000000000000e+00 0.0000000000000000e+00 0.0000000000000000e+00 0.0000000000000000e+00  -1.7667531182553574e+01 -1.1297638475315937e-01 0.0000000000000000e+00 -1.1297638475316410e-01 7.4901714662657077e+03 0.0000000000000000e+00 0.0000000000000000e+00 0.0000000000000000e+00 0.0000000000000000e+00  -8.0091039153828376e+00 1.3527640447675737e-01 0.0000000000000000e+00 1.3527640447676448e-01 7.4630498771137227e+03 0.0000000000000000e+00 0.0000000000000000e+00 0.0000000000000000e+00 0.0000000000000000e+00  -1.1049244145228141e+00 2.4929760944508533e-01 0.0000000000000000e+00 2.4929760944508694e-01 7.4437353877794949e+03 0.0000000000000000e+00 0.0000000000000000e+00 0.0000000000000000e+00 0.0000000000000000e+00  2.5972514616510644e+01 -1.0426499467657680e+02 0.0000000000000000e+00 -1.0426499467657628e+02 5.4859465004000310e+02 0.0000000000000000e+00 0.0000000000000000e+00 0.0000000000000000e+00 0.0000000000000000e+00  2.4295243770245710e+02 2.2449968703042441e+02 0.0000000000000000e+00 2.2449968703042347e+02 3.0607178808717404e+03 0.0000000000000000e+00 0.0000000000000000e+00 0.0000000000000000e+00 0.0000000000000000e+00  -1.5366182193936851e+02 -3.1239656969683075e+01 0.0000000000000000e+00 -3.1239656969683075e+01 4.0856601950955269e+03 0.0000000000000000e+00 0.0000000000000000e+00 0.0000000000000000e+00 0.0000000000000000e+00  1.4629540950390057e+02 1.1836285180104844e+02 0.0000000000000000e+00 1.1836285180104939e+02 5.3274913699720610e+03 0.0000000000000000e+00 0.0000000000000000e+00 0.0000000000000000e+00 0.0000000000000000e+00  -5.7777248006119422e+01 -3.8777514209716223e+01 0.0000000000000000e+00 -3.8777514209716102e+01 5.7561986269411009e+03 0.0000000000000000e+00 0.0000000000000000e+00 0.0000000000000000e+00 0.0000000000000000e+00  5.6573541736904026e+01 5.2711444505530054e+01 0.0000000000000000e+00 5.2711444505530068e+01 6.2758352788448592e+03 0.0000000000000000e+00 0.0000000000000000e+00 0.0000000000000000e+00 0.0000000000000000e+00  -1.6705413942698243e+01 9.7460055651736646e+00 0.0000000000000000e+00 9.7460055651737783e+00 6.5376064190373827e+03 0.0000000000000000e+00 0.0000000000000000e+00 0.0000000000000000e+00 0.0000000000000000e+00  1.1257346711539686e+01 2.2210460428613949e+01 0.0000000000000000e+00 2.2210460428614105e+01 6.7272482272075540e+03 0.0000000000000000e+00 0.0000000000000000e+00 0.0000000000000000e+00 0.0000000000000000e+00  3.0617168727955688e+00 1.1533113866997928e+01 0.0000000000000000e+00 1.1533113866997986e+01 6.9145862414145076e+03 0.0000000000000000e+00 0.0000000000000000e+00 0.0000000000000000e+00 0.0000000000000000e+00  4.8917097807100838e+00 7.4556015515494352e+00 0.0000000000000000e+00 7.4556015515494103e+00 7.0150609944738508e+03 0.0000000000000000e+00 0.0000000000000000e+00 0.0000000000000000e+00 0.0000000000000000e+00  -2.7388424854007809e+00 1.1490860120546895e+00 0.0000000000000000e+00 1.1490860120546729e+00 7.1044303116716264e+03 0.0000000000000000e+00 0.0000000000000000e+00 0.0000000000000000e+00 0.0000000000000000e+00  4.8111205876572516e+00 3.9980909930998321e+00 0.0000000000000000e+00 3.9980909930998481e+00 7.1447746396625917e+03 0.0000000000000000e+00 0.0000000000000000e+00 0.0000000000000000e+00 0.0000000000000000e+00  -1.4949208893948456e+00 7.5312083353690540e-01 0.0000000000000000e+00 7.5312083353689430e-01 7.1857380722778607e+03 0.0000000000000000e+00 0.0000000000000000e+00 0.0000000000000000e+00 0.0000000000000000e+00  1.2674512374616329e+03 1.0878606335465804e+03 0.0000000000000000e+00 1.0878606335465824e+03 6.0710818804670714e+02 0.0000000000000000e+00 0.0000000000000000e+00 0.0000000000000000e+00 0.0000000000000000e+00  4.6161688074856575e+03 5.9172169704936778e+03 0.0000000000000000e+00 5.9172169704936696e+03 9.1299679720333006e+03 0.0000000000000000e+00 0.0000000000000000e+00 0.0000000000000000e+00 0.0000000000000000e+00  3.3125511510262513e+03 2.8598517930084163e+03 0.0000000000000000e+00 2.8598517930084158e+03 1.4122161265795548e+04 0.0000000000000000e+00 0.0000000000000000e+00 0.0000000000000000e+00 0.0000000000000000e+00  4.0654090345326726e+03 -2.7058877051992681e+03 0.0000000000000000e+00 -2.7058877051992699e+03 1.5146410920099315e+04 0.0000000000000000e+00 0.0000000000000000e+00 0.0000000000000000e+00 0.0000000000000000e+00  2.7070716287538039e+03 -5.5150150937192047e+03 0.0000000000000000e+00 -5.5150150937192020e+03 8.3192539887929161e+03 0.0000000000000000e+00 0.0000000000000000e+00 0.0000000000000000e+00 0.0000000000000000e+00  1.8240801724295682e+03 -1.5234949003885665e+03 0.0000000000000000e+00 -1.5234949003885638e+03 1.0468055454734747e+03 0.0000000000000000e+00 0.0000000000000000e+00 0.0000000000000000e+00 0.0000000000000000e+00  7.0674456744209246e-02 -4.1084290160147502e-01 0.0000000000000000e+00 -4.1084290160147430e-01 7.4430956522524712e+03 0.0000000000000000e+00 0.0000000000000