<?xml version="1.0"?>
<VTKFile type="UnstructuredGrid"  version="0.1"  >
<UnstructuredGrid>
<Piece  NumberOfPoints="2165" NumberOfCells="4161">
<Points>
<DataArray  type="Float64"  NumberOfComponents="3"  format="ascii">-3.598637933768527e-16 0.3500000000000001 0  0.05 0.4 0  -3.537405593811159e-16 0.45 0  0 1 0  1 1 0  0.9999999999999997 0.65 0  0.9999999999999997 0.5499999999999999 0  1 0 0  0 0 0  0.0191341716182545 0.3538060233744357 0  0.03535533905932737 0.3646446609406727 0  0.04619397662556433 0.3808658283817455 0  0.04619397662556434 0.4191341716182545 0  0.03535533905932738 0.4353553390593274 0  0.01913417161825449 0.4461939766255644 0  0 0.975 0  0 0.95 0  0 0.9249999999999999 0  0 0.8999999999999998 0  0 0.8749999999999998 0  0 0.8499999999999998 0  0 0.8249999999999997 0  0 0.7999999999999996 0  0 0.7749999999999996 0  0 0.7499999999999996 0  0 0.7249999999999996 0  0 0.6999999999999997 0  0 0.6749999999999998 0  0 0.6499999999999999 0  0 0.6249999999999999 0  0 0.6 0  0 0.575 0  0 0.5499999999999998 0  0 0.5249999999999999 0  0 0.4999999999999998 0  0 0.4749999999999999 0  0.975 1 0  0.95 1 0  0.925 1 0  0.9 1 0  0.875 1 0  0.85 1 0  0.825 1 0  0.8 1 0  0.775 1 0  0.75 1 0  0.725 1 0  0.7 1 0  0.675 1 0  0.65 1 0  0.625 1 0  0.6 1 0  0.575 1 0  0.55 1 0  0.525 1 0  0.5 1 0  0.475 1 0  0.45 1 0  0.425 1 0  0.4 1 0  0.375 1 0  0.35 1 0  0.325 1 0  0.3 1 0  0.275 1 0  0.25 1 0  0.225 1 0  0.2 1 0  0.175 1 0  0.15 1 0  0.125 1 0  0.09999999999999998 1 0  0.07499999999999996 1 0  0.05000000000000004 1 0  0.02500000000000002 1 0  1 0.675 0  1 0.7000000000000001 0  1 0.7250000000000001 0  1 0.7500000000000001 0  1 0.7750000000000001 0  1 0.8000000000000002 0  1 0.8250000000000002 0  1 0.8500000000000002 0  1 0.8750000000000003 0  1 0.9000000000000001 0  1 0.9250000000000002 0  1 0.9500000000000001 0  1 0.9750000000000001 0  0.9783058130441221 0.6450484433951209 0  0.9609084258765985 0.6311744900929367 0  0.9512536043909088 0.6111260466978157 0  0.9512536043909088 0.5888739533021843 0  0.9609084258765985 0.5688255099070633 0  0.9783058130441221 0.554951556604879 0  1 0.02500000000000002 0  1 0.05000000000000004 0  1 0.07500000000000008 0  1 0.1000000000000001 0  1 0.1250000000000001 0  1 0.1500000000000002 0  1 0.1750000000000002 0  1 0.2000000000000003 0  1 0.2250000000000003 0  1 0.2500000000000004 0  1 0.2750000000000004 0  1 0.3000000000000003 0  1 0.3250000000000002 0  1 0.3500000000000001 0  1 0.3750000000000001 0  1 0.3999999999999999 0  1 0.425 0  1 0.45 0  1 0.475 0  1 0.5000000000000001 0  1 0.5249999999999999 0  0.025 0 0  0.05 0 0  0.075 0 0  0.1 0 0  0.125 0 0  0.15 0 0  0.175 0 0  0.2 0 0  0.225 0 0  0.25 0 0  0.275 0 0  0.3 0 0  0.325 0 0  0.35 0 0  0.375 0 0  0.4 0 0  0.425 0 0  0.45 0 0  0.475 0 0  0.5 0 0  0.525 0 0  0.55 0 0  0.575 0 0  0.6 0 0  0.625 0 0  0.65 0 0  0.675 0 0  0.7 0 0  0.725 0 0  0.75 0 0  0.775 0 0  0.8 0 0  0.825 0 0  0.85 0 0  0.875 0 0  0.9 0 0  0.925 0 0  0.95 0 0  0.975 0 0  0 0.3250000000000001 0  0 0.3 0  0 0.275 0  0 0.2499999999999999 0  0 0.2249999999999999 0  0 0.1999999999999998 0  0 0.1749999999999998 0  0 0.1499999999999998 0  0 0.1249999999999998 0  0 0.09999999999999987 0  0 0.07499999999999984 0  0 0.04999999999999993 0  0 0.02500000000000002 0  0.06453325334544308 0.4134708543086404 0  0.5146839915088474 0.02134387884913819 0  0.4875871001393628 0.9784117024331356 0  0.9386300160094723 0.5701776715936071 0  0.0216506350946109 0.6124999999999999 0  0.9764205887290853 0.3596067946540696 0  0.3876261045932067 0.02156097490657183 0  0.6125 0.978349364905389 0  0.3612127461797463 0.9792371404802113 0  0.6374786650398092 0.02079982608537345 0  0.9387185538472446 0.6295115890709873 0  0.05482260092545593 0.3633687091864355 0  0.02445354803948679 0.7343198207875321 0  0.2624888813627476 0.02091671348578122 0  0.7375212991274043 0.9794996488945376 0  0.9793010831723812 0.2648509348664836 0  0.2625026480689301 0.9795699185263282 0  0.7362840788105066 0.02225211062275217 0  0.02159327910297104 0.2128861809896528 0  0.9786837570973538 0.7867241244631172 0  0.02419728000065929 0.8365600234152764 0  0.980043283615984 0.1624097203408714 0  0.1645857434226354 0.0205513501962844 0  0.8339481359352011 0.9784483546369231 0  0.1637584777222821 0.9774556328160621 0  0.8374916614314967 0.02165097219510076 0  0.02171915379676059 0.5370700005916152 0  0.9795335762511281 0.4365726939225819 0  0.02319480745007968 0.1370197632171214 0  0.9774462976085161 0.8592616917551974 0  0.9786941241076723 0.7122511101067891 0  0.9797883857882621 0.08781864217752949 0  0.01966314788989931 0.9125801876811624 0  0.02051815350151098 0.2882126194470174 0  0.09063226699593246 0.0214884092697174 0  0.9124408843562394 0.9818463395009377 0  0.03872465516591678 0.452731089005145 0  0.08969424365256845 0.978412979507602 0  0.9124999999999999 0.02165063509461096 0  0.02158104789437187 0.6619299176372371 0  0.9796602354625652 0.4859004208706154 0  0.3127517983598529 0.02417963694738812 0  0.4375629605000894 0.02158039900821679 0  0.5643674594196073 0.01968996000301126 0  0.5368361594956101 0.9790428840407062 0  0.4376176251051295 0.9783667484208922 0  0.6874072695660477 0.978435143102373 0  0.310604317388614 0.979558305560928 0  0.2125577044121564 0.02066685543111635 0  0.6875 0.0216506350946109 0  0.02224009810917643 0.08811420611559456 0  0.790876428529276 0.978633065284896 0  0.2125 0.978349364905389 0  0.9788033534786624 0.2116925349935155 0  0.9769441169344462 0.3150381335760689 0  0.9804648376981185 0.9123186437266726 0  0.7874999988222203 0.02127957051165741 0  0.02109233852270731 0.786866823287435 0  0.9483709287873718 0.5504073206521916 0  0.9259842326464427 0.5519702047534598 0  0.9163209045278007 0.5719292915927929 0  0.9035374059862284 0.5537291796040291 0  0.8938951918780048 0.5738949757882954 0  0.8807940177559743 0.5546750869516996 0  0.8712661812741653 0.5757142549099102 0  0.8580668865514332 0.5563902430113601 0  0.848508161986991 0.5779004013072002 0  0.8354274200119249 0.5591176379057713 0  0.8256349826905482 0.5800610629400762 0  0.8124123591208572 0.5604454546391737 0  0.802603410938817 0.5819653950592523 0  0.7892876429890218 0.562234610648543 0  0.7794355871850538 0.583896242519796 0  0.7661469824381839 0.5648243426306435 0  0.7562387679604726 0.5860005456930413 0  0.7429651600512166 0.5669367633461588 0  0.7330846968880171 0.5879590907760761 0  0.7198577999459205 0.5688986880627463 0  0.7297050500533544 0.5479561801187277 0  0.7066243396993471 0.5499068108517552 0  0.6968285086900206 0.5707989520567972 0  0.6836266810714333 0.5519088927359967 0  0.6738604685766018 0.5727655091567184 0  0.6607284761452521 0.5538781923028128 0  0.6697149783704412 0.5321140554135094 0  0.6473436039782401 0.5350050604671006 0  0.6378867365666199 0.5557804038095817 0  0.6246915360243652 0.5362124690568238 0  0.6151175309583405 0.5575933164645619 0  0.6019784180102355 0.5380659376543677 0  0.5924099113505394 0.5593739656462906 0  0.5794110962027638 0.541110021814312 0  0.5697985396917309 0.5614600003719357 0  0.5568468707330213 0.5433212932327446 0  0.5472634011377896 0.5635652141280936 0  0.5343236363495072 0.5451361960661517 0  0.5247877773262166 0.565493591892781 0  0.5118927934227436 0.5470665328397559 0  0.5023398230005425 0.5674381114577953 0  0.5213991904098014 0.5267047787870831 0  0.4990390504096661 0.528649139287786 0  0.6328887517229864 0.5131744321062524 0  0.5085133205790763 0.5083322037773296 0  0.4861972978925295 0.5102540920324363 0  0.4956914791804768 0.4899605513008993 0  0.4734139980312694 0.4918582759645476 0  0.4826986629698439 0.4717164019717278 0  0.460570567761715 0.473509155475794 0  0.4699344541058981 0.4533140529328089 0  0.4477087341565655 0.4550973130597117 0  0.4381733274019614 0.4752901381741884 0  0.4570222843287571 0.4349938694701042 0  0.4348599018247688 0.436728068420533 0  0.5604623134382263 0.581815997002507 0  0.4443612964408632 0.416499823314016 0  0.422056299386984 0.4183730429856528 0  0.4688721528228815 0.4135009841763965 0  0.4315584877924544 0.398120546824229 0  0.4092288692044618 0.3999974286008185 0  0.7463210599443056 0.6070829843371945 0  0.4187270626688335 0.3797365044773463 0  0.3964262302393312 0.3817184136470017 0  0.3869780036193907 0.4018498778543814 0  0.3742423843122406 0.3837055716372927 0  0.3648701490102072 0.4037049758807119 0  0.3518115403926748 0.3858985036587403 0  0.3426146276710081 0.4056777495658291 0  0.3614541441355358 0.3656396497906528 0  0.339026673715919 0.3678724679736439 0  0.3485566370135618 0.3476560889674916 0  0.3264681821394378 0.3496422822523857 0  0.8219942777991693 0.5379143061758643 0  0.3358297439968608 0.3295117748868035 0  0.3137050884585635 0.3314921667582986 0  0.3229980644152205 0.3113561769498422 0  0.3007986024336577 0.3133063832007756 0  0.3441851868720173 0.3085211458266175 0  0.3101966551534752 0.2930273704914169 0  0.287793053707373 0.2950088132226583 0  0.2914417217227097 0.3337427541189321 0  0.2975120686695638 0.2743682539701985 0  0.274864585256681 0.2764253296978281 0  0.816026571618698 0.6006851919544112 0  0.2844672854128698 0.2557011565880619 0  0.2617267434509338 0.2577713002235077 0  0.3072711221189672 0.2536790056475094 0  0.2521588568690318 0.2785072139143895 0  0.2389277409161178 0.2598761196336353 0  0.248448076747058 0.2389478879785275 0  0.5053822153261678 0.4716915524631118 0  0.229548765875869 0.2806542761043101 0  0.2254561407802683 0.2411354049374563 0  0.2350621310805047 0.2199181955146378 0  0.2117782450160163 0.222165061041625 0  0.2214249125635323 0.2008136877065064 0  0.2448758256083499 0.1985732693215908 0  0.197966291680556 0.2031211006951591 0  0.1883147493074436 0.2245564097761413 0  0.8910637266939049 0.5322898364209732 0  0.1748136087708587 0.2051141748992724 0  0.1842088801696792 0.1837087814679069 0  0.1656574100807746 0.2269812054689968 0  0.3554582346764377 0.4236292557112198 0  0.3328979939923831 0.425459320867588 0  0.3460368767112177 0.4435398346083328 0  0.3238464003
[...]
<PointData  Tensors="$\sigma$"> 
<DataArray  type="Float64"  Name="$\sigma$"  NumberOfComponents="9" format="ascii">-3.7942979349245269e+02 -4.4897201268437306e+02 0.0000000000000000e+00 -4.4897201268437379e+02 -1.1049597633044241e+03 0.0000000000000000e+00 0.0000000000000000e+00 0.0000000000000000e+00 0.0000000000000000e+00  3.3179600883119219e+03 2.2475916544888417e+01 0.0000000000000000e+00 2.2475916544886367e+01 1.4962850083281124e+04 0.0000000000000000e+00 0.0000000000000000e+00 0.0000000000000000e+00 0.0000000000000000e+00  -2.9930961043282099e+02 5.6760002887296503e+02 0.0000000000000000e+00 5.6760002887296446e+02 -1.1618105666507479e+03 0.0000000000000000e+00 0.0000000000000000e+00 0.0000000000000000e+00 0.0000000000000000e+00  8.3274667495510477e-02 1.0823007335582282e+00 0.0000000000000000e+00 1.0823007335582284e+00 6.9858947947004872e+03 0.0000000000000000e+00 0.0000000000000000e+00 0.0000000000000000e+00 0.0000000000000000e+00  2.1557813509706576e+00 7.3778451428333183e-02 0.0000000000000000e+00 7.3778451428340497e-02 6.7654612525012408e+03 0.0000000000000000e+00 0.0000000000000000e+00 0.0000000000000000e+00 0.0000000000000000e+00  -4.3773503929223017e+02 -4.3901604522193185e+02 0.0000000000000000e+00 -4.3901604522193111e+02 -1.4437867362968797e+02 0.0000000000000000e+00 0.0000000000000000e+00 0.0000000000000000e+00 0.0000000000000000e+00  2.3536998142589698e+02 -1.8902696862641312e+02 0.0000000000000000e+00 -1.8902696862641233e+02 2.5189495611390842e+02 0.0000000000000000e+00 0.0000000000000000e+00 0.0000000000000000e+00 0.0000000000000000e+00  1.7530896512544267e-01 1.5043657400729382e-01 0.0000000000000000e+00 1.5043657400729832e-01 6.9964277627717911e+03 0.0000000000000000e+00 0.0000000000000000e+00 0.0000000000000000e+00 0.0000000000000000e+00  2.0673755731258234e+03 8.3374340049310410e+02 0.0000000000000000e+00 8.3374340049310479e+02 7.3227571418049847e+03 0.0000000000000000e+00 0.0000000000000000e+00 0.0000000000000000e+00 0.0000000000000000e+00  9.9584145462814229e+02 7.9696800745211283e+02 0.0000000000000000e+00 7.9696800745211488e+02 7.2357540739884496e+02 0.0000000000000000e+00 0.0000000000000000e+00 0.0000000000000000e+00 0.0000000000000000e+00  3.6520224546723734e+03 4.3840489623714166e+03 0.0000000000000000e+00 4.3840489623714157e+03 4.9776590318613235e+03 0.0000000000000000e+00 0.0000000000000000e+00 0.0000000000000000e+00 0.0000000000000000e+00  3.7773213518024531e+03 4.5982466182251419e+03 0.0000000000000000e+00 4.5982466182251419e+03 1.2757949974708519e+04 0.0000000000000000e+00 0.0000000000000000e+00 0.0000000000000000e+00 0.0000000000000000e+00  3.7801282460695011e+03 -4.5491270170809194e+03 0.0000000000000000e+00 -4.5491270170809184e+03 1.2777633483321608e+04 0.0000000000000000e+00 0.0000000000000000e+00 0.0000000000000000e+00 0.0000000000000000e+00  3.6768598536677318e+03 -4.3126159458807060e+03 0.0000000000000000e+00 -4.3126159458807078e+03 5.2917417405449260e+03 0.0000000000000000e+00 0.0000000000000000e+00 0.0000000000000000e+00 0.0000000000000000e+00  9.4741425190086773e+02 -9.1501523178575133e+02 0.0000000000000000e+00 -9.1501523178575360e+02 6.4370872738446303e+02 0.0000000000000000e+00 0.0000000000000000e+00 0.0000000000000000e+00 0.0000000000000000e+00  1.6038922292647381e-01 -2.8242260648668488e-01 0.0000000000000000e+00 -2.8242260648668571e-01 6.9827749837966276e+03 0.0000000000000000e+00 0.0000000000000000e+00 0.0000000000000000e+00 0.0000000000000000e+00  -7.6362649208867164e-02 -9.4645401026717557e-01 0.0000000000000000e+00 -9.4645401026716713e-01 6.9767069080870560e+03 0.0000000000000000e+00 0.0000000000000000e+00 0.0000000000000000e+00 0.0000000000000000e+00  6.9600360518581716e-01 -1.1216656071778932e+00 0.0000000000000000e+00 -1.1216656071779019e+00 6.9671400877956476e+03 0.0000000000000000e+00 0.0000000000000000e+00 0.0000000000000000e+00 0.0000000000000000e+00  -4.9660453690587175e-01 -8.0193974381855371e-01 0.0000000000000000e+00 -8.0193974381855138e-01 6.9522573223833651e+03 0.0000000000000000e+00 0.0000000000000000e+00 0.0000000000000000e+00 0.0000000000000000e+00  5.0877235656985009e-01 -1.3867219816349095e+00 0.0000000000000000e+00 -1.3867219816349161e+00 6.9317506744585780e+03 0.0000000000000000e+00 0.0000000000000000e+00 0.0000000000000000e+00 0.0000000000000000e+00  1.2230018681273429e+00 -3.1445144156671803e+00 0.0000000000000000e+00 -3.1445144156672082e+00 6.9102155208862505e+03 0.0000000000000000e+00 0.0000000000000000e+00 0.0000000000000000e+00 0.0000000000000000e+00  3.0048241128902840e-02 -2.4377556255650266e+00 0.0000000000000000e+00 -2.4377556255650141e+00 6.8727635263276052e+03 0.0000000000000000e+00 0.0000000000000000e+00 0.0000000000000000e+00 0.0000000000000000e+00  -4.5322176028958888e-01 -3.0833877833058745e+00 0.0000000000000000e+00 -3.0833877833058589e+00 6.8362925257396500e+03 0.0000000000000000e+00 0.0000000000000000e+00 0.0000000000000000e+00 0.0000000000000000e+00  2.1116462197522070e+00 -4.8031889297454136e+00 0.0000000000000000e+00 -4.8031889297453763e+00 6.7910166813154228e+03 0.0000000000000000e+00 0.0000000000000000e+00 0.0000000000000000e+00 0.0000000000000000e+00  1.3648589397287083e+00 -6.6977630586434165e+00 0.0000000000000000e+00 -6.6977630586434715e+00 6.7356037060526442e+03 0.0000000000000000e+00 0.0000000000000000e+00 0.0000000000000000e+00 0.0000000000000000e+00  2.2357569163776110e+00 -8.4486897447501601e+00 0.0000000000000000e+00 -8.4486897447502081e+00 6.6413659152738755e+03 0.0000000000000000e+00 0.0000000000000000e+00 0.0000000000000000e+00 0.0000000000000000e+00  1.2047916093241580e+00 -1.3600574652921068e+01 0.0000000000000000e+00 -1.3600574652921054e+01 6.5772011011698269e+03 0.0000000000000000e+00 0.0000000000000000e+00 0.0000000000000000e+00 0.0000000000000000e+00  1.3579088663891188e+00 -1.0124012695920783e+01 0.0000000000000000e+00 -1.0124012695920847e+01 6.4359591379592903e+03 0.0000000000000000e+00 0.0000000000000000e+00 0.0000000000000000e+00 0.0000000000000000e+00  -1.2686466409214192e-01 -1.2251392862453262e+01 0.0000000000000000e+00 -1.2251392862453379e+01 6.2980592623414595e+03 0.0000000000000000e+00 0.0000000000000000e+00 0.0000000000000000e+00 0.0000000000000000e+00  1.4371168007219813e+01 -9.6559628445580667e+00 0.0000000000000000e+00 -9.6559628445580543e+00 6.0919039855538167e+03 0.0000000000000000e+00 0.0000000000000000e+00 0.0000000000000000e+00 0.0000000000000000e+00  -1.4242953441084421e+01 -1.3358609149751290e+01 0.0000000000000000e+00 -1.3358609149751246e+01 5.8211688850794908e+03 0.0000000000000000e+00 0.0000000000000000e+00 0.0000000000000000e+00 0.0000000000000000e+00  4.2598265798453966e+01 -5.8024600481831044e+01 0.0000000000000000e+00 -5.8024600481830859e+01 5.4091416549724590e+03 0.0000000000000000e+00 0.0000000000000000e+00 0.0000000000000000e+00 0.0000000000000000e+00  -2.0958491899787820e+01 -2.5789505296161316e+01 0.0000000000000000e+00 -2.5789505296161828e+01 4.8634910857022323e+03 0.0000000000000000e+00 0.0000000000000000e+00 0.0000000000000000e+00 0.0000000000000000e+00  2.5689813701083551e+01 -1.6084455896385074e+02 0.0000000000000000e+00 -1.6084455896385074e+02 3.9411705932369914e+03 0.0000000000000000e+00 0.0000000000000000e+00 0.0000000000000000e+00 0.0000000000000000e+00  -2.6488495593617582e+01 -1.8836092700085567e+02 0.0000000000000000e+00 -1.8836092700085362e+02 2.6700819015626912e+03 0.0000000000000000e+00 0.0000000000000000e+00 0.0000000000000000e+00 0.0000000000000000e+00  1.8449759636199764e+02 -1.7505099890577731e+02 0.0000000000000000e+00 -1.7505099890577688e+02 9.0490961275949394e+02 0.0000000000000000e+00 0.0000000000000000e+00 0.0000000000000000e+00 0.0000000000000000e+00  -6.2120571344813387e+00 3.5185879296380695e-01 0.0000000000000000e+00 3.5185879296379757e-01 6.7831373998888730e+03 0.0000000000000000e+00 0.0000000000000000e+00 0.0000000000000000e+00 0.0000000000000000e+00  -3.0940485094782577e+01 -1.0038165013998394e-01 0.0000000000000000e+00 -1.0038165013994178e-01 6.8315615106347186e+03 0.0000000000000000e+00 0.0000000000000000e+00 0.0000000000000000e+00 0.0000000000000000e+00  -6.8671280779936183e+01 1.9166841058168280e+00 0.0000000000000000e+00 1.9166841058168245e+00 6.9054391955967367e+03 0.0000000000000000e+00 0.0000000000000000e+00 0.0000000000000000e+00 0.0000000000000000e+00  -1.1247754274305218e+02 1.3106842030361834e-01 0.0000000000000000e+00 1.3106842030361238e-01 6.9890428550709448e+03 0.0000000000000000e+00 0.0000000000000000e+00 0.0000000000000000e+00 0.0000000000000000e+00  -1.5136435307391272e+02 2.4503322741110454e+00 0.0000000000000000e+00 2.4503322741110485e+00 7.0901925419276977e+03 0.0000000000000000e+00 0.0000000000000000e+00 0.0000000000000000e+00 0.0000000000000000e+00  -1.9133005109458668e+02 -1.5711519217564449e-01 0.0000000000000000e+00 -1.5711519217564276e-01 7.1892889996621825e+03 0.0000000000000000e+00 0.0000000000000000e+00 0.0000000000000000e+00 0.0000000000000000e+00  -2.2959451977199123e+02 1.3170304112246997e-01 0.0000000000000000e+00 1.3170304112249445e-01 7.2751474223833256e+03 0.0000000000000000e+00 0.0000000000000000e+00 0.0000000000000000e+00 0.0000000000000000e+00  -2.4944952208612750e+02 -5.8666259907897444e-01 0.0000000000000000e+00 -5.8666259907898011e-01 7.3670260593301637e+03 0.0000000000000000e+00 0.0000000000000000e+00 0.0000000000000000e+00 0.0000000000000000e+00  -2.6819681340784041e+02 2.6174120103103887e-01 0.0000000000000000e+00 2.6174120103104925e-01 7.4260787430922992e+03 0.0000000000000000e+00 0.0000000000000000e+00 0.0000000000000000e+00 0.0000000000000000e+00  -2.7960007768258447e+02 -7.9703906454998585e-01 0.0000000000000000e+00 -7.9703906454998230e-01 7.4840054833924587e+03 0.0000000000000000e+00 0.0000000000000000e+00 0.0000000000000000e+00 0.0000000000000000e+00  -2.8174296506185425e+02 -5.3550434184727891e-01 0.0000000000000000e+00 -5.3550434184727924e-01 7.5273599583728537e+03 0.0000000000000000e+00 0.0000000000000000e+00 0.0000000000000000e+00 0.0000000000000000e+00  -2.7905316714331644e+02 -1.2437581162420830e+00 0.0000000000000000e+00 -1.2437581162420870e+00 7.5574012256601454e+03 0.0000000000000000e+00 0.0000000000000000e+00 0.0000000000000000e+00 0.0000000000000000e+00  -2.7247795170924462e+02 -7.3471312823693857e-01 0.0000000000000000e+00 -7.3471312823694457e-01 7.5786178771517452e+03 0.0000000000000000e+00 0.0000000000000000e+00 0.0000000000000000e+00 0.0000000000000000e+00  -2.6395038052884860e+02 -4.0730573738472126e-01 0.0000000000000000e+00 -4.0730573738472270e-01 7.5919185436406151e+03 0.0000000000000000e+00 0.0000000000000000e+00 0.0000000000000000e+00 0.0000000000000000e+00  -2.5298965653643205e+02 -6.0588587600395860e-01 0.0000000000000000e+00 -6.0588587600395072e-01 7.5974824574124250e+03 0.0000000000000000e+00 0.0000000000000000e+00 0.0000000000000000e+00 0.0000000000000000e+00  -2.4163719216760168e+02 -7.7742099586142344e-01 0.0000000000000000e+00 -7.7742099586142499e-01 7.5978809315117815e+03 0.0000000000000000e+00 0.0000000000000000e+00 0.0000000000000000e+00 0.0000000000000000e+00  -2.3080231441186515e+02 -3.6935292774301459e-01 0.0000000000000000e+00 -3.6935292774301065e-01 7.5930649614704244e+03 0.0000000000000000e+00 0.0000000000000000e+00 0.0000000000000000e+00 0.0000000000000000e+00  -2.2005280395092947e+02 -5.0348089240541827e-01 0.0000000000000000e+00 -5.0348089240541827e-01 7.5853136885696731e+03 0.0000000000000000e+00 0.0000000000000000e+00 0.0000000000000000e+00 0.0000000000000000e+00  -2.1028599027475519e+02 -2.3013996237605169e-01 0.0000000000000000e+00 -2.3013996237606132e-01 7.5743583361747433e+03 0.0000000000000000e+00 0.0000000000000000e+00 0.0000000000000000e+00 0.0000000000000000e+00  -2.0104749651011483e+02 -2.1433706228257585e-01 0.0000000000000000e+00 -2.1433706228258004e-01 7.5603841781722622e+03 0.0000000000000000e+00 0.0000000000000000e+00 0.0000000000000000e+00 0.0000000000000000e+00  -1.9286054073444359e+02 -9.9264098245897450e-02 0.0000000000000000e+00 -9.9264098245894786e-02 7.5443596824843717e+03 0.0000000000000000e+00 0.0000000000000000e+00 0.0000000000000000e+00 0.0000000000000000e+00  -1.8480026556762351e+02 -4.4082403839614343e-02 0.0000000000000000e+00 -4.4082403839606793e-02 7.5263881254409725e+03 0.0000000000000000e+00 0.0000000000000000e+00 0.0000000000000000e+00 0.0000000000000000e+00  -1.7773835507407702e+02 -2.5803211110095540e-02 0.0000000000000000e+00 -2.5803211110089132e-02 7.5056601542153794e+03 0.0000000000000000e+00 0.0000000000000000e+00 0.0000000000000000e+00 0.0000000000000000e+00  -1.6996227858392078e+02 -1.7612047194943366e-02 0.0000000000000000e+00 -1.7612047194946332e-02 7.4828892351525474e+03 0.0000000000000000e+00 0.0000000000000000e+00 0.0000000000000000e+00 0.0000000000000000e+00  -1.6284005816782607e+02 -8.9072646877331366e-02 0.0000000000000000e+00 -8.9072646877338776e-02 7.4579470940496585e+03 0.0000000000000000e+00 0.0000000000000000e+00 0.0000000000000000e+00 0.0000000000000000e+00  -1.5451947233076012e+02 1.5158889653643204e-01 0.0000000000000000e+00 1.5158889653644428e-01 7.4305695565892956e+03 0.0000000000000000e+00 0.0000000000000000e+00 0.0000000000000000e+00 0.0000000000000000e+00  -1.4565513181374840e+02 -7.9740371048833372e-02 0.0000000000000000e+00 -7.9740371048826614e-02 7.3998353837629011e+03 0.0000000000000000e+00 0.0000000000000000e+00 0.0000000000000000e+00 0.0000000000000000e+00  -1.3600181912026915e+02 1.9184444366978537e-01 0.0000000000000000e+00 1.9184444366978706e-01 7.3673839686308247e+03 0.0000000000000000e+00 0.0000000000000000e+00 0.0000000000000000e+00 0.0000000000000000e+00  -1.2482919882233948e+02 1.9754007837570106e-01 0.0000000000000000e+00 1.9754007837568818e-01 7.3332128195869418e+03 0.0000000000000000e+00 0.0000000000000000e+00 0.0000000000000000e+00 0.0000000000000000e+00  -1.1310695347324346e+02 5.5186117781657489e-02 0.0000000000000000e+00 5.5186117781658495e-02 7.2949939228671874e+03 0.0000000000000000e+00 0.0000000000000000e+00 0.0000000000000000e+00 0.0000000000000000e+00  -9.9331236755727673e+01 -1.6520640815637955e-01 0.0000000000000000e+00 -1.6520640815638363e-01 7.2573620411537077e+03 0.0000000000000000e+00 0.0000000000000000e+00 0.0000000000000000e+00 0.0000000000000000e+00  -8.5947186788487798e+01 -1.8870870148389091e-01 0.0000000000000000e+00 -1.8870870148389748e-01 7.2163976846068545e+03 0.0000000000000000e+00 0.0000000000000000e+00 0.0000000000000000e+00 0.0000000000000000e+00  -7.0354568996379129e+01 -3.2332756609257447e-02 0.0000000000000000e+00 -3.2332756609266482e-02 7.1767209008602767e+03 0.0000000000000000e+00 0.0000000000000000e+00 0.0000000000000000e+00 0.0000000000000000e+00  -5.5527094982374244e+01 -2.9589467142182363e-01 0.0000000000000000e+00 -2.9589467142182291e-01 7.1392183178357345e+03 0.0000000000000000e+00 0.0000000000000000e+00 0.0000000000000000e+00 0.0000000000000000e+00  -4.0723836114955844e+01 -7.2700163920046329e-02 0.0000000000000000e+00 -7.2700163920051047e-02 7.1023077596849325e+03 0.0000000000000000e+00 0.0000000000000000e+00 0.0000000000000000e+00 0.0000000000000000e+00  -2.7498244542781698e+01 -5.8844119774909574e-02 0.0000000000000000e+00 -5.8844119774907958e-02 7.0671022710864390e+03 0.0000000000000000e+00 0.0000000000000000e+00 0.0000000000000000e+00 0.0000000000000000e+00  -1.6082284800347729e+01 -1.0990728168429738e-01 0.0000000000000000e+00 -1.0990728168429931e-01 7.0375560887362808e+03 0.0000000000000000e+00 0.0000000000000000e+00 0.0000000000000000e+00 0.0000000000000000e+00  -7.2913303923937516e+00 1.1977108490584083e-01 0.0000000000000000e+00 1.1977108490585063e-01 7.0129973956790873e+03 0.0000000000000000e+00 0.0000000000000000e+00 0.0000000000000000e+00 0.0000000000000000e+00  -1.0052694081009799e+00 2.2083170284406847e-01 0.0000000000000000e+00 2.2083170284406781e-01 6.9955503840957390e+03 0.0000000000000000e+00 0.0000000000000000e+00 0.0000000000000000e+00 0.0000000000000000e+00  6.8007103683868010e+01 -5.7656538556782507e+01 0.0000000000000000e+00 -5.7656538556781946e+01 5.6029146565164956e+02 0.0000000000000000e+00 0.0000000000000000e+00 0.0000000000000000e+00 0.0000000000000000e+00  2.1501006289163362e+02 2.0243591388424090e+02 0.0000000000000000e+00 2.0243591388424056e+02 2.9023232803771243e+03 0.0000000000000000e+00 0.0000000000000000e+00 0.0000000000000000e+00 0.0000000000000000e+00  -1.2132717480560544e+02 -1.3640676881051572e+01 0.0000000000000000e+00 -1.3640676881051984e+01 3.9234226067468167e+03 0.0000000000000000e+00 0.0000000000000000e+00 0.0000000000000000e+00 0.0000000000000000e+00  1.2188076438229292e+02 1.0259971127921969e+02 0.0000000000000000e+00 1.0259971127922066e+02 5.0415049780076788e+03 0.0000000000000000e+00 0.0000000000000000e+00 0.0000000000000000e+00 0.0000000000000000e+00  -4.5962573941911451e+01 -3.1285999621247690e+01 0.0000000000000000e+00 -3.1285999621247594e+01 5.4587346922615634e+03 0.0000000000000000e+00 0.0000000000000000e+00 0.0000000000000000e+00 0.0000000000000000e+00  4.8683531829032390e+01 4.6169104794663291e+01 0.0000000000000000e+00 4.6169104794663362e+01 5.9288469666596193e+03 0.0000000000000000e+00 0.0000000000000000e+00 0.0000000000000000e+00 0.0000000000000000e+00  -1.4029150987599387e+01 9.8309669846011047e+00 0.0000000000000000e+00 9.8309669846011012e+00 6.1714453975052829e+03 0.0000000000000000e+00 0.0000000000000000e+00 0.0000000000000000e+00 0.0000000000000000e+00  9.5662124237895085e+00 2.0327064793982125e+01 0.0000000000000000e+00 2.0327064793982231e+01 6.3446258996037122e+03 0.0000000000000000e+00 0.0000000000000000e+00 0.0000000000000000e+00 0.0000000000000000e+00  2.7462404735683466e+00 1.0418489642019255e+01 0.0000000000000000e+00 1.0418489642019331e+01 6.5148332154389936e+03 0.0000000000000000e+00 0.0000000000000000e+00 0.0000000000000000e+00 0.0000000000000000e+00  4.5091609800709822e+00 6.9288273937714653e+00 0.0000000000000000e+00 6.9288273937714520e+00 6.6074341923351603e+03 0.0000000000000000e+00 0.0000000000000000e+00 0.0000000000000000e+00 0.0000000000000000e+00  -2.5525854542563606e+00 9.4207701537822952e-01 0.0000000000000000e+00 9.4207701537822774e-01 6.6882286900236395e+03 0.0000000000000000e+00 0.0000000000000000e+00 0.0000000000000000e+00 0.0000000000000000e+00  4.3927493611580699e+00 3.6514792973784678e+00 0.0000000000000000e+00 3.6514792973785015e+00 6.7253101918324082e+03 0.0000000000000000e+00 0.0000000000000000e+00 0.0000000000000000e+00 0.0000000000000000e+00  -1.3539238195025136e+00 6.4926730529562482e-01 0.0000000000000000e+00 6.4926730529561560e-01 6.7624463981530325e+03 0.0000000000000000e+00 0.0000000000000000e+00 0.0000000000000000e+00 0.0000000000000000e+00  1.3046962501166292e+03 9.9395292712786807e+02 0.0000000000000000e+00 9.9395292712787182e+02 6.4405257026545951e+02 0.0000000000000000e+00 0.0000000000000000e+00 0.0000000000000000e+00 0.0000000000000000e+00  4.1649962059672034e+03 5.7829416521474177e+03 0.0000000000000000e+00 5.7829416521474113e+03 8.7966459561285374e+03 0.0000000000000000e+00 0.0000000000000000e+00 0.0000000000000000e+00 0.0000000000000000e+00  3.4133826866488257e+03 2.9155337009110485e+03 0.0000000000000000e+00 2.9155337009110490e+03 1.4459719726276380e+04 0.0000000000000000e+00 0.0000000000000000e+00 0.0000000000000000e+00 0.0000000000000000e+00  3.8738924760843061e+03 -2.6200062364343962e+03 0.0000000000000000e+00 -2.6200062364343985e+03 1.5433662148791465e+04 0.0000000000000000e+00 0.0000000000000000e+00 0.0000000000000000e+00 0.0000000000000000e+00  2.5116077125202960e+03 -5.3816791062913571e+03 0.0000000000000000e+00 -5.3816791062913535e+03 8.1998992297661189e+03 0.0000000000000000e+00 0.0000000000000000e+00 0.0000000000000000e+00 0.0000000000000000e+00  1.7148541831712137e+03 -1.4353623914779396e+03 0.0000000000000000e+00 -1.4353623914779378e+03 1.0197325979269825e+03 0.0000000000000000e+00 0.0000000000000000e+00 0.0000000000000000e+00 0.0000000000000000e+00  6.4600252408792497e-02 -3.6484398219886777e-01 0.0000000000000000e+00 -3.6484398219887254e-01 6.9950950821191427e+03 0.0000000000000000e+00 0.0000000000000