<?xml version="1.0"?>
<VTKFile type="UnstructuredGrid"  version="0.1"  >
<UnstructuredGrid>
<Piece  NumberOfPoints="2165" NumberOfCells="4161">
<Points>
<DataArray  type="Float64"  NumberOfComponents="3"  format="ascii">-3.598637933768527e-16 0.3500000000000001 0  0.05 0.4 0  -3.537405593811159e-16 0.45 0  0 1 0  1 1 0  0.9999999999999997 0.65 0  0.9999999999999997 0.5499999999999999 0  1 0 0  0 0 0  0.0191341716182545 0.3538060233744357 0  0.03535533905932737 0.3646446609406727 0  0.04619397662556433 0.3808658283817455 0  0.04619397662556434 0.4191341716182545 0  0.03535533905932738 0.4353553390593274 0  0.01913417161825449 0.4461939766255644 0  0 0.975 0  0 0.95 0  0 0.9249999999999999 0  0 0.8999999999999998 0  0 0.8749999999999998 0  0 0.8499999999999998 0  0 0.8249999999999997 0  0 0.7999999999999996 0  0 0.7749999999999996 0  0 0.7499999999999996 0  0 0.7249999999999996 0  0 0.6999999999999997 0  0 0.6749999999999998 0  0 0.6499999999999999 0  0 0.6249999999999999 0  0 0.6 0  0 0.575 0  0 0.5499999999999998 0  0 0.5249999999999999 0  0 0.4999999999999998 0  0 0.4749999999999999 0  0.975 1 0  0.95 1 0  0.925 1 0  0.9 1 0  0.875 1 0  0.85 1 0  0.825 1 0  0.8 1 0  0.775 1 0  0.75 1 0  0.725 1 0  0.7 1 0  0.675 1 0  0.65 1 0  0.625 1 0  0.6 1 0  0.575 1 0  0.55 1 0  0.525 1 0  0.5 1 0  0.475 1 0  0.45 1 0  0.425 1 0  0.4 1 0  0.375 1 0  0.35 1 0  0.325 1 0  0.3 1 0  0.275 1 0  0.25 1 0  0.225 1 0  0.2 1 0  0.175 1 0  0.15 1 0  0.125 1 0  0.09999999999999998 1 0  0.07499999999999996 1 0  0.05000000000000004 1 0  0.02500000000000002 1 0  1 0.675 0  1 0.7000000000000001 0  1 0.7250000000000001 0  1 0.7500000000000001 0  1 0.7750000000000001 0  1 0.8000000000000002 0  1 0.8250000000000002 0  1 0.8500000000000002 0  1 0.8750000000000003 0  1 0.9000000000000001 0  1 0.9250000000000002 0  1 0.9500000000000001 0  1 0.9750000000000001 0  0.9783058130441221 0.6450484433951209 0  0.9609084258765985 0.6311744900929367 0  0.9512536043909088 0.6111260466978157 0  0.9512536043909088 0.5888739533021843 0  0.9609084258765985 0.5688255099070633 0  0.9783058130441221 0.554951556604879 0  1 0.02500000000000002 0  1 0.05000000000000004 0  1 0.07500000000000008 0  1 0.1000000000000001 0  1 0.1250000000000001 0  1 0.1500000000000002 0  1 0.1750000000000002 0  1 0.2000000000000003 0  1 0.2250000000000003 0  1 0.2500000000000004 0  1 0.2750000000000004 0  1 0.3000000000000003 0  1 0.3250000000000002 0  1 0.3500000000000001 0  1 0.3750000000000001 0  1 0.3999999999999999 0  1 0.425 0  1 0.45 0  1 0.475 0  1 0.5000000000000001 0  1 0.5249999999999999 0  0.025 0 0  0.05 0 0  0.075 0 0  0.1 0 0  0.125 0 0  0.15 0 0  0.175 0 0  0.2 0 0  0.225 0 0  0.25 0 0  0.275 0 0  0.3 0 0  0.325 0 0  0.35 0 0  0.375 0 0  0.4 0 0  0.425 0 0  0.45 0 0  0.475 0 0  0.5 0 0  0.525 0 0  0.55 0 0  0.575 0 0  0.6 0 0  0.625 0 0  0.65 0 0  0.675 0 0  0.7 0 0  0.725 0 0  0.75 0 0  0.775 0 0  0.8 0 0  0.825 0 0  0.85 0 0  0.875 0 0  0.9 0 0  0.925 0 0  0.95 0 0  0.975 0 0  0 0.3250000000000001 0  0 0.3 0  0 0.275 0  0 0.2499999999999999 0  0 0.2249999999999999 0  0 0.1999999999999998 0  0 0.1749999999999998 0  0 0.1499999999999998 0  0 0.1249999999999998 0  0 0.09999999999999987 0  0 0.07499999999999984 0  0 0.04999999999999993 0  0 0.02500000000000002 0  0.06453325334544308 0.4134708543086404 0  0.5146839915088474 0.02134387884913819 0  0.4875871001393628 0.9784117024331356 0  0.9386300160094723 0.5701776715936071 0  0.0216506350946109 0.6124999999999999 0  0.9764205887290853 0.3596067946540696 0  0.3876261045932067 0.02156097490657183 0  0.6125 0.978349364905389 0  0.3612127461797463 0.9792371404802113 0  0.6374786650398092 0.02079982608537345 0  0.9387185538472446 0.6295115890709873 0  0.05482260092545593 0.3633687091864355 0  0.02445354803948679 0.7343198207875321 0  0.2624888813627476 0.02091671348578122 0  0.7375212991274043 0.9794996488945376 0  0.9793010831723812 0.2648509348664836 0  0.2625026480689301 0.9795699185263282 0  0.7362840788105066 0.02225211062275217 0  0.02159327910297104 0.2128861809896528 0  0.9786837570973538 0.7867241244631172 0  0.02419728000065929 0.8365600234152764 0  0.980043283615984 0.1624097203408714 0  0.1645857434226354 0.0205513501962844 0  0.8339481359352011 0.9784483546369231 0  0.1637584777222821 0.9774556328160621 0  0.8374916614314967 0.02165097219510076 0  0.02171915379676059 0.5370700005916152 0  0.9795335762511281 0.4365726939225819 0  0.02319480745007968 0.1370197632171214 0  0.9774462976085161 0.8592616917551974 0  0.9786941241076723 0.7122511101067891 0  0.9797883857882621 0.08781864217752949 0  0.01966314788989931 0.9125801876811624 0  0.02051815350151098 0.2882126194470174 0  0.09063226699593246 0.0214884092697174 0  0.9124408843562394 0.9818463395009377 0  0.03872465516591678 0.452731089005145 0  0.08969424365256845 0.978412979507602 0  0.9124999999999999 0.02165063509461096 0  0.02158104789437187 0.6619299176372371 0  0.9796602354625652 0.4859004208706154 0  0.3127517983598529 0.02417963694738812 0  0.4375629605000894 0.02158039900821679 0  0.5643674594196073 0.01968996000301126 0  0.5368361594956101 0.9790428840407062 0  0.4376176251051295 0.9783667484208922 0  0.6874072695660477 0.978435143102373 0  0.310604317388614 0.979558305560928 0  0.2125577044121564 0.02066685543111635 0  0.6875 0.0216506350946109 0  0.02224009810917643 0.08811420611559456 0  0.790876428529276 0.978633065284896 0  0.2125 0.978349364905389 0  0.9788033534786624 0.2116925349935155 0  0.9769441169344462 0.3150381335760689 0  0.9804648376981185 0.9123186437266726 0  0.7874999988222203 0.02127957051165741 0  0.02109233852270731 0.786866823287435 0  0.9483709287873718 0.5504073206521916 0  0.9259842326464427 0.5519702047534598 0  0.9163209045278007 0.5719292915927929 0  0.9035374059862284 0.5537291796040291 0  0.8938951918780048 0.5738949757882954 0  0.8807940177559743 0.5546750869516996 0  0.8712661812741653 0.5757142549099102 0  0.8580668865514332 0.5563902430113601 0  0.848508161986991 0.5779004013072002 0  0.8354274200119249 0.5591176379057713 0  0.8256349826905482 0.5800610629400762 0  0.8124123591208572 0.5604454546391737 0  0.802603410938817 0.5819653950592523 0  0.7892876429890218 0.562234610648543 0  0.7794355871850538 0.583896242519796 0  0.7661469824381839 0.5648243426306435 0  0.7562387679604726 0.5860005456930413 0  0.7429651600512166 0.5669367633461588 0  0.7330846968880171 0.5879590907760761 0  0.7198577999459205 0.5688986880627463 0  0.7297050500533544 0.5479561801187277 0  0.7066243396993471 0.5499068108517552 0  0.6968285086900206 0.5707989520567972 0  0.6836266810714333 0.5519088927359967 0  0.6738604685766018 0.5727655091567184 0  0.6607284761452521 0.5538781923028128 0  0.6697149783704412 0.5321140554135094 0  0.6473436039782401 0.5350050604671006 0  0.6378867365666199 0.5557804038095817 0  0.6246915360243652 0.5362124690568238 0  0.6151175309583405 0.5575933164645619 0  0.6019784180102355 0.5380659376543677 0  0.5924099113505394 0.5593739656462906 0  0.5794110962027638 0.541110021814312 0  0.5697985396917309 0.5614600003719357 0  0.5568468707330213 0.5433212932327446 0  0.5472634011377896 0.5635652141280936 0  0.5343236363495072 0.5451361960661517 0  0.5247877773262166 0.565493591892781 0  0.5118927934227436 0.5470665328397559 0  0.5023398230005425 0.5674381114577953 0  0.5213991904098014 0.5267047787870831 0  0.4990390504096661 0.528649139287786 0  0.6328887517229864 0.5131744321062524 0  0.5085133205790763 0.5083322037773296 0  0.4861972978925295 0.5102540920324363 0  0.4956914791804768 0.4899605513008993 0  0.4734139980312694 0.4918582759645476 0  0.4826986629698439 0.4717164019717278 0  0.460570567761715 0.473509155475794 0  0.4699344541058981 0.4533140529328089 0  0.4477087341565655 0.4550973130597117 0  0.4381733274019614 0.4752901381741884 0  0.4570222843287571 0.4349938694701042 0  0.4348599018247688 0.436728068420533 0  0.5604623134382263 0.581815997002507 0  0.4443612964408632 0.416499823314016 0  0.422056299386984 0.4183730429856528 0  0.4688721528228815 0.4135009841763965 0  0.4315584877924544 0.398120546824229 0  0.4092288692044618 0.3999974286008185 0  0.7463210599443056 0.6070829843371945 0  0.4187270626688335 0.3797365044773463 0  0.3964262302393312 0.3817184136470017 0  0.3869780036193907 0.4018498778543814 0  0.3742423843122406 0.3837055716372927 0  0.3648701490102072 0.4037049758807119 0  0.3518115403926748 0.3858985036587403 0  0.3426146276710081 0.4056777495658291 0  0.3614541441355358 0.3656396497906528 0  0.339026673715919 0.3678724679736439 0  0.3485566370135618 0.3476560889674916 0  0.3264681821394378 0.3496422822523857 0  0.8219942777991693 0.5379143061758643 0  0.3358297439968608 0.3295117748868035 0  0.3137050884585635 0.3314921667582986 0  0.3229980644152205 0.3113561769498422 0  0.3007986024336577 0.3133063832007756 0  0.3441851868720173 0.3085211458266175 0  0.3101966551534752 0.2930273704914169 0  0.287793053707373 0.2950088132226583 0  0.2914417217227097 0.3337427541189321 0  0.2975120686695638 0.2743682539701985 0  0.274864585256681 0.2764253296978281 0  0.816026571618698 0.6006851919544112 0  0.2844672854128698 0.2557011565880619 0  0.2617267434509338 0.2577713002235077 0  0.3072711221189672 0.2536790056475094 0  0.2521588568690318 0.2785072139143895 0  0.2389277409161178 0.2598761196336353 0  0.248448076747058 0.2389478879785275 0  0.5053822153261678 0.4716915524631118 0  0.229548765875869 0.2806542761043101 0  0.2254561407802683 0.2411354049374563 0  0.2350621310805047 0.2199181955146378 0  0.2117782450160163 0.222165061041625 0  0.2214249125635323 0.2008136877065064 0  0.2448758256083499 0.1985732693215908 0  0.197966291680556 0.2031211006951591 0  0.1883147493074436 0.2245564097761413 0  0.8910637266939049 0.5322898364209732 0  0.1748136087708587 0.2051141748992724 0  0.1842088801696792 0.1837087814679069 0  0.1656574100807746 0.2269812054689968 0  0.3554582346764377 0.4236292557112198 0  0.3328979939923831 0.425459320867588 0  0.3460368767112177 0.4435398346083328 0  0.3238464003
[...]
<PointData  Tensors="$\sigma$"> 
<DataArray  type="Float64"  Name="$\sigma$"  NumberOfComponents="9" format="ascii">-5.5786199238330614e-01 -3.3682470055696264e+01 0.0000000000000000e+00 -3.3682470055696264e+01 -6.9493422106865026e+01 0.0000000000000000e+00 0.0000000000000000e+00 0.0000000000000000e+00 0.0000000000000000e+00  2.3050038743875129e+02 -1.2011474602781178e+00 0.0000000000000000e+00 -1.2011474602781178e+00 2.1718858769615426e+03 0.0000000000000000e+00 0.0000000000000000e+00 0.0000000000000000e+00 0.0000000000000000e+00  1.0783877082995417e+00 3.8831301856465714e+01 0.0000000000000000e+00 3.8831301856465714e+01 -7.3506265058422670e+01 0.0000000000000000e+00 0.0000000000000000e+00 0.0000000000000000e+00 0.0000000000000000e+00  -2.3956129071273761e-02 7.4618622646231994e-02 0.0000000000000000e+00 7.4618622646231911e-02 7.0420605669770498e+02 0.0000000000000000e+00 0.0000000000000000e+00 0.0000000000000000e+00 0.0000000000000000e+00  -1.8133180141078725e-01 -3.6895160134495807e-02 0.0000000000000000e+00 -3.6895160134495550e-02 6.8391854857513988e+02 0.0000000000000000e+00 0.0000000000000000e+00 0.0000000000000000e+00 0.0000000000000000e+00  1.4409647759520903e+01 -3.7192131731304947e+01 0.0000000000000000e+00 -3.7192131731304947e+01 9.6397577291639429e+00 0.0000000000000000e+00 0.0000000000000000e+00 0.0000000000000000e+00 0.0000000000000000e+00  3.7561857887289975e+01 -2.7751812277217798e+01 0.0000000000000000e+00 -2.7751812277217798e+01 3.1818305265194798e+01 0.0000000000000000e+00 0.0000000000000000e+00 0.0000000000000000e+00 0.0000000000000000e+00  -9.1316731752019306e-02 -5.6858839096301985e-03 0.0000000000000000e+00 -5.6858839096301985e-03 7.0483224769438698e+02 0.0000000000000000e+00 0.0000000000000000e+00 0.0000000000000000e+00 0.0000000000000000e+00  1.8834703965567851e+02 8.1276197001974921e+01 0.0000000000000000e+00 8.1276197001974921e+01 7.3515802679451269e+02 0.0000000000000000e+00 0.0000000000000000e+00 0.0000000000000000e+00 0.0000000000000000e+00  1.1193679712065584e+02 1.2844901518782717e+02 0.0000000000000000e+00 1.2844901518782717e+02 1.5054289719058431e+02 0.0000000000000000e+00 0.0000000000000000e+00 0.0000000000000000e+00 0.0000000000000000e+00  3.1914373466811480e+02 4.1820924707306648e+02 0.0000000000000000e+00 4.1820924707306648e+02 7.2379930135269490e+02 0.0000000000000000e+00 0.0000000000000000e+00 0.0000000000000000e+00 0.0000000000000000e+00  3.1667833760068856e+02 4.5465420056573316e+02 0.0000000000000000e+00 4.5465420056573316e+02 1.6931911304300947e+03 0.0000000000000000e+00 0.0000000000000000e+00 0.0000000000000000e+00 0.0000000000000000e+00  3.1253994925856517e+02 -4.6555362238385783e+02 0.0000000000000000e+00 -4.6555362238385783e+02 1.6950887332963055e+03 0.0000000000000000e+00 0.0000000000000000e+00 0.0000000000000000e+00 0.0000000000000000e+00  3.2151499161675275e+02 -4.1264777192023132e+02 0.0000000000000000e+00 -4.1264777192023132e+02 7.5363508126638044e+02 0.0000000000000000e+00 0.0000000000000000e+00 0.0000000000000000e+00 0.0000000000000000e+00  1.0994674540409416e+02 -1.2923961654440049e+02 0.0000000000000000e+00 -1.2923961654440049e+02 1.5110371557062916e+02 0.0000000000000000e+00 0.0000000000000000e+00 0.0000000000000000e+00 0.0000000000000000e+00  -1.6038284815779989e-02 -8.4541137137723488e-02 0.0000000000000000e+00 -8.4541137137723391e-02 7.0390801853685798e+02 0.0000000000000000e+00 0.0000000000000000e+00 0.0000000000000000e+00 0.0000000000000000e+00  4.3796122420751088e-03 -1.6582188175527446e-01 0.0000000000000000e+00 -1.6582188175527429e-01 7.0345983124148847e+02 0.0000000000000000e+00 0.0000000000000000e+00 0.0000000000000000e+00 0.0000000000000000e+00  -6.8438633082658837e-03 -1.5997344064483413e-01 0.0000000000000000e+00 -1.5997344064483424e-01 7.0249097388087762e+02 0.0000000000000000e+00 0.0000000000000000e+00 0.0000000000000000e+00 0.0000000000000000e+00  -1.0902835888150773e-02 -2.4366569490818726e-01 0.0000000000000000e+00 -2.4366569490818749e-01 7.0109122346816707e+02 0.0000000000000000e+00 0.0000000000000000e+00 0.0000000000000000e+00 0.0000000000000000e+00  -2.1733822794933046e-02 -3.5409336269710523e-01 0.0000000000000000e+00 -3.5409336269710451e-01 6.9940570064589883e+02 0.0000000000000000e+00 0.0000000000000000e+00 0.0000000000000000e+00 0.0000000000000000e+00  3.1835345220542370e-02 -5.3342793271690458e-01 0.0000000000000000e+00 -5.3342793271690425e-01 6.9741008051539654e+02 0.0000000000000000e+00 0.0000000000000000e+00 0.0000000000000000e+00 0.0000000000000000e+00  4.9650258940403588e-03 -5.1072024956150786e-01 0.0000000000000000e+00 -5.1072024956150819e-01 6.9394749139093176e+02 0.0000000000000000e+00 0.0000000000000000e+00 0.0000000000000000e+00 0.0000000000000000e+00  3.5563740581228402e-02 -7.4098077300168397e-01 0.0000000000000000e+00 -7.4098077300168397e-01 6.9084047444583018e+02 0.0000000000000000e+00 0.0000000000000000e+00 0.0000000000000000e+00 0.0000000000000000e+00  -2.7307127806169656e-02 -9.8488110952263608e-01 0.0000000000000000e+00 -9.8488110952263608e-01 6.8631376212522548e+02 0.0000000000000000e+00 0.0000000000000000e+00 0.0000000000000000e+00 0.0000000000000000e+00  1.5071929810048471e-01 -9.4131903890159130e-01 0.0000000000000000e+00 -9.4131903890159130e-01 6.8183953866792308e+02 0.0000000000000000e+00 0.0000000000000000e+00 0.0000000000000000e+00 0.0000000000000000e+00  -1.6559863239276387e-01 -1.3779950107104646e+00 0.0000000000000000e+00 -1.3779950107104646e+00 6.7253689744454573e+02 0.0000000000000000e+00 0.0000000000000000e+00 0.0000000000000000e+00 0.0000000000000000e+00  -6.4962946405493244e-02 -2.1523071737377730e+00 0.0000000000000000e+00 -2.1523071737377730e+00 6.6740864239894506e+02 0.0000000000000000e+00 0.0000000000000000e+00 0.0000000000000000e+00 0.0000000000000000e+00  -5.8836212423479133e-02 -1.9192891836444221e+00 0.0000000000000000e+00 -1.9192891836444221e+00 6.5432177814862689e+02 0.0000000000000000e+00 0.0000000000000000e+00 0.0000000000000000e+00 0.0000000000000000e+00  1.8464553301820627e-01 -2.8551375044873906e+00 0.0000000000000000e+00 -2.8551375044873906e+00 6.4123803051849802e+02 0.0000000000000000e+00 0.0000000000000000e+00 0.0000000000000000e+00 0.0000000000000000e+00  2.5739192788550747e-01 -2.8473701549545756e+00 0.0000000000000000e+00 -2.8473701549545756e+00 6.2159226832986531e+02 0.0000000000000000e+00 0.0000000000000000e+00 0.0000000000000000e+00 0.0000000000000000e+00  -3.2999819935237418e-01 -5.0576405788753078e+00 0.0000000000000000e+00 -5.0576405788753078e+00 5.9686554662178457e+02 0.0000000000000000e+00 0.0000000000000000e+00 0.0000000000000000e+00 0.0000000000000000e+00  1.4424587726060931e-01 -9.8112364074860636e+00 0.0000000000000000e+00 -9.8112364074860636e+00 5.5905231385129844e+02 0.0000000000000000e+00 0.0000000000000000e+00 0.0000000000000000e+00 0.0000000000000000e+00  -1.3154512949494730e-02 -1.2024428996893114e+01 0.0000000000000000e+00 -1.2024428996893114e+01 5.0084265488499653e+02 0.0000000000000000e+00 0.0000000000000000e+00 0.0000000000000000e+00 0.0000000000000000e+00  -3.3216865768206634e+00 -2.4853616459441163e+01 0.0000000000000000e+00 -2.4853616459441163e+01 4.1809082387429510e+02 0.0000000000000000e+00 0.0000000000000000e+00 0.0000000000000000e+00 0.0000000000000000e+00  -7.1813138596119268e+00 -3.6966671901197053e+01 0.0000000000000000e+00 -3.6966671901197053e+01 2.8401575903598496e+02 0.0000000000000000e+00 0.0000000000000000e+00 0.0000000000000000e+00 0.0000000000000000e+00  2.0371064285741536e+01 -2.8682006034433098e+01 0.0000000000000000e+00 -2.8682006034433098e+01 1.2488216393605333e+02 0.0000000000000000e+00 0.0000000000000000e+00 0.0000000000000000e+00 0.0000000000000000e+00  -5.2149654974243498e-01 5.8152059230062822e-02 0.0000000000000000e+00 5.8152059230062156e-02 6.8562049060679374e+02 0.0000000000000000e+00 0.0000000000000000e+00 0.0000000000000000e+00 0.0000000000000000e+00  -2.8696821107643995e+00 1.4104481084169138e-01 0.0000000000000000e+00 1.4104481084169085e-01 6.8990855274860735e+02 0.0000000000000000e+00 0.0000000000000000e+00 0.0000000000000000e+00 0.0000000000000000e+00  -6.3076048519130277e+00 2.8328731629807785e-01 0.0000000000000000e+00 2.8328731629807796e-01 6.9632294422510461e+02 0.0000000000000000e+00 0.0000000000000000e+00 0.0000000000000000e+00 0.0000000000000000e+00  -1.0532945157528282e+01 2.8473426696166926e-01 0.0000000000000000e+00 2.8473426696166926e-01 7.0346923909724649e+02 0.0000000000000000e+00 0.0000000000000000e+00 0.0000000000000000e+00 0.0000000000000000e+00  -1.3837450783988062e+01 5.1157369192615521e-01 0.0000000000000000e+00 5.1157369192615665e-01 7.1305010451747205e+02 0.0000000000000000e+00 0.0000000000000000e+00 0.0000000000000000e+00 0.0000000000000000e+00  -1.7587160897741221e+01 7.9160406946734235e-02 0.0000000000000000e+00 7.9160406946733916e-02 7.2234907706468869e+02 0.0000000000000000e+00 0.0000000000000000e+00 0.0000000000000000e+00 0.0000000000000000e+00  -2.1143319240713883e+01 -2.9004244826572566e-02 0.0000000000000000e+00 -2.9004244826572278e-02 7.2982311001111623e+02 0.0000000000000000e+00 0.0000000000000000e+00 0.0000000000000000e+00 0.0000000000000000e+00  -2.2462462843837390e+01 -5.4997211572572653e-02 0.0000000000000000e+00 -5.4997211572572417e-02 7.3832821366478288e+02 0.0000000000000000e+00 0.0000000000000000e+00 0.0000000000000000e+00 0.0000000000000000e+00  -2.4347501551870288e+01 9.5598698881652778e-03 0.0000000000000000e+00 9.5598698881653264e-03 7.4342165819464503e+02 0.0000000000000000e+00 0.0000000000000000e+00 0.0000000000000000e+00 0.0000000000000000e+00  -2.5428285057796792e+01 -1.4310162025119658e-01 0.0000000000000000e+00 -1.4310162025119660e-01 7.4856548339372955e+02 0.0000000000000000e+00 0.0000000000000000e+00 0.0000000000000000e+00 0.0000000000000000e+00  -2.5604803180601039e+01 -2.2030147940585879e-01 0.0000000000000000e+00 -2.2030147940585879e-01 7.5266188258432567e+02 0.0000000000000000e+00 0.0000000000000000e+00 0.0000000000000000e+00 0.0000000000000000e+00  -2.5269949744269738e+01 -2.0833385218732553e-01 0.0000000000000000e+00 -2.0833385218732553e-01 7.5531239574031588e+02 0.0000000000000000e+00 0.0000000000000000e+00 0.0000000000000000e+00 0.0000000000000000e+00  -2.4671059988460289e+01 -1.6809782183888186e-01 0.0000000000000000e+00 -1.6809782183888186e-01 7.5723164798307141e+02 0.0000000000000000e+00 0.0000000000000000e+00 0.0000000000000000e+00 0.0000000000000000e+00  -2.3881033637700909e+01 -1.7698632147172638e-01 0.0000000000000000e+00 -1.7698632147172638e-01 7.5841247521770970e+02 0.0000000000000000e+00 0.0000000000000000e+00 0.0000000000000000e+00 0.0000000000000000e+00  -2.2872714826283278e+01 -1.6987376531868953e-01 0.0000000000000000e+00 -1.6987376531868956e-01 7.5888049750390837e+02 0.0000000000000000e+00 0.0000000000000000e+00 0.0000000000000000e+00 0.0000000000000000e+00  -2.1853688521321658e+01 -1.5195876201743810e-01 0.0000000000000000e+00 -1.5195876201743810e-01 7.5889487483769869e+02 0.0000000000000000e+00 0.0000000000000000e+00 0.0000000000000000e+00 0.0000000000000000e+00  -2.0840503138747785e+01 -1.2833985589011354e-01 0.0000000000000000e+00 -1.2833985589011337e-01 7.5848010286794897e+02 0.0000000000000000e+00 0.0000000000000000e+00 0.0000000000000000e+00 0.0000000000000000e+00  -1.9880927437107506e+01 -1.0657477600601827e-01 0.0000000000000000e+00 -1.0657477600601824e-01 7.5776523996801291e+02 0.0000000000000000e+00 0.0000000000000000e+00 0.0000000000000000e+00 0.0000000000000000e+00  -1.8970882568825619e+01 -7.9135296150845177e-02 0.0000000000000000e+00 -7.9135296150845483e-02 7.5677411738242040e+02 0.0000000000000000e+00 0.0000000000000000e+00 0.0000000000000000e+00 0.0000000000000000e+00  -1.8153902178242252e+01 -5.2551984812538810e-02 0.0000000000000000e+00 -5.2551984812538650e-02 7.5553454172076817e+02 0.0000000000000000e+00 0.0000000000000000e+00 0.0000000000000000e+00 0.0000000000000000e+00  -1.7400214442903561e+01 -3.2616622583947701e-02 0.0000000000000000e+00 -3.2616622583947728e-02 7.5411261911719077e+02 0.0000000000000000e+00 0.0000000000000000e+00 0.0000000000000000e+00 0.0000000000000000e+00  -1.6691697527345926e+01 -1.3495530262107014e-02 0.0000000000000000e+00 -1.3495530262107014e-02 7.5247752676058371e+02 0.0000000000000000e+00 0.0000000000000000e+00 0.0000000000000000e+00 0.0000000000000000e+00  -1.6035894117638360e+01 4.5958598623730140e-03 0.0000000000000000e+00 4.5958598623730140e-03 7.5063916085685219e+02 0.0000000000000000e+00 0.0000000000000000e+00 0.0000000000000000e+00 0.0000000000000000e+00  -1.5361000949241724e+01 -8.1843298711706917e-03 0.0000000000000000e+00 -8.1843298711706917e-03 7.4857869905007533e+02 0.0000000000000000e+00 0.0000000000000000e+00 0.0000000000000000e+00 0.0000000000000000e+00  -1.4686347157897535e+01 5.5574853685834364e-03 0.0000000000000000e+00 5.5574853685834364e-03 7.4639350468043267e+02 0.0000000000000000e+00 0.0000000000000000e+00 0.0000000000000000e+00 0.0000000000000000e+00  -1.3931307358987755e+01 1.4386676778003080e-02 0.0000000000000000e+00 1.4386676778003080e-02 7.4387523762249214e+02 0.0000000000000000e+00 0.0000000000000000e+00 0.0000000000000000e+00 0.0000000000000000e+00  -1.3147945329456103e+01 2.4727778563770366e-02 0.0000000000000000e+00 2.4727778563770366e-02 7.4109874413897899e+02 0.0000000000000000e+00 0.0000000000000000e+00 0.0000000000000000e+00 0.0000000000000000e+00  -1.2260609716116953e+01 6.5271372932504479e-03 0.0000000000000000e+00 6.5271372932504479e-03 7.3823834000779425e+02 0.0000000000000000e+00 0.0000000000000000e+00 0.0000000000000000e+00 0.0000000000000000e+00  -1.1255618210944396e+01 1.8607186273325159e-02 0.0000000000000000e+00 1.8607186273325162e-02 7.3517071124677682e+02 0.0000000000000000e+00 0.0000000000000000e+00 0.0000000000000000e+00 0.0000000000000000e+00  -1.0223917684795856e+01 1.4480323245500836e-02 0.0000000000000000e+00 1.4480323245500828e-02 7.3178455065220726e+02 0.0000000000000000e+00 0.0000000000000000e+00 0.0000000000000000e+00 0.0000000000000000e+00  -8.9390134081141728e+00 1.6460577481341193e-02 0.0000000000000000e+00 1.6460577481341297e-02 7.2841764124855149e+02 0.0000000000000000e+00 0.0000000000000000e+00 0.0000000000000000e+00 0.0000000000000000e+00  -7.7746239090937328e+00 -2.1469455557721194e-02 0.0000000000000000e+00 -2.1469455557721139e-02 7.2477010717304540e+02 0.0000000000000000e+00 0.0000000000000000e+00 0.0000000000000000e+00 0.0000000000000000e+00  -6.3539660937563038e+00 -3.7902743958604997e-02 0.0000000000000000e+00 -3.7902743958605448e-02 7.2120327387679129e+02 0.0000000000000000e+00 0.0000000000000000e+00 0.0000000000000000e+00 0.0000000000000000e+00  -5.0028001400401871e+00 -5.5002442129324244e-02 0.0000000000000000e+00 -5.5002442129324473e-02 7.1788341492011205e+02 0.0000000000000000e+00 0.0000000000000000e+00 0.0000000000000000e+00 0.0000000000000000e+00  -3.6715124654256299e+00 -2.0840829437762758e-02 0.0000000000000000e+00 -2.0840829437762685e-02 7.1461725416719707e+02 0.0000000000000000e+00 0.0000000000000000e+00 0.0000000000000000e+00 0.0000000000000000e+00  -2.4761590423546886e+00 -1.0759786119031242e-02 0.0000000000000000e+00 -1.0759786119030890e-02 7.1148957656578898e+02 0.0000000000000000e+00 0.0000000000000000e+00 0.0000000000000000e+00 0.0000000000000000e+00  -1.4590697145119806e+00 -1.2475485680865419e-02 0.0000000000000000e+00 -1.2475485680865442e-02 7.0884163750875996e+02 0.0000000000000000e+00 0.0000000000000000e+00 0.0000000000000000e+00 0.0000000000000000e+00  -6.6675884151497411e-01 3.6012565935846313e-03 0.0000000000000000e+00 3.6012565935847167e-03 7.0659264533370765e+02 0.0000000000000000e+00 0.0000000000000000e+00 0.0000000000000000e+00 0.0000000000000000e+00  -9.6768723562265624e-02 4.4773965229071698e-02 0.0000000000000000e+00 4.4773965229071636e-02 7.0512767676279418e+02 0.0000000000000000e+00 0.0000000000000000e+00 0.0000000000000000e+00 0.0000000000000000e+00  2.6409342501854095e+01 2.6881366864699046e+01 0.0000000000000000e+00 2.6881366864699046e+01 9.8518417315123131e+01 0.0000000000000000e+00 0.0000000000000000e+00 0.0000000000000000e+00 0.0000000000000000e+00  5.8468135300199240e+00 3.0850251622260700e+01 0.0000000000000000e+00 3.0850251622260700e+01 2.9936852829308384e+02 0.0000000000000000e+00 0.0000000000000000e+00 0.0000000000000000e+00 0.0000000000000000e+00  5.9754569949274738e-01 1.8609603650683450e+01 0.0000000000000000e+00 1.8609603650683450e+01 4.2676670762198364e+02 0.0000000000000000e+00 0.0000000000000000e+00 0.0000000000000000e+00 0.0000000000000000e+00  1.1429941122914626e+00 1.1465795714623589e+01 0.0000000000000000e+00 1.1465795714623589e+01 5.1463244793417721e+02 0.0000000000000000e+00 0.0000000000000000e+00 0.0000000000000000e+00 0.0000000000000000e+00  1.3488313330838386e-01 6.2728192855208711e+00 0.0000000000000000e+00 6.2728192855208711e+00 5.6727844302535664e+02 0.0000000000000000e+00 0.0000000000000000e+00 0.0000000000000000e+00 0.0000000000000000e+00  4.6112586864508376e-01 4.1700561417669766e+00 0.0000000000000000e+00 4.1700561417669766e+00 6.0259344124943732e+02 0.0000000000000000e+00 0.0000000000000000e+00 0.0000000000000000e+00 0.0000000000000000e+00  -1.0561730343056292e-02 4.5703489538587654e+00 0.0000000000000000e+00 4.5703489538587654e+00 6.3092199107609531e+02 0.0000000000000000e+00 0.0000000000000000e+00 0.0000000000000000e+00 0.0000000000000000e+00  -6.9121665430961743e-01 2.9556060913879816e+00 0.0000000000000000e+00 2.9556060913879794e+00 6.4404663961887604e+02 0.0000000000000000e+00 0.0000000000000000e+00 0.0000000000000000e+00 0.0000000000000000e+00  1.2453623665358986e-01 1.9174970127175457e+00 0.0000000000000000e+00 1.9174970127175477e+00 6.6097790630809277e+02 0.0000000000000000e+00 0.0000000000000000e+00 0.0000000000000000e+00 0.0000000000000000e+00  -2.7314156125724808e-02 1.5715441239736705e+00 0.0000000000000000e+00 1.5715441239736727e+00 6.6983442547380946e+02 0.0000000000000000e+00 0.0000000000000000e+00 0.0000000000000000e+00 0.0000000000000000e+00  -1.0961267942372922e-01 6.7159053155071424e-01 0.0000000000000000e+00 6.7159053155071469e-01 6.7624370357613736e+02 0.0000000000000000e+00 0.0000000000000000e+00 0.0000000000000000e+00 0.0000000000000000e+00  1.4669911984403336e-01 4.2026749289728532e-01 0.0000000000000000e+00 4.2026749289728493e-01 6.8045507248783201e+02 0.0000000000000000e+00 0.0000000000000000e+00 0.0000000000000000e+00 0.0000000000000000e+00  -3.8198334448608859e-02 2.7387100068098097e-01 0.0000000000000000e+00 2.7387100068098030e-01 6.8344198801661673e+02 0.0000000000000000e+00 0.0000000000000000e+00 0.0000000000000000e+00 0.0000000000000000e+00  1.4802496556264333e+02 1.8179387393057300e+02 0.0000000000000000e+00 1.8179387393057300e+02 2.0968742308281639e+02 0.0000000000000000e+00 0.0000000000000000e+00 0.0000000000000000e+00 0.0000000000000000e+00  3.7120951275560134e+02 4.7021380282845814e+02 0.0000000000000000e+00 4.7021380282845814e+02 1.0715650800410904e+03 0.0000000000000000e+00 0.0000000000000000e+00 0.0000000000000000e+00 0.0000000000000000e+00  1.9725253079648002e+02 3.1708435845711563e+02 0.0000000000000000e+00 3.1708435845711563e+02 2.0023082727653320e+03 0.0000000000000000e+00 0.0000000000000000e+00 0.0000000000000000e+00 0.0000000000000000e+00  3.1384675572566260e+02 -1.9497341529091977e+02 0.0000000000000000e+00 -1.9497341529091977e+02 1.8199731869461714e+03 0.0000000000000000e+00 0.0000000000000000e+00 0.0000000000000000e+00 0.0000000000000000e+00  2.5663081079678528e+02 -4.9108678481151514e+02 0.0000000000000000e+00 -4.9108678481151514e+02 1.1077745346120430e+03 0.0000000000000000e+00 0.0000000000000000e+00 0.0000000000000000e+00 0.0000000000000000e+00  1.1894163311153056e+02 -1.7995005531694559e+02 0.0000000000000000e+00 -1.7995005531694559e+02 2.6524727995320922e+02 0.0000000000000000e+00 0.0000000000000000e+00 0.0000000000000000e+00 0.0000000000000000e+00  8.5551245601669518e-03 -1.1106041119916689e-01 0.0000000000000000e+00 -1.1106041119916689e-01 7.0462226113897020e+02 0.0000000000000000e+00 0.0000000000000000e+