<?xml version="1.0"?>
<VTKFile type="UnstructuredGrid"  version="0.1"  >
<UnstructuredGrid>
<Piece  NumberOfPoints="2165" NumberOfCells="4161">
<Points>
<DataArray  type="Float64"  NumberOfComponents="3"  format="ascii">-3.598637933768527e-16 0.3500000000000001 0  0.05 0.4 0  -3.537405593811159e-16 0.45 0  0 1 0  1 1 0  0.9999999999999997 0.65 0  0.9999999999999997 0.5499999999999999 0  1 0 0  0 0 0  0.0191341716182545 0.3538060233744357 0  0.03535533905932737 0.3646446609406727 0  0.04619397662556433 0.3808658283817455 0  0.04619397662556434 0.4191341716182545 0  0.03535533905932738 0.4353553390593274 0  0.01913417161825449 0.4461939766255644 0  0 0.975 0  0 0.95 0  0 0.9249999999999999 0  0 0.8999999999999998 0  0 0.8749999999999998 0  0 0.8499999999999998 0  0 0.8249999999999997 0  0 0.7999999999999996 0  0 0.7749999999999996 0  0 0.7499999999999996 0  0 0.7249999999999996 0  0 0.6999999999999997 0  0 0.6749999999999998 0  0 0.6499999999999999 0  0 0.6249999999999999 0  0 0.6 0  0 0.575 0  0 0.5499999999999998 0  0 0.5249999999999999 0  0 0.4999999999999998 0  0 0.4749999999999999 0  0.975 1 0  0.95 1 0  0.925 1 0  0.9 1 0  0.875 1 0  0.85 1 0  0.825 1 0  0.8 1 0  0.775 1 0  0.75 1 0  0.725 1 0  0.7 1 0  0.675 1 0  0.65 1 0  0.625 1 0  0.6 1 0  0.575 1 0  0.55 1 0  0.525 1 0  0.5 1 0  0.475 1 0  0.45 1 0  0.425 1 0  0.4 1 0  0.375 1 0  0.35 1 0  0.325 1 0  0.3 1 0  0.275 1 0  0.25 1 0  0.225 1 0  0.2 1 0  0.175 1 0  0.15 1 0  0.125 1 0  0.09999999999999998 1 0  0.07499999999999996 1 0  0.05000000000000004 1 0  0.02500000000000002 1 0  1 0.675 0  1 0.7000000000000001 0  1 0.7250000000000001 0  1 0.7500000000000001 0  1 0.7750000000000001 0  1 0.8000000000000002 0  1 0.8250000000000002 0  1 0.8500000000000002 0  1 0.8750000000000003 0  1 0.9000000000000001 0  1 0.9250000000000002 0  1 0.9500000000000001 0  1 0.9750000000000001 0  0.9783058130441221 0.6450484433951209 0  0.9609084258765985 0.6311744900929367 0  0.9512536043909088 0.6111260466978157 0  0.9512536043909088 0.5888739533021843 0  0.9609084258765985 0.5688255099070633 0  0.9783058130441221 0.554951556604879 0  1 0.02500000000000002 0  1 0.05000000000000004 0  1 0.07500000000000008 0  1 0.1000000000000001 0  1 0.1250000000000001 0  1 0.1500000000000002 0  1 0.1750000000000002 0  1 0.2000000000000003 0  1 0.2250000000000003 0  1 0.2500000000000004 0  1 0.2750000000000004 0  1 0.3000000000000003 0  1 0.3250000000000002 0  1 0.3500000000000001 0  1 0.3750000000000001 0  1 0.3999999999999999 0  1 0.425 0  1 0.45 0  1 0.475 0  1 0.5000000000000001 0  1 0.5249999999999999 0  0.025 0 0  0.05 0 0  0.075 0 0  0.1 0 0  0.125 0 0  0.15 0 0  0.175 0 0  0.2 0 0  0.225 0 0  0.25 0 0  0.275 0 0  0.3 0 0  0.325 0 0  0.35 0 0  0.375 0 0  0.4 0 0  0.425 0 0  0.45 0 0  0.475 0 0  0.5 0 0  0.525 0 0  0.55 0 0  0.575 0 0  0.6 0 0  0.625 0 0  0.65 0 0  0.675 0 0  0.7 0 0  0.725 0 0  0.75 0 0  0.775 0 0  0.8 0 0  0.825 0 0  0.85 0 0  0.875 0 0  0.9 0 0  0.925 0 0  0.95 0 0  0.975 0 0  0 0.3250000000000001 0  0 0.3 0  0 0.275 0  0 0.2499999999999999 0  0 0.2249999999999999 0  0 0.1999999999999998 0  0 0.1749999999999998 0  0 0.1499999999999998 0  0 0.1249999999999998 0  0 0.09999999999999987 0  0 0.07499999999999984 0  0 0.04999999999999993 0  0 0.02500000000000002 0  0.06453325334544308 0.4134708543086404 0  0.5146839915088474 0.02134387884913819 0  0.4875871001393628 0.9784117024331356 0  0.9386300160094723 0.5701776715936071 0  0.0216506350946109 0.6124999999999999 0  0.9764205887290853 0.3596067946540696 0  0.3876261045932067 0.02156097490657183 0  0.6125 0.978349364905389 0  0.3612127461797463 0.9792371404802113 0  0.6374786650398092 0.02079982608537345 0  0.9387185538472446 0.6295115890709873 0  0.05482260092545593 0.3633687091864355 0  0.02445354803948679 0.7343198207875321 0  0.2624888813627476 0.02091671348578122 0  0.7375212991274043 0.9794996488945376 0  0.9793010831723812 0.2648509348664836 0  0.2625026480689301 0.9795699185263282 0  0.7362840788105066 0.02225211062275217 0  0.02159327910297104 0.2128861809896528 0  0.9786837570973538 0.7867241244631172 0  0.02419728000065929 0.8365600234152764 0  0.980043283615984 0.1624097203408714 0  0.1645857434226354 0.0205513501962844 0  0.8339481359352011 0.9784483546369231 0  0.1637584777222821 0.9774556328160621 0  0.8374916614314967 0.02165097219510076 0  0.02171915379676059 0.5370700005916152 0  0.9795335762511281 0.4365726939225819 0  0.02319480745007968 0.1370197632171214 0  0.9774462976085161 0.8592616917551974 0  0.9786941241076723 0.7122511101067891 0  0.9797883857882621 0.08781864217752949 0  0.01966314788989931 0.9125801876811624 0  0.02051815350151098 0.2882126194470174 0  0.09063226699593246 0.0214884092697174 0  0.9124408843562394 0.9818463395009377 0  0.03872465516591678 0.452731089005145 0  0.08969424365256845 0.978412979507602 0  0.9124999999999999 0.02165063509461096 0  0.02158104789437187 0.6619299176372371 0  0.9796602354625652 0.4859004208706154 0  0.3127517983598529 0.02417963694738812 0  0.4375629605000894 0.02158039900821679 0  0.5643674594196073 0.01968996000301126 0  0.5368361594956101 0.9790428840407062 0  0.4376176251051295 0.9783667484208922 0  0.6874072695660477 0.978435143102373 0  0.310604317388614 0.979558305560928 0  0.2125577044121564 0.02066685543111635 0  0.6875 0.0216506350946109 0  0.02224009810917643 0.08811420611559456 0  0.790876428529276 0.978633065284896 0  0.2125 0.978349364905389 0  0.9788033534786624 0.2116925349935155 0  0.9769441169344462 0.3150381335760689 0  0.9804648376981185 0.9123186437266726 0  0.7874999988222203 0.02127957051165741 0  0.02109233852270731 0.786866823287435 0  0.9483709287873718 0.5504073206521916 0  0.9259842326464427 0.5519702047534598 0  0.9163209045278007 0.5719292915927929 0  0.9035374059862284 0.5537291796040291 0  0.8938951918780048 0.5738949757882954 0  0.8807940177559743 0.5546750869516996 0  0.8712661812741653 0.5757142549099102 0  0.8580668865514332 0.5563902430113601 0  0.848508161986991 0.5779004013072002 0  0.8354274200119249 0.5591176379057713 0  0.8256349826905482 0.5800610629400762 0  0.8124123591208572 0.5604454546391737 0  0.802603410938817 0.5819653950592523 0  0.7892876429890218 0.562234610648543 0  0.7794355871850538 0.583896242519796 0  0.7661469824381839 0.5648243426306435 0  0.7562387679604726 0.5860005456930413 0  0.7429651600512166 0.5669367633461588 0  0.7330846968880171 0.5879590907760761 0  0.7198577999459205 0.5688986880627463 0  0.7297050500533544 0.5479561801187277 0  0.7066243396993471 0.5499068108517552 0  0.6968285086900206 0.5707989520567972 0  0.6836266810714333 0.5519088927359967 0  0.6738604685766018 0.5727655091567184 0  0.6607284761452521 0.5538781923028128 0  0.6697149783704412 0.5321140554135094 0  0.6473436039782401 0.5350050604671006 0  0.6378867365666199 0.5557804038095817 0  0.6246915360243652 0.5362124690568238 0  0.6151175309583405 0.5575933164645619 0  0.6019784180102355 0.5380659376543677 0  0.5924099113505394 0.5593739656462906 0  0.5794110962027638 0.541110021814312 0  0.5697985396917309 0.5614600003719357 0  0.5568468707330213 0.5433212932327446 0  0.5472634011377896 0.5635652141280936 0  0.5343236363495072 0.5451361960661517 0  0.5247877773262166 0.565493591892781 0  0.5118927934227436 0.5470665328397559 0  0.5023398230005425 0.5674381114577953 0  0.5213991904098014 0.5267047787870831 0  0.4990390504096661 0.528649139287786 0  0.6328887517229864 0.5131744321062524 0  0.5085133205790763 0.5083322037773296 0  0.4861972978925295 0.5102540920324363 0  0.4956914791804768 0.4899605513008993 0  0.4734139980312694 0.4918582759645476 0  0.4826986629698439 0.4717164019717278 0  0.460570567761715 0.473509155475794 0  0.4699344541058981 0.4533140529328089 0  0.4477087341565655 0.4550973130597117 0  0.4381733274019614 0.4752901381741884 0  0.4570222843287571 0.4349938694701042 0  0.4348599018247688 0.436728068420533 0  0.5604623134382263 0.581815997002507 0  0.4443612964408632 0.416499823314016 0  0.422056299386984 0.4183730429856528 0  0.4688721528228815 0.4135009841763965 0  0.4315584877924544 0.398120546824229 0  0.4092288692044618 0.3999974286008185 0  0.7463210599443056 0.6070829843371945 0  0.4187270626688335 0.3797365044773463 0  0.3964262302393312 0.3817184136470017 0  0.3869780036193907 0.4018498778543814 0  0.3742423843122406 0.3837055716372927 0  0.3648701490102072 0.4037049758807119 0  0.3518115403926748 0.3858985036587403 0  0.3426146276710081 0.4056777495658291 0  0.3614541441355358 0.3656396497906528 0  0.339026673715919 0.3678724679736439 0  0.3485566370135618 0.3476560889674916 0  0.3264681821394378 0.3496422822523857 0  0.8219942777991693 0.5379143061758643 0  0.3358297439968608 0.3295117748868035 0  0.3137050884585635 0.3314921667582986 0  0.3229980644152205 0.3113561769498422 0  0.3007986024336577 0.3133063832007756 0  0.3441851868720173 0.3085211458266175 0  0.3101966551534752 0.2930273704914169 0  0.287793053707373 0.2950088132226583 0  0.2914417217227097 0.3337427541189321 0  0.2975120686695638 0.2743682539701985 0  0.274864585256681 0.2764253296978281 0  0.816026571618698 0.6006851919544112 0  0.2844672854128698 0.2557011565880619 0  0.2617267434509338 0.2577713002235077 0  0.3072711221189672 0.2536790056475094 0  0.2521588568690318 0.2785072139143895 0  0.2389277409161178 0.2598761196336353 0  0.248448076747058 0.2389478879785275 0  0.5053822153261678 0.4716915524631118 0  0.229548765875869 0.2806542761043101 0  0.2254561407802683 0.2411354049374563 0  0.2350621310805047 0.2199181955146378 0  0.2117782450160163 0.222165061041625 0  0.2214249125635323 0.2008136877065064 0  0.2448758256083499 0.1985732693215908 0  0.197966291680556 0.2031211006951591 0  0.1883147493074436 0.2245564097761413 0  0.8910637266939049 0.5322898364209732 0  0.1748136087708587 0.2051141748992724 0  0.1842088801696792 0.1837087814679069 0  0.1656574100807746 0.2269812054689968 0  0.3554582346764377 0.4236292557112198 0  0.3328979939923831 0.425459320867588 0  0.3460368767112177 0.4435398346083328 0  0.3238464003
[...]
<PointData  Tensors="$\sigma$"> 
<DataArray  type="Float64"  Name="$\sigma$"  NumberOfComponents="9" format="ascii">-3.2513229387190592e+02 -3.8507943226768498e+02 0.0000000000000000e+00 -3.8507943226768549e+02 -9.5919331700543239e+02 0.0000000000000000e+00 0.0000000000000000e+00 0.0000000000000000e+00 0.0000000000000000e+00  2.9174450050916030e+03 4.2132311005110246e+01 0.0000000000000000e+00 4.2132311005109614e+01 1.5647456947939594e+04 0.0000000000000000e+00 0.0000000000000000e+00 0.0000000000000000e+00 0.0000000000000000e+00  -2.7173889565204468e+02 4.8027322733842846e+02 0.0000000000000000e+00 4.8027322733842834e+02 -1.0078703413200985e+03 0.0000000000000000e+00 0.0000000000000000e+00 0.0000000000000000e+00 0.0000000000000000e+00  8.1749783889403779e-02 8.2917435918358973e-01 0.0000000000000000e+00 8.2917435918359172e-01 5.8481213756358793e+03 0.0000000000000000e+00 0.0000000000000000e+00 0.0000000000000000e+00 0.0000000000000000e+00  1.6617463229593252e+00 5.6604235741216875e-02 0.0000000000000000e+00 5.6604235741218645e-02 5.6689523837523093e+03 0.0000000000000000e+00 0.0000000000000000e+00 0.0000000000000000e+00 0.0000000000000000e+00  -3.9442710911181075e+02 -3.5318626225977880e+02 0.0000000000000000e+00 -3.5318626225977823e+02 -1.2622879663870120e+02 0.0000000000000000e+00 0.0000000000000000e+00 0.0000000000000000e+00 0.0000000000000000e+00  2.1148493025951143e+02 -1.5491969865316412e+02 0.0000000000000000e+00 -1.5491969865316423e+02 2.1310342280713095e+02 0.0000000000000000e+00 0.0000000000000000e+00 0.0000000000000000e+00 0.0000000000000000e+00  1.0223484674295125e-01 1.3101905980928938e-01 0.0000000000000000e+00 1.3101905980929207e-01 5.8522696708788053e+03 0.0000000000000000e+00 0.0000000000000000e+00 0.0000000000000000e+00 0.0000000000000000e+00  1.7228263066766833e+03 6.9828790530841684e+02 0.0000000000000000e+00 6.9828790530841741e+02 6.1391934731700021e+03 0.0000000000000000e+00 0.0000000000000000e+00 0.0000000000000000e+00 0.0000000000000000e+00  9.0877633257746947e+02 7.3713037562119871e+02 0.0000000000000000e+00 7.3713037562119962e+02 6.4449557055088462e+02 0.0000000000000000e+00 0.0000000000000000e+00 0.0000000000000000e+00 0.0000000000000000e+00  3.1594296190041191e+03 3.6818676100872053e+03 0.0000000000000000e+00 3.6818676100872053e+03 4.4778861418648348e+03 0.0000000000000000e+00 0.0000000000000000e+00 0.0000000000000000e+00 0.0000000000000000e+00  2.7707373624270376e+03 4.3230182193146511e+03 0.0000000000000000e+00 4.3230182193146484e+03 1.2680770500326213e+04 0.0000000000000000e+00 0.0000000000000000e+00 0.0000000000000000e+00 0.0000000000000000e+00  2.7382092346058339e+03 -4.3179304015159814e+03 0.0000000000000000e+00 -4.3179304015159814e+03 1.2619040361569159e+04 0.0000000000000000e+00 0.0000000000000000e+00 0.0000000000000000e+00 0.0000000000000000e+00  3.1367068480981507e+03 -3.6234999671699047e+03 0.0000000000000000e+00 -3.6234999671699061e+03 4.7838041811902121e+03 0.0000000000000000e+00 0.0000000000000000e+00 0.0000000000000000e+00 0.0000000000000000e+00  8.7890634053627127e+02 -8.2172617381498060e+02 0.0000000000000000e+00 -8.2172617381498219e+02 6.0464760090854918e+02 0.0000000000000000e+00 0.0000000000000000e+00 0.0000000000000000e+00 0.0000000000000000e+00  1.0801630818464668e-01 -2.0824597422478397e-01 0.0000000000000000e+00 -2.0824597422478544e-01 5.8456400637658453e+03 0.0000000000000000e+00 0.0000000000000000e+00 0.0000000000000000e+00 0.0000000000000000e+00  -4.4930084760721883e-02 -7.6016506114588023e-01 0.0000000000000000e+00 -7.6016506114587423e-01 5.8409142107740681e+03 0.0000000000000000e+00 0.0000000000000000e+00 0.0000000000000000e+00 0.0000000000000000e+00  5.4075316720281430e-01 -8.9057628934197153e-01 0.0000000000000000e+00 -8.9057628934196986e-01 5.8333265054977137e+03 0.0000000000000000e+00 0.0000000000000000e+00 0.0000000000000000e+00 0.0000000000000000e+00  -3.9453686128482762e-01 -6.4049848552220645e-01 0.0000000000000000e+00 -6.4049848552220690e-01 5.8216419982637399e+03 0.0000000000000000e+00 0.0000000000000000e+00 0.0000000000000000e+00 0.0000000000000000e+00  3.7360996885877934e-01 -1.1386912046688866e+00 0.0000000000000000e+00 -1.1386912046688882e+00 5.8054952356782369e+03 0.0000000000000000e+00 0.0000000000000000e+00 0.0000000000000000e+00 0.0000000000000000e+00  1.0152790327940493e+00 -2.5247717954773043e+00 0.0000000000000000e+00 -2.5247717954773234e+00 5.7885406784988954e+03 0.0000000000000000e+00 0.0000000000000000e+00 0.0000000000000000e+00 0.0000000000000000e+00  -3.6397915521921329e-02 -1.9469427093039686e+00 0.0000000000000000e+00 -1.9469427093039799e+00 5.7590227850180881e+03 0.0000000000000000e+00 0.0000000000000000e+00 0.0000000000000000e+00 0.0000000000000000e+00  -3.0749499467335234e-01 -2.5430146316651032e+00 0.0000000000000000e+00 -2.5430146316650823e+00 5.7303243159665562e+03 0.0000000000000000e+00 0.0000000000000000e+00 0.0000000000000000e+00 0.0000000000000000e+00  1.6530705895777780e+00 -3.8660769474550740e+00 0.0000000000000000e+00 -3.8660769474550229e+00 5.6945789054797551e+03 0.0000000000000000e+00 0.0000000000000000e+00 0.0000000000000000e+00 0.0000000000000000e+00  1.1256291547571422e+00 -5.3074212681029103e+00 0.0000000000000000e+00 -5.3074212681029378e+00 5.6508583786901863e+03 0.0000000000000000e+00 0.0000000000000000e+00 0.0000000000000000e+00 0.0000000000000000e+00  1.5331794327075532e+00 -6.7390057942875368e+00 0.0000000000000000e+00 -6.7390057942875519e+00 5.5762412635524015e+03 0.0000000000000000e+00 0.0000000000000000e+00 0.0000000000000000e+00 0.0000000000000000e+00  9.4348480739193108e-01 -1.0899786085189330e+01 0.0000000000000000e+00 -1.0899786085189346e+01 5.5256829068585585e+03 0.0000000000000000e+00 0.0000000000000000e+00 0.0000000000000000e+00 0.0000000000000000e+00  7.9821038636650099e-01 -8.1220311596882642e+00 0.0000000000000000e+00 -8.1220311596883388e+00 5.4130444829205235e+03 0.0000000000000000e+00 0.0000000000000000e+00 0.0000000000000000e+00 0.0000000000000000e+00  6.4735966953995305e-01 -1.0645301711868614e+01 0.0000000000000000e+00 -1.0645301711868674e+01 5.3046099287841962e+03 0.0000000000000000e+00 0.0000000000000000e+00 0.0000000000000000e+00 0.0000000000000000e+00  1.0440162502521954e+01 -7.1662691312172688e+00 0.0000000000000000e+00 -7.1662691312172839e+00 5.1374835864111137e+03 0.0000000000000000e+00 0.0000000000000000e+00 0.0000000000000000e+00 0.0000000000000000e+00  -9.4931621784766449e+00 -1.2152461404688815e+01 0.0000000000000000e+00 -1.2152461404688527e+01 4.9232917712426206e+03 0.0000000000000000e+00 0.0000000000000000e+00 0.0000000000000000e+00 0.0000000000000000e+00  3.2164152677152572e+01 -4.7744830853578229e+01 0.0000000000000000e+00 -4.7744830853578328e+01 4.5872207464305320e+03 0.0000000000000000e+00 0.0000000000000000e+00 0.0000000000000000e+00 0.0000000000000000e+00  -1.6521941244316977e+01 -2.3611492886888030e+01 0.0000000000000000e+00 -2.3611492886888335e+01 4.1418538465435267e+03 0.0000000000000000e+00 0.0000000000000000e+00 0.0000000000000000e+00 0.0000000000000000e+00  2.7915525892777250e+01 -1.4192932812597337e+02 0.0000000000000000e+00 -1.4192932812597360e+02 3.3865049541357844e+03 0.0000000000000000e+00 0.0000000000000000e+00 0.0000000000000000e+00 0.0000000000000000e+00  -4.1679295142549073e+01 -1.5519943494740778e+02 0.0000000000000000e+00 -1.5519943494740659e+02 2.2976368625062614e+03 0.0000000000000000e+00 0.0000000000000000e+00 0.0000000000000000e+00 0.0000000000000000e+00  1.7543062913001836e+02 -1.7640134669460159e+02 0.0000000000000000e+00 -1.7640134669460139e+02 8.0827517188269496e+02 0.0000000000000000e+00 0.0000000000000000e+00 0.0000000000000000e+00 0.0000000000000000e+00  -4.9319850903994409e+00 2.8926887361737708e-01 0.0000000000000000e+00 2.8926887361737158e-01 5.6823501235653193e+03 0.0000000000000000e+00 0.0000000000000000e+00 0.0000000000000000e+00 0.0000000000000000e+00  -2.4692171581816886e+01 -3.1291398373122968e-02 0.0000000000000000e+00 -3.1291398373097454e-02 5.7206437592779375e+03 0.0000000000000000e+00 0.0000000000000000e+00 0.0000000000000000e+00 0.0000000000000000e+00  -5.4732330489365026e+01 1.5527041528987477e+00 0.0000000000000000e+00 1.5527041528987320e+00 5.7789103235333077e+03 0.0000000000000000e+00 0.0000000000000000e+00 0.0000000000000000e+00 0.0000000000000000e+00  -8.9687397234046941e+01 1.2269632511867699e-01 0.0000000000000000e+00 1.2269632511866609e-01 5.8452313319014065e+03 0.0000000000000000e+00 0.0000000000000000e+00 0.0000000000000000e+00 0.0000000000000000e+00  -1.2059212424817960e+02 2.0027204917490105e+00 0.0000000000000000e+00 2.0027204917489980e+00 5.9256423760301341e+03 0.0000000000000000e+00 0.0000000000000000e+00 0.0000000000000000e+00 0.0000000000000000e+00  -1.5225911042701208e+02 -1.4462432997272812e-01 0.0000000000000000e+00 -1.4462432997270991e-01 6.0042428260113620e+03 0.0000000000000000e+00 0.0000000000000000e+00 0.0000000000000000e+00 0.0000000000000000e+00  -1.8283168398071916e+02 1.0260419954080120e-01 0.0000000000000000e+00 1.0260419954081532e-01 6.0722636895624528e+03 0.0000000000000000e+00 0.0000000000000000e+00 0.0000000000000000e+00 0.0000000000000000e+00  -1.9843981821227342e+02 -4.9501978356873449e-01 0.0000000000000000e+00 -4.9501978356874260e-01 6.1452431419393843e+03 0.0000000000000000e+00 0.0000000000000000e+00 0.0000000000000000e+00 0.0000000000000000e+00  -2.1323770571312102e+02 2.0869317843131413e-01 0.0000000000000000e+00 2.0869317843131691e-01 6.1919559265372918e+03 0.0000000000000000e+00 0.0000000000000000e+00 0.0000000000000000e+00 0.0000000000000000e+00  -2.2221490128495924e+02 -6.5017757057614189e-01 0.0000000000000000e+00 -6.5017757057614345e-01 6.2377696663383476e+03 0.0000000000000000e+00 0.0000000000000000e+00 0.0000000000000000e+00 0.0000000000000000e+00  -2.2377253667857181e+02 -4.7141451222876718e-01 0.0000000000000000e+00 -4.7141451222876668e-01 6.2721283935183874e+03 0.0000000000000000e+00 0.0000000000000000e+00 0.0000000000000000e+00 0.0000000000000000e+00  -2.2150999139695588e+02 -1.0020795717872275e+00 0.0000000000000000e+00 -1.0020795717872280e+00 6.2958443861552187e+03 0.0000000000000000e+00 0.0000000000000000e+00 0.0000000000000000e+00 0.0000000000000000e+00  -2.1617556891137409e+02 -5.9611833111970014e-01 0.0000000000000000e+00 -5.9611833111970358e-01 6.3126285476765361e+03 0.0000000000000000e+00 0.0000000000000000e+00 0.0000000000000000e+00 0.0000000000000000e+00  -2.0929226653078049e+02 -3.6803625852668898e-01 0.0000000000000000e+00 -3.6803625852669480e-01 6.3231365046703168e+03 0.0000000000000000e+00 0.0000000000000000e+00 0.0000000000000000e+00 0.0000000000000000e+00  -2.0048644562557288e+02 -4.9968335063825464e-01 0.0000000000000000e+00 -4.9968335063825314e-01 6.3275115788063022e+03 0.0000000000000000e+00 0.0000000000000000e+00 0.0000000000000000e+00 0.0000000000000000e+00  -1.9140265440224886e+02 -6.3557125968878037e-01 0.0000000000000000e+00 -6.3557125968878359e-01 6.3278270051268191e+03 0.0000000000000000e+00 0.0000000000000000e+00 0.0000000000000000e+00 0.0000000000000000e+00  -1.8270150884137195e+02 -3.2730462896693563e-01 0.0000000000000000e+00 -3.2730462896692919e-01 6.3240389836239437e+03 0.0000000000000000e+00 0.0000000000000000e+00 0.0000000000000000e+00 0.0000000000000000e+00  -1.7412344173043303e+02 -4.1837346141164267e-01 0.0000000000000000e+00 -4.1837346141164383e-01 6.3179296892681996e+03 0.0000000000000000e+00 0.0000000000000000e+00 0.0000000000000000e+00 0.0000000000000000e+00  -1.6629754317052110e+02 -2.0374659089608718e-01 0.0000000000000000e+00 -2.0374659089608990e-01 6.3093070772173942e+03 0.0000000000000000e+00 0.0000000000000000e+00 0.0000000000000000e+00 0.0000000000000000e+00  -1.5892201809345934e+02 -1.8415935850742068e-01 0.0000000000000000e+00 -1.8415935850741827e-01 6.2983210188453641e+03 0.0000000000000000e+00 0.0000000000000000e+00 0.0000000000000000e+00 0.0000000000000000e+00  -1.5238259988938100e+02 -9.2233099109422720e-02 0.0000000000000000e+00 -9.2233099109419764e-02 6.2857293488611467e+03 0.0000000000000000e+00 0.0000000000000000e+00 0.0000000000000000e+00 0.0000000000000000e+00  -1.4595139346606197e+02 -4.7878180056957612e-02 0.0000000000000000e+00 -4.7878180056952567e-02 6.2715892945675896e+03 0.0000000000000000e+00 0.0000000000000000e+00 0.0000000000000000e+00 0.0000000000000000e+00  -1.4033122615441522e+02 -2.3215143902821374e-02 0.0000000000000000e+00 -2.3215143902817766e-02 6.2553111581981884e+03 0.0000000000000000e+00 0.0000000000000000e+00 0.0000000000000000e+00 0.0000000000000000e+00  -1.3413991240943017e+02 -2.5681331246164812e-02 0.0000000000000000e+00 -2.5681331246168532e-02 6.2374332762671138e+03 0.0000000000000000e+00 0.0000000000000000e+00 0.0000000000000000e+00 0.0000000000000000e+00  -1.2848871866322813e+02 -7.9744926096290455e-02 0.0000000000000000e+00 -7.9744926096295327e-02 6.2178712257770085e+03 0.0000000000000000e+00 0.0000000000000000e+00 0.0000000000000000e+00 0.0000000000000000e+00  -1.2189570767202135e+02 1.1354942619428901e-01 0.0000000000000000e+00 1.1354942619429556e-01 6.1963736068228072e+03 0.0000000000000000e+00 0.0000000000000000e+00 0.0000000000000000e+00 0.0000000000000000e+00  -1.1488321455566492e+02 -6.7179286965031559e-02 0.0000000000000000e+00 -6.7179286965025661e-02 6.1722480176783583e+03 0.0000000000000000e+00 0.0000000000000000e+00 0.0000000000000000e+00 0.0000000000000000e+00  -1.0725920143726736e+02 1.4225685253030745e-01 0.0000000000000000e+00 1.4225685253030701e-01 6.1467880174707070e+03 0.0000000000000000e+00 0.0000000000000000e+00 0.0000000000000000e+00 0.0000000000000000e+00  -9.8420148039785261e+01 1.5704106240188992e-01 0.0000000000000000e+00 1.5704106240188476e-01 6.1199784485204946e+03 0.0000000000000000e+00 0.0000000000000000e+00 0.0000000000000000e+00 0.0000000000000000e+00  -8.9195624105974602e+01 2.6933851688518702e-02 0.0000000000000000e+00 2.6933851688519202e-02 6.0899623268589676e+03 0.0000000000000000e+00 0.0000000000000000e+00 0.0000000000000000e+00 0.0000000000000000e+00  -7.8303115586638597e+01 -1.2844155450419059e-01 0.0000000000000000e+00 -1.2844155450419467e-01 6.0604487007787566e+03 0.0000000000000000e+00 0.0000000000000000e+00 0.0000000000000000e+00 0.0000000000000000e+00  -6.7754120806739778e+01 -1.6518697511165176e-01 0.0000000000000000e+00 -1.6518697511164937e-01 6.0283140247912670e+03 0.0000000000000000e+00 0.0000000000000000e+00 0.0000000000000000e+00 0.0000000000000000e+00  -5.5464484327849206e+01 -3.9543350305600633e-02 0.0000000000000000e+00 -3.9543350305620055e-02 5.9971681367501833e+03 0.0000000000000000e+00 0.0000000000000000e+00 0.0000000000000000e+00 0.0000000000000000e+00  -4.3745982730507016e+01 -2.4657042886875025e-01 0.0000000000000000e+00 -2.4657042886875280e-01 5.9678332924224196e+03 0.0000000000000000e+00 0.0000000000000000e+00 0.0000000000000000e+00 0.0000000000000000e+00  -3.2097021509496095e+01 -7.5449760585365247e-02 0.0000000000000000e+00 -7.5449760585363013e-02 5.9388872585136232e+03 0.0000000000000000e+00 0.0000000000000000e+00 0.0000000000000000e+00 0.0000000000000000e+00  -2.1655466473396700e+01 -5.0048737370094139e-02 0.0000000000000000e+00 -5.0048737370095346e-02 5.9113398043003936e+03 0.0000000000000000e+00 0.0000000000000000e+00 0.0000000000000000e+00 0.0000000000000000e+00  -1.2662682458442209e+01 -9.9243961046824897e-02 0.0000000000000000e+00 -9.9243961046822593e-02 5.8882546911524778e+03 0.0000000000000000e+00 0.0000000000000000e+00 0.0000000000000000e+00 0.0000000000000000e+00  -5.7440354710586323e+00 8.8885282896615611e-02 0.0000000000000000e+00 8.8885282896617623e-02 5.8690612775179325e+03 0.0000000000000000e+00 0.0000000000000000e+00 0.0000000000000000e+00 0.0000000000000000e+00  -7.9385523531729341e-01 1.6449925444619351e-01 0.0000000000000000e+00 1.6449925444619168e-01 5.8555092123278700e+03 0.0000000000000000e+00 0.0000000000000000e+00 0.0000000000000000e+00 0.0000000000000000e+00  1.2378693510568249e+02 2.4462899733285099e+01 0.0000000000000000e+00 2.4462899733284665e+01 5.7068223456100509e+02 0.0000000000000000e+00 0.0000000000000000e+00 0.0000000000000000e+00 0.0000000000000000e+00  1.5176757172682417e+02 1.5272080654823020e+02 0.0000000000000000e+00 1.5272080654823080e+02 2.4469923886339420e+03 0.0000000000000000e+00 0.0000000000000000e+00 0.0000000000000000e+00 0.0000000000000000e+00  -6.6515097448897606e+01 1.2570349621872911e+01 0.0000000000000000e+00 1.2570349621873117e+01 3.3961123571302846e+03 0.0000000000000000e+00 0.0000000000000000e+00 0.0000000000000000e+00 0.0000000000000000e+00  8.2086196413304947e+01 7.4641469326796994e+01 0.0000000000000000e+00 7.4641469326797719e+01 4.2580880286746687e+03 0.0000000000000000e+00 0.0000000000000000e+00 0.0000000000000000e+00 0.0000000000000000e+00  -2.6989153396634737e+01 -1.6974843044941814e+01 0.0000000000000000e+00 -1.6974843044941537e+01 4.6290746404917309e+03 0.0000000000000000e+00 0.0000000000000000e+00 0.0000000000000000e+00 0.0000000000000000e+00  3.3355710900495026e+01 3.3040518031637333e+01 0.0000000000000000e+00 3.3040518031637362e+01 4.9940644563277419e+03 0.0000000000000000e+00 0.0000000000000000e+00 0.0000000000000000e+00 0.0000000000000000e+00  -8.8785252660657559e+00 1.0117463385666127e+01 0.0000000000000000e+00 1.0117463385666127e+01 5.1961578477723024e+03 0.0000000000000000e+00 0.0000000000000000e+00 0.0000000000000000e+00 0.0000000000000000e+00  6.1193014818631157e+00 1.6409464838466203e+01 0.0000000000000000e+00 1.6409464838466231e+01 5.3332666091497895e+03 0.0000000000000000e+00 0.0000000000000000e+00 0.0000000000000000e+00 0.0000000000000000e+00  2.1110017429204841e+00 8.3348799837705005e+00 0.0000000000000000e+00 8.3348799837705609e+00 5.4682077037972031e+03 0.0000000000000000e+00 0.0000000000000000e+00 0.0000000000000000e+00 0.0000000000000000e+00  3.6134959390995709e+00 5.9621093142598038e+00 0.0000000000000000e+00 5.9621093142597852e+00 5.5439334146724395e+03 0.0000000000000000e+00 0.0000000000000000e+00 0.0000000000000000e+00 0.0000000000000000e+00  -2.0780917134048482e+00 6.1954362943038199e-01 0.0000000000000000e+00 6.1954362943039398e-01 5.6068144454443618e+03 0.0000000000000000e+00 0.0000000000000000e+00 0.0000000000000000e+00 0.0000000000000000e+00  3.4767403121148472e+00 2.9304422285406799e+00 0.0000000000000000e+00 2.9304422285407021e+00 5.6372778763723263e+03 0.0000000000000000e+00 0.0000000000000000e+00 0.0000000000000000e+00 0.0000000000000000e+00  -1.0233032385718372e+00 5.1880395074196284e-01 0.0000000000000000e+00 5.1880395074196006e-01 5.6663655901938382e+03 0.0000000000000000e+00 0.0000000000000000e+00 0.0000000000000000e+00 0.0000000000000000e+00  1.2675784927676145e+03 8.9318562508298578e+02 0.0000000000000000e+00 8.9318562508298658e+02 6.3204245464240410e+02 0.0000000000000000e+00 0.0000000000000000e+00 0.0000000000000000e+00 0.0000000000000000e+00  3.3935534187747367e+03 4.8615380508484159e+03 0.0000000000000000e+00 4.8615380508484122e+03 7.7023445327831314e+03 0.0000000000000000e+00 0.0000000000000000e+00 0.0000000000000000e+00 0.0000000000000000e+00  2.4436027322412174e+03 2.8703223606277656e+03 0.0000000000000000e+00 2.8703223606277647e+03 1.4621352001870539e+04 0.0000000000000000e+00 0.0000000000000000e+00 0.0000000000000000e+00 0.0000000000000000e+00  2.5851191445937175e+03 -2.2841756857527253e+03 0.0000000000000000e+00 -2.2841756857527271e+03 1.4893201575190129e+04 0.0000000000000000e+00 0.0000000000000000e+00 0.0000000000000000e+00 0.0000000000000000e+00  2.2776659328054784e+03 -4.6518114067349652e+03 0.0000000000000000e+00 -4.6518114067349634e+03 7.4837331144702575e+03 0.0000000000000000e+00 0.0000000000000000e+00 0.0000000000000000e+00 0.0000000000000000e+00  1.3866184946831988e+03 -1.2390209800797568e+03 0.0000000000000000e+00 -1.2390209800797556e+03 9.4327697923886876e+02 0.0000000000000000e+00 0.0000000000000000e+00 0.0000000000000000e+00 0.0000000000000000e+00  5.5828574048889634e-02 -2.9041192494966556e-01 0.0000000000000000e+00 -2.9041192494966533e-01 5.8511891645128671e+03 0.0000000000000000e+00 0.0000000000000000e