<?xml version="1.0"?>
<VTKFile type="UnstructuredGrid"  version="0.1"  >
<UnstructuredGrid>
<Piece  NumberOfPoints="2165" NumberOfCells="4161">
<Points>
<DataArray  type="Float64"  NumberOfComponents="3"  format="ascii">-3.598637933768527e-16 0.3500000000000001 0  0.05 0.4 0  -3.537405593811159e-16 0.45 0  0 1 0  1 1 0  0.9999999999999997 0.65 0  0.9999999999999997 0.5499999999999999 0  1 0 0  0 0 0  0.0191341716182545 0.3538060233744357 0  0.03535533905932737 0.3646446609406727 0  0.04619397662556433 0.3808658283817455 0  0.04619397662556434 0.4191341716182545 0  0.03535533905932738 0.4353553390593274 0  0.01913417161825449 0.4461939766255644 0  0 0.975 0  0 0.95 0  0 0.9249999999999999 0  0 0.8999999999999998 0  0 0.8749999999999998 0  0 0.8499999999999998 0  0 0.8249999999999997 0  0 0.7999999999999996 0  0 0.7749999999999996 0  0 0.7499999999999996 0  0 0.7249999999999996 0  0 0.6999999999999997 0  0 0.6749999999999998 0  0 0.6499999999999999 0  0 0.6249999999999999 0  0 0.6 0  0 0.575 0  0 0.5499999999999998 0  0 0.5249999999999999 0  0 0.4999999999999998 0  0 0.4749999999999999 0  0.975 1 0  0.95 1 0  0.925 1 0  0.9 1 0  0.875 1 0  0.85 1 0  0.825 1 0  0.8 1 0  0.775 1 0  0.75 1 0  0.725 1 0  0.7 1 0  0.675 1 0  0.65 1 0  0.625 1 0  0.6 1 0  0.575 1 0  0.55 1 0  0.525 1 0  0.5 1 0  0.475 1 0  0.45 1 0  0.425 1 0  0.4 1 0  0.375 1 0  0.35 1 0  0.325 1 0  0.3 1 0  0.275 1 0  0.25 1 0  0.225 1 0  0.2 1 0  0.175 1 0  0.15 1 0  0.125 1 0  0.09999999999999998 1 0  0.07499999999999996 1 0  0.05000000000000004 1 0  0.02500000000000002 1 0  1 0.675 0  1 0.7000000000000001 0  1 0.7250000000000001 0  1 0.7500000000000001 0  1 0.7750000000000001 0  1 0.8000000000000002 0  1 0.8250000000000002 0  1 0.8500000000000002 0  1 0.8750000000000003 0  1 0.9000000000000001 0  1 0.9250000000000002 0  1 0.9500000000000001 0  1 0.9750000000000001 0  0.9783058130441221 0.6450484433951209 0  0.9609084258765985 0.6311744900929367 0  0.9512536043909088 0.6111260466978157 0  0.9512536043909088 0.5888739533021843 0  0.9609084258765985 0.5688255099070633 0  0.9783058130441221 0.554951556604879 0  1 0.02500000000000002 0  1 0.05000000000000004 0  1 0.07500000000000008 0  1 0.1000000000000001 0  1 0.1250000000000001 0  1 0.1500000000000002 0  1 0.1750000000000002 0  1 0.2000000000000003 0  1 0.2250000000000003 0  1 0.2500000000000004 0  1 0.2750000000000004 0  1 0.3000000000000003 0  1 0.3250000000000002 0  1 0.3500000000000001 0  1 0.3750000000000001 0  1 0.3999999999999999 0  1 0.425 0  1 0.45 0  1 0.475 0  1 0.5000000000000001 0  1 0.5249999999999999 0  0.025 0 0  0.05 0 0  0.075 0 0  0.1 0 0  0.125 0 0  0.15 0 0  0.175 0 0  0.2 0 0  0.225 0 0  0.25 0 0  0.275 0 0  0.3 0 0  0.325 0 0  0.35 0 0  0.375 0 0  0.4 0 0  0.425 0 0  0.45 0 0  0.475 0 0  0.5 0 0  0.525 0 0  0.55 0 0  0.575 0 0  0.6 0 0  0.625 0 0  0.65 0 0  0.675 0 0  0.7 0 0  0.725 0 0  0.75 0 0  0.775 0 0  0.8 0 0  0.825 0 0  0.85 0 0  0.875 0 0  0.9 0 0  0.925 0 0  0.95 0 0  0.975 0 0  0 0.3250000000000001 0  0 0.3 0  0 0.275 0  0 0.2499999999999999 0  0 0.2249999999999999 0  0 0.1999999999999998 0  0 0.1749999999999998 0  0 0.1499999999999998 0  0 0.1249999999999998 0  0 0.09999999999999987 0  0 0.07499999999999984 0  0 0.04999999999999993 0  0 0.02500000000000002 0  0.06453325334544308 0.4134708543086404 0  0.5146839915088474 0.02134387884913819 0  0.4875871001393628 0.9784117024331356 0  0.9386300160094723 0.5701776715936071 0  0.0216506350946109 0.6124999999999999 0  0.9764205887290853 0.3596067946540696 0  0.3876261045932067 0.02156097490657183 0  0.6125 0.978349364905389 0  0.3612127461797463 0.9792371404802113 0  0.6374786650398092 0.02079982608537345 0  0.9387185538472446 0.6295115890709873 0  0.05482260092545593 0.3633687091864355 0  0.02445354803948679 0.7343198207875321 0  0.2624888813627476 0.02091671348578122 0  0.7375212991274043 0.9794996488945376 0  0.9793010831723812 0.2648509348664836 0  0.2625026480689301 0.9795699185263282 0  0.7362840788105066 0.02225211062275217 0  0.02159327910297104 0.2128861809896528 0  0.9786837570973538 0.7867241244631172 0  0.02419728000065929 0.8365600234152764 0  0.980043283615984 0.1624097203408714 0  0.1645857434226354 0.0205513501962844 0  0.8339481359352011 0.9784483546369231 0  0.1637584777222821 0.9774556328160621 0  0.8374916614314967 0.02165097219510076 0  0.02171915379676059 0.5370700005916152 0  0.9795335762511281 0.4365726939225819 0  0.02319480745007968 0.1370197632171214 0  0.9774462976085161 0.8592616917551974 0  0.9786941241076723 0.7122511101067891 0  0.9797883857882621 0.08781864217752949 0  0.01966314788989931 0.9125801876811624 0  0.02051815350151098 0.2882126194470174 0  0.09063226699593246 0.0214884092697174 0  0.9124408843562394 0.9818463395009377 0  0.03872465516591678 0.452731089005145 0  0.08969424365256845 0.978412979507602 0  0.9124999999999999 0.02165063509461096 0  0.02158104789437187 0.6619299176372371 0  0.9796602354625652 0.4859004208706154 0  0.3127517983598529 0.02417963694738812 0  0.4375629605000894 0.02158039900821679 0  0.5643674594196073 0.01968996000301126 0  0.5368361594956101 0.9790428840407062 0  0.4376176251051295 0.9783667484208922 0  0.6874072695660477 0.978435143102373 0  0.310604317388614 0.979558305560928 0  0.2125577044121564 0.02066685543111635 0  0.6875 0.0216506350946109 0  0.02224009810917643 0.08811420611559456 0  0.790876428529276 0.978633065284896 0  0.2125 0.978349364905389 0  0.9788033534786624 0.2116925349935155 0  0.9769441169344462 0.3150381335760689 0  0.9804648376981185 0.9123186437266726 0  0.7874999988222203 0.02127957051165741 0  0.02109233852270731 0.786866823287435 0  0.9483709287873718 0.5504073206521916 0  0.9259842326464427 0.5519702047534598 0  0.9163209045278007 0.5719292915927929 0  0.9035374059862284 0.5537291796040291 0  0.8938951918780048 0.5738949757882954 0  0.8807940177559743 0.5546750869516996 0  0.8712661812741653 0.5757142549099102 0  0.8580668865514332 0.5563902430113601 0  0.848508161986991 0.5779004013072002 0  0.8354274200119249 0.5591176379057713 0  0.8256349826905482 0.5800610629400762 0  0.8124123591208572 0.5604454546391737 0  0.802603410938817 0.5819653950592523 0  0.7892876429890218 0.562234610648543 0  0.7794355871850538 0.583896242519796 0  0.7661469824381839 0.5648243426306435 0  0.7562387679604726 0.5860005456930413 0  0.7429651600512166 0.5669367633461588 0  0.7330846968880171 0.5879590907760761 0  0.7198577999459205 0.5688986880627463 0  0.7297050500533544 0.5479561801187277 0  0.7066243396993471 0.5499068108517552 0  0.6968285086900206 0.5707989520567972 0  0.6836266810714333 0.5519088927359967 0  0.6738604685766018 0.5727655091567184 0  0.6607284761452521 0.5538781923028128 0  0.6697149783704412 0.5321140554135094 0  0.6473436039782401 0.5350050604671006 0  0.6378867365666199 0.5557804038095817 0  0.6246915360243652 0.5362124690568238 0  0.6151175309583405 0.5575933164645619 0  0.6019784180102355 0.5380659376543677 0  0.5924099113505394 0.5593739656462906 0  0.5794110962027638 0.541110021814312 0  0.5697985396917309 0.5614600003719357 0  0.5568468707330213 0.5433212932327446 0  0.5472634011377896 0.5635652141280936 0  0.5343236363495072 0.5451361960661517 0  0.5247877773262166 0.565493591892781 0  0.5118927934227436 0.5470665328397559 0  0.5023398230005425 0.5674381114577953 0  0.5213991904098014 0.5267047787870831 0  0.4990390504096661 0.528649139287786 0  0.6328887517229864 0.5131744321062524 0  0.5085133205790763 0.5083322037773296 0  0.4861972978925295 0.5102540920324363 0  0.4956914791804768 0.4899605513008993 0  0.4734139980312694 0.4918582759645476 0  0.4826986629698439 0.4717164019717278 0  0.460570567761715 0.473509155475794 0  0.4699344541058981 0.4533140529328089 0  0.4477087341565655 0.4550973130597117 0  0.4381733274019614 0.4752901381741884 0  0.4570222843287571 0.4349938694701042 0  0.4348599018247688 0.436728068420533 0  0.5604623134382263 0.581815997002507 0  0.4443612964408632 0.416499823314016 0  0.422056299386984 0.4183730429856528 0  0.4688721528228815 0.4135009841763965 0  0.4315584877924544 0.398120546824229 0  0.4092288692044618 0.3999974286008185 0  0.7463210599443056 0.6070829843371945 0  0.4187270626688335 0.3797365044773463 0  0.3964262302393312 0.3817184136470017 0  0.3869780036193907 0.4018498778543814 0  0.3742423843122406 0.3837055716372927 0  0.3648701490102072 0.4037049758807119 0  0.3518115403926748 0.3858985036587403 0  0.3426146276710081 0.4056777495658291 0  0.3614541441355358 0.3656396497906528 0  0.339026673715919 0.3678724679736439 0  0.3485566370135618 0.3476560889674916 0  0.3264681821394378 0.3496422822523857 0  0.8219942777991693 0.5379143061758643 0  0.3358297439968608 0.3295117748868035 0  0.3137050884585635 0.3314921667582986 0  0.3229980644152205 0.3113561769498422 0  0.3007986024336577 0.3133063832007756 0  0.3441851868720173 0.3085211458266175 0  0.3101966551534752 0.2930273704914169 0  0.287793053707373 0.2950088132226583 0  0.2914417217227097 0.3337427541189321 0  0.2975120686695638 0.2743682539701985 0  0.274864585256681 0.2764253296978281 0  0.816026571618698 0.6006851919544112 0  0.2844672854128698 0.2557011565880619 0  0.2617267434509338 0.2577713002235077 0  0.3072711221189672 0.2536790056475094 0  0.2521588568690318 0.2785072139143895 0  0.2389277409161178 0.2598761196336353 0  0.248448076747058 0.2389478879785275 0  0.5053822153261678 0.4716915524631118 0  0.229548765875869 0.2806542761043101 0  0.2254561407802683 0.2411354049374563 0  0.2350621310805047 0.2199181955146378 0  0.2117782450160163 0.222165061041625 0  0.2214249125635323 0.2008136877065064 0  0.2448758256083499 0.1985732693215908 0  0.197966291680556 0.2031211006951591 0  0.1883147493074436 0.2245564097761413 0  0.8910637266939049 0.5322898364209732 0  0.1748136087708587 0.2051141748992724 0  0.1842088801696792 0.1837087814679069 0  0.1656574100807746 0.2269812054689968 0  0.3554582346764377 0.4236292557112198 0  0.3328979939923831 0.425459320867588 0  0.3460368767112177 0.4435398346083328 0  0.3238464003
[...]
<PointData  Tensors="$\sigma$"> 
<DataArray  type="Float64"  Name="$\sigma$"  NumberOfComponents="9" format="ascii">-4.0928824612898973e+02 -6.2076290370157540e+02 0.0000000000000000e+00 -6.2076290370157540e+02 -1.2221201924403836e+03 0.0000000000000000e+00 0.0000000000000000e+00 0.0000000000000000e+00 0.0000000000000000e+00  2.0052030052949315e+03 -4.8775247197874458e+00 0.0000000000000000e+00 -4.8775247197894975e+00 1.4285300442188180e+04 0.0000000000000000e+00 0.0000000000000000e+00 0.0000000000000000e+00 0.0000000000000000e+00  -2.9709718086808005e+02 7.2517206852941638e+02 0.0000000000000000e+00 7.2517206852941467e+02 -1.2838131206268911e+03 0.0000000000000000e+00 0.0000000000000000e+00 0.0000000000000000e+00 0.0000000000000000e+00  9.8746900314952771e-02 1.5380965402631095e+00 0.0000000000000000e+00 1.5380965402631108e+00 8.5370441737915426e+03 0.0000000000000000e+00 0.0000000000000000e+00 0.0000000000000000e+00 0.0000000000000000e+00  2.9888776049937857e+00 1.3786748820115314e-02 0.0000000000000000e+00 1.3786748820117014e-02 8.2068799385106940e+03 0.0000000000000000e+00 0.0000000000000000e+00 0.0000000000000000e+00 0.0000000000000000e+00  -4.7361863715607774e+02 -5.9697257865355425e+02 0.0000000000000000e+00 -5.9697257865355209e+02 -5.5862594445260676e+01 0.0000000000000000e+00 0.0000000000000000e+00 0.0000000000000000e+00 0.0000000000000000e+00  2.5030010579273770e+02 -1.8717443722405636e+02 0.0000000000000000e+00 -1.8717443722405579e+02 2.4069702632484865e+02 0.0000000000000000e+00 0.0000000000000000e+00 0.0000000000000000e+00 0.0000000000000000e+00  2.5406902128405706e-01 1.9040763177888734e-01 0.0000000000000000e+00 1.9040763177889161e-01 8.5362355756042143e+03 0.0000000000000000e+00 0.0000000000000000e+00 0.0000000000000000e+00 0.0000000000000000e+00  2.5353493578233270e+03 1.0173957370314057e+03 0.0000000000000000e+00 1.0173957370314070e+03 8.9242012163245163e+03 0.0000000000000000e+00 0.0000000000000000e+00 0.0000000000000000e+00 0.0000000000000000e+00  9.9704913645428837e+02 1.0073823942058026e+03 0.0000000000000000e+00 1.0073823942058053e+03 7.7796209513043982e+02 0.0000000000000000e+00 0.0000000000000000e+00 0.0000000000000000e+00 0.0000000000000000e+00  4.3325052895652307e+03 5.3086706868844230e+03 0.0000000000000000e+00 5.3086706868844185e+03 6.0958558253052470e+03 0.0000000000000000e+00 0.0000000000000000e+00 0.0000000000000000e+00 0.0000000000000000e+00  4.5058232922430607e+03 4.7242265514382798e+03 0.0000000000000000e+00 4.7242265514382789e+03 1.2698505747048182e+04 0.0000000000000000e+00 0.0000000000000000e+00 0.0000000000000000e+00 0.0000000000000000e+00  4.6423571914828672e+03 -4.7249301629837955e+03 0.0000000000000000e+00 -4.7249301629837919e+03 1.2815177299342147e+04 0.0000000000000000e+00 0.0000000000000000e+00 0.0000000000000000e+00 0.0000000000000000e+00  4.4193603753731795e+03 -5.3028346342321993e+03 0.0000000000000000e+00 -5.3028346342322011e+03 6.2809522497175276e+03 0.0000000000000000e+00 0.0000000000000000e+00 0.0000000000000000e+00 0.0000000000000000e+00  9.6582269549885928e+02 -1.0923872702113065e+03 0.0000000000000000e+00 -1.0923872702113117e+03 6.5668632161367157e+02 0.0000000000000000e+00 0.0000000000000000e+00 0.0000000000000000e+00 0.0000000000000000e+00  2.4754482842207309e-01 -4.0167589732911690e-01 0.0000000000000000e+00 -4.0167589732911518e-01 8.5327469753068690e+03 0.0000000000000000e+00 0.0000000000000000e+00 0.0000000000000000e+00 0.0000000000000000e+00  -1.3692086949787041e-01 -1.2836011451261848e+00 0.0000000000000000e+00 -1.2836011451261766e+00 8.5243056929684790e+03 0.0000000000000000e+00 0.0000000000000000e+00 0.0000000000000000e+00 0.0000000000000000e+00  9.8430146192025059e-01 -1.5071522726544548e+00 0.0000000000000000e+00 -1.5071522726544626e+00 8.5113430884576246e+03 0.0000000000000000e+00 0.0000000000000000e+00 0.0000000000000000e+00 0.0000000000000000e+00  -6.8054147643461094e-01 -1.0614007880566279e+00 0.0000000000000000e+00 -1.0614007880566363e+00 8.4908180336945188e+03 0.0000000000000000e+00 0.0000000000000000e+00 0.0000000000000000e+00 0.0000000000000000e+00  7.7122626574982711e-01 -1.7950039375298852e+00 0.0000000000000000e+00 -1.7950039375298934e+00 8.4627317752023919e+03 0.0000000000000000e+00 0.0000000000000000e+00 0.0000000000000000e+00 0.0000000000000000e+00  1.5866201641376665e+00 -4.1969298233827388e+00 0.0000000000000000e+00 -4.1969298233827530e+00 8.4332158184694472e+03 0.0000000000000000e+00 0.0000000000000000e+00 0.0000000000000000e+00 0.0000000000000000e+00  1.5629950532384659e-01 -3.2490124883583071e+00 0.0000000000000000e+00 -3.2490124883583222e+00 8.3820846010510868e+03 0.0000000000000000e+00 0.0000000000000000e+00 0.0000000000000000e+00 0.0000000000000000e+00  -6.9627457489325506e-01 -3.9747839957752307e+00 0.0000000000000000e+00 -3.9747839957752240e+00 8.3321967390760510e+03 0.0000000000000000e+00 0.0000000000000000e+00 0.0000000000000000e+00 0.0000000000000000e+00  2.9369638672005878e+00 -6.3353352660250666e+00 0.0000000000000000e+00 -6.3353352660250071e+00 8.2705722072804783e+03 0.0000000000000000e+00 0.0000000000000000e+00 0.0000000000000000e+00 0.0000000000000000e+00  1.7773987477560211e+00 -9.0765113504066655e+00 0.0000000000000000e+00 -9.0765113504066637e+00 8.1954350302594703e+03 0.0000000000000000e+00 0.0000000000000000e+00 0.0000000000000000e+00 0.0000000000000000e+00  3.6145705133025601e+00 -1.1158315645154680e+01 0.0000000000000000e+00 -1.1158315645154785e+01 8.0677858922709720e+03 0.0000000000000000e+00 0.0000000000000000e+00 0.0000000000000000e+00 0.0000000000000000e+00  1.6192270558152375e+00 -1.8085690168141191e+01 0.0000000000000000e+00 -1.8085690168141145e+01 7.9811048619047469e+03 0.0000000000000000e+00 0.0000000000000000e+00 0.0000000000000000e+00 0.0000000000000000e+00  2.3751756598390026e+00 -1.3174052213939268e+01 0.0000000000000000e+00 -1.3174052213939527e+01 7.7921564159485388e+03 0.0000000000000000e+00 0.0000000000000000e+00 0.0000000000000000e+00 0.0000000000000000e+00  -1.4946979527124244e+00 -1.4348079214435415e+01 0.0000000000000000e+00 -1.4348079214435462e+01 7.6057974640968250e+03 0.0000000000000000e+00 0.0000000000000000e+00 0.0000000000000000e+00 0.0000000000000000e+00  2.0687981130103868e+01 -1.3466753997504727e+01 0.0000000000000000e+00 -1.3466753997504602e+01 7.3386092939901118e+03 0.0000000000000000e+00 0.0000000000000000e+00 0.0000000000000000e+00 0.0000000000000000e+00  -2.1866126761504177e+01 -1.4345277127504778e+01 0.0000000000000000e+00 -1.4345277127504422e+01 6.9750724510873843e+03 0.0000000000000000e+00 0.0000000000000000e+00 0.0000000000000000e+00 0.0000000000000000e+00  5.6020077527844670e+01 -7.1690777933262964e+01 0.0000000000000000e+00 -7.1690777933262211e+01 6.4498495643537954e+03 0.0000000000000000e+00 0.0000000000000000e+00 0.0000000000000000e+00 0.0000000000000000e+00  -1.6537779735187094e+01 -3.3878178247123017e+01 0.0000000000000000e+00 -3.3878178247123770e+01 5.7660255439908788e+03 0.0000000000000000e+00 0.0000000000000000e+00 0.0000000000000000e+00 0.0000000000000000e+00  -1.5320147780986154e+01 -1.5923426388031834e+02 0.0000000000000000e+00 -1.5923426388032007e+02 4.5755261682275022e+03 0.0000000000000000e+00 0.0000000000000000e+00 0.0000000000000000e+00 0.0000000000000000e+00  5.7611005804267386e+01 -2.6811276021914745e+02 0.0000000000000000e+00 -2.6811276021914671e+02 3.1387551948370256e+03 0.0000000000000000e+00 0.0000000000000000e+00 0.0000000000000000e+00 0.0000000000000000e+00  1.7849679225649797e+02 -1.1801981482960441e+02 0.0000000000000000e+00 -1.1801981482960589e+02 1.0258038389366520e+03 0.0000000000000000e+00 0.0000000000000000e+00 0.0000000000000000e+00 0.0000000000000000e+00  -8.5512385592985360e+00 3.6622037860349665e-01 0.0000000000000000e+00 3.6622037860349116e-01 8.2347670258950293e+03 0.0000000000000000e+00 0.0000000000000000e+00 0.0000000000000000e+00 0.0000000000000000e+00  -4.2465751412507259e+01 -3.6530521981353187e-01 0.0000000000000000e+00 -3.6530521981346192e-01 8.3039978914384919e+03 0.0000000000000000e+00 0.0000000000000000e+00 0.0000000000000000e+00 0.0000000000000000e+00  -9.4362918137182660e+01 2.4542048424706895e+00 0.0000000000000000e+00 2.4542048424707099e+00 8.4088271285172759e+03 0.0000000000000000e+00 0.0000000000000000e+00 0.0000000000000000e+00 0.0000000000000000e+00  -1.5455851172164444e+02 3.5335910554681549e-02 0.0000000000000000e+00 3.5335910554669621e-02 8.5261087121754845e+03 0.0000000000000000e+00 0.0000000000000000e+00 0.0000000000000000e+00 0.0000000000000000e+00  -2.0802328603101873e+02 3.2952563760687412e+00 0.0000000000000000e+00 3.2952563760687466e+00 8.6678317240431752e+03 0.0000000000000000e+00 0.0000000000000000e+00 0.0000000000000000e+00 0.0000000000000000e+00  -2.6360493494076781e+02 -1.6790127147889292e-01 0.0000000000000000e+00 -1.6790127147890679e-01 8.8067915805054308e+03 0.0000000000000000e+00 0.0000000000000000e+00 0.0000000000000000e+00 0.0000000000000000e+00  -3.1619233938640161e+02 1.1048878528047355e-01 0.0000000000000000e+00 1.1048878528049437e-01 8.9272591929999689e+03 0.0000000000000000e+00 0.0000000000000000e+00 0.0000000000000000e+00 0.0000000000000000e+00  -3.4407609518201303e+02 -7.9458757519431744e-01 0.0000000000000000e+00 -7.9458757519432022e-01 9.0562617920547327e+03 0.0000000000000000e+00 0.0000000000000000e+00 0.0000000000000000e+00 0.0000000000000000e+00  -3.7039429582598490e+02 3.6018784295709044e-01 0.0000000000000000e+00 3.6018784295709361e-01 9.1395854075586176e+03 0.0000000000000000e+00 0.0000000000000000e+00 0.0000000000000000e+00 0.0000000000000000e+00  -3.8652286292078219e+02 -1.0909231063784901e+00 0.0000000000000000e+00 -1.0909231063784872e+00 9.2214531149964696e+03 0.0000000000000000e+00 0.0000000000000000e+00 0.0000000000000000e+00 0.0000000000000000e+00  -3.8989852960784873e+02 -7.2322316291169175e-01 0.0000000000000000e+00 -7.2322316291169342e-01 9.2829357665662083e+03 0.0000000000000000e+00 0.0000000000000000e+00 0.0000000000000000e+00 0.0000000000000000e+00  -3.8645382799517563e+02 -1.7351373952378462e+00 0.0000000000000000e+00 -1.7351373952378486e+00 9.3258101045107524e+03 0.0000000000000000e+00 0.0000000000000000e+00 0.0000000000000000e+00 0.0000000000000000e+00  -3.7755446129070640e+02 -1.0426787647294298e+00 0.0000000000000000e+00 -1.0426787647294253e+00 9.3561962126205181e+03 0.0000000000000000e+00 0.0000000000000000e+00 0.0000000000000000e+00 0.0000000000000000e+00  -3.6586300145524706e+02 -5.4958131335904770e-01 0.0000000000000000e+00 -5.4958131335905525e-01 9.3754787236660650e+03 0.0000000000000000e+00 0.0000000000000000e+00 0.0000000000000000e+00 0.0000000000000000e+00  -3.5070050144282186e+02 -8.7787689440507966e-01 0.0000000000000000e+00 -8.7787689440507410e-01 9.3838223409933853e+03 0.0000000000000000e+00 0.0000000000000000e+00 0.0000000000000000e+00 0.0000000000000000e+00  -3.3489622685169286e+02 -1.1020160852172154e+00 0.0000000000000000e+00 -1.1020160852172178e+00 9.3848295409028888e+03 0.0000000000000000e+00 0.0000000000000000e+00 0.0000000000000000e+00 0.0000000000000000e+00  -3.1977767931917009e+02 -5.2947226816663717e-01 0.0000000000000000e+00 -5.2947226816663739e-01 9.3784845909122869e+03 0.0000000000000000e+00 0.0000000000000000e+00 0.0000000000000000e+00 0.0000000000000000e+00  -3.0468215288816145e+02 -7.2804965393961207e-01 0.0000000000000000e+00 -7.2804965393960352e-01 9.3679479147696584e+03 0.0000000000000000e+00 0.0000000000000000e+00 0.0000000000000000e+00 0.0000000000000000e+00  -2.9096399322684550e+02 -3.5006439353474988e-01 0.0000000000000000e+00 -3.5006439353476521e-01 9.3528695521494519e+03 0.0000000000000000e+00 0.0000000000000000e+00 0.0000000000000000e+00 0.0000000000000000e+00  -2.7792554173346184e+02 -3.3217150545176394e-01 0.0000000000000000e+00 -3.3217150545176949e-01 9.3335337588949078e+03 0.0000000000000000e+00 0.0000000000000000e+00 0.0000000000000000e+00 0.0000000000000000e+00  -2.6635156353725000e+02 -1.7376158958910273e-01 0.0000000000000000e+00 -1.7376158958911428e-01 9.3113080453749590e+03 0.0000000000000000e+00 0.0000000000000000e+00 0.0000000000000000e+00 0.0000000000000000e+00  -2.5496181491049271e+02 -9.3852606140546649e-02 0.0000000000000000e+00 -9.3852606140539335e-02 9.2863869913911749e+03 0.0000000000000000e+00 0.0000000000000000e+00 0.0000000000000000e+00 0.0000000000000000e+00  -2.4495179829345074e+02 -8.1852253130532959e-02 0.0000000000000000e+00 -8.1852253130515334e-02 9.2576158178753576e+03 0.0000000000000000e+00 0.0000000000000000e+00 0.0000000000000000e+00 0.0000000000000000e+00  -2.3400318792665902e+02 -5.3191280927191720e-02 0.0000000000000000e+00 -5.3191280927207048e-02 9.2260038926099605e+03 0.0000000000000000e+00 0.0000000000000000e+00 0.0000000000000000e+00 0.0000000000000000e+00  -2.2396537950589004e+02 -1.4078187845057968e-01 0.0000000000000000e+00 -1.4078187845059964e-01 9.1913936435434134e+03 0.0000000000000000e+00 0.0000000000000000e+00 0.0000000000000000e+00 0.0000000000000000e+00  -2.1235141040934252e+02 1.8927379244105580e-01 0.0000000000000000e+00 1.8927379244106751e-01 9.1534600664577611e+03 0.0000000000000000e+00 0.0000000000000000e+00 0.0000000000000000e+00 0.0000000000000000e+00  -1.9997985773135278e+02 -1.3087822740136418e-01 0.0000000000000000e+00 -1.3087822740136967e-01 9.1109032726827027e+03 0.0000000000000000e+00 0.0000000000000000e+00 0.0000000000000000e+00 0.0000000000000000e+00  -1.8659026034721867e+02 2.5799533039401179e-01 0.0000000000000000e+00 2.5799533039401606e-01 9.0659853510529683e+03 0.0000000000000000e+00 0.0000000000000000e+00 0.0000000000000000e+00 0.0000000000000000e+00  -1.7117336121920894e+02 2.5151551549965562e-01 0.0000000000000000e+00 2.5151551549965279e-01 9.0187090911755186e+03 0.0000000000000000e+00 0.0000000000000000e+00 0.0000000000000000e+00 0.0000000000000000e+00  -1.5497527082737838e+02 8.7241943781907944e-02 0.0000000000000000e+00 8.7241943781910747e-02 8.9659332310662994e+03 0.0000000000000000e+00 0.0000000000000000e+00 0.0000000000000000e+00 0.0000000000000000e+00  -1.3607274655883785e+02 -2.4551710652139125e-01 0.0000000000000000e+00 -2.4551710652139289e-01 8.9139103776089705e+03 0.0000000000000000e+00 0.0000000000000000e+00 0.0000000000000000e+00 0.0000000000000000e+00  -1.1768778691083455e+02 -2.3578707636834370e-01 0.0000000000000000e+00 -2.3578707636835822e-01 8.8573172345058047e+03 0.0000000000000000e+00 0.0000000000000000e+00 0.0000000000000000e+00 0.0000000000000000e+00  -9.6314278668782606e+01 -1.4080499561115263e-02 0.0000000000000000e+00 -1.4080499561150487e-02 8.8025547558732760e+03 0.0000000000000000e+00 0.0000000000000000e+00 0.0000000000000000e+00 0.0000000000000000e+00  -7.6052498199957171e+01 -3.8071564684364023e-01 0.0000000000000000e+00 -3.8071564684366266e-01 8.7505853847651633e+03 0.0000000000000000e+00 0.0000000000000000e+00 0.0000000000000000e+00 0.0000000000000000e+00  -5.5758519884958467e+01 -6.2909373765121596e-02 0.0000000000000000e+00 -6.2909373765143273e-02 8.6995541893197442e+03 0.0000000000000000e+00 0.0000000000000000e+00 0.0000000000000000e+00 0.0000000000000000e+00  -3.7679230436182557e+01 -6.8898137593007377e-02 0.0000000000000000e+00 -6.8898137593007377e-02 8.6507494602342540e+03 0.0000000000000000e+00 0.0000000000000000e+00 0.0000000000000000e+00 0.0000000000000000e+00  -2.2050116388627927e+01 -1.2605792823724640e-01 0.0000000000000000e+00 -1.2605792823726367e-01 8.6096515823800310e+03 0.0000000000000000e+00 0.0000000000000000e+00 0.0000000000000000e+00 0.0000000000000000e+00  -9.9944564969475174e+00 1.7532524885882558e-01 0.0000000000000000e+00 1.7532524885882686e-01 8.5754308086276396e+03 0.0000000000000000e+00 0.0000000000000000e+00 0.0000000000000000e+00 0.0000000000000000e+00  -1.3820751153187174e+00 3.2027739953396855e-01 0.0000000000000000e+00 3.2027739953397039e-01 8.5509156756742777e+03 0.0000000000000000e+00 0.0000000000000000e+00 0.0000000000000000e+00 0.0000000000000000e+00  -8.8001199822909072e+01 -2.0866801412160731e+02 0.0000000000000000e+00 -2.0866801412160785e+02 5.2827870827340053e+02 0.0000000000000000e+00 0.0000000000000000e+00 0.0000000000000000e+00 0.0000000000000000e+00  2.9164398721906838e+02 2.7881274658517168e+02 0.0000000000000000e+00 2.7881274658517071e+02 3.4079744636515898e+03 0.0000000000000000e+00 0.0000000000000000e+00 0.0000000000000000e+00 0.0000000000000000e+00  -2.4615523650751672e+02 -8.4992870221538709e+01 0.0000000000000000e+00 -8.4992870221538297e+01 4.4228682438003661e+03 0.0000000000000000e+00 0.0000000000000000e+00 0.0000000000000000e+00 0.0000000000000000e+00  2.2444803483605588e+02 1.6586465114520695e+02 0.0000000000000000e+00 1.6586465114520684e+02 5.9873885533570201e+03 0.0000000000000000e+00 0.0000000000000000e+00 0.0000000000000000e+00 0.0000000000000000e+00  -9.8485664012237052e+01 -6.3008149594835260e+01 0.0000000000000000e+00 -6.3008149594835373e+01 6.4291530367317328e+03 0.0000000000000000e+00 0.0000000000000000e+00 0.0000000000000000e+00 0.0000000000000000e+00  8.0738040495379011e+01 7.0277622068354219e+01 0.0000000000000000e+00 7.0277622068353921e+01 7.0817038567890213e+03 0.0000000000000000e+00 0.0000000000000000e+00 0.0000000000000000e+00 0.0000000000000000e+00  -2.5475369912452699e+01 8.0386129435819385e+00 0.0000000000000000e+00 8.0386129435820717e+00 7.3964829927632727e+03 0.0000000000000000e+00 0.0000000000000000e+00 0.0000000000000000e+00 0.0000000000000000e+00  1.6949166780160489e+01 2.7123486112108559e+01 0.0000000000000000e+00 2.7123486112108768e+01 7.6300846895817031e+03 0.0000000000000000e+00 0.0000000000000000e+00 0.0000000000000000e+00 0.0000000000000000e+00  3.8401553834624358e+00 1.4390852764795277e+01 0.0000000000000000e+00 1.4390852764795167e+01 7.8654803991455492e+03 0.0000000000000000e+00 0.0000000000000000e+00 0.0000000000000000e+00 0.0000000000000000e+00  6.0858098234850653e+00 8.7839671195237745e+00 0.0000000000000000e+00 8.7839671195237745e+00 7.9875122579477875e+03 0.0000000000000000e+00 0.0000000000000000e+00 0.0000000000000000e+00 0.0000000000000000e+00  -3.2201489571293771e+00 1.5916560614687607e+00 0.0000000000000000e+00 1.5916560614687087e+00 8.1012517673629409e+03 0.0000000000000000e+00 0.0000000000000000e+00 0.0000000000000000e+00 0.0000000000000000e+00  6.0200563574985333e+00 4.9670966349277021e+00 0.0000000000000000e+00 4.9670966349276888e+00 8.1508315064534090e+03 0.0000000000000000e+00 0.0000000000000000e+00 0.0000000000000000e+00 0.0000000000000000e+00  -1.8920778161435645e+00 1.0553418836194493e+00 0.0000000000000000e+00 1.0553418836194566e+00 8.2026488045154292e+03 0.0000000000000000e+00 0.0000000000000000e+00 0.0000000000000000e+00 0.0000000000000000e+00  1.2820090063297407e+03 1.3473734188785188e+03 0.0000000000000000e+00 1.3473734188785202e+03 4.7544768596396176e+02 0.0000000000000000e+00 0.0000000000000000e+00 0.0000000000000000e+00 0.0000000000000000e+00  5.6912633635112461e+03 6.0484299191596419e+03 0.0000000000000000e+00 6.0484299191596319e+03 9.8963695690345485e+03 0.0000000000000000e+00 0.0000000000000000e+00 0.0000000000000000e+00 0.0000000000000000e+00  2.6150618066523166e+03 2.7249938250300943e+03 0.0000000000000000e+00 2.7249938250300952e+03 1.3553954599607909e+04 0.0000000000000000e+00 0.0000000000000000e+00 0.0000000000000000e+00 0.0000000000000000e+00  3.2738148925780147e+03 -2.5818023860822900e+03 0.0000000000000000e+00 -2.5818023860822905e+03 1.4120812387385624e+04 0.0000000000000000e+00 0.0000000000000000e+00 0.0000000000000000e+00 0.0000000000000000e+00  3.4336498579009813e+03 -5.6467833976603106e+03 0.0000000000000000e+00 -5.6467833976603106e+03 8.8366355806457595e+03 0.0000000000000000e+00 0.0000000000000000e+00 0.0000000000000000e+00 0.0000000000000000e+00  2.1281642865914732e+03 -1.7646012503125239e+03 0.0000000000000000e+00 -1.7646012503125251e+03 1.1289479348055952e+03 0.0000000000000000e+00 0.0000000000000000e+00 0.0000000000000000e+00 0.0000000000000000e+00  9.1311989872272931e-02 -5.5925374664268424e-01 0.0000000000000000e+00 -5.5925374664268568e-01 8.5343454387286038e+03 0.0000000000000000e+00 0.0000000000