<?xml version="1.0"?>
<VTKFile type="UnstructuredGrid"  version="0.1"  >
<UnstructuredGrid>
<Piece  NumberOfPoints="2165" NumberOfCells="4161">
<Points>
<DataArray  type="Float64"  NumberOfComponents="3"  format="ascii">-3.598637933768527e-16 0.3500000000000001 0  0.05 0.4 0  -3.537405593811159e-16 0.45 0  0 1 0  1 1 0  0.9999999999999997 0.65 0  0.9999999999999997 0.5499999999999999 0  1 0 0  0 0 0  0.0191341716182545 0.3538060233744357 0  0.03535533905932737 0.3646446609406727 0  0.04619397662556433 0.3808658283817455 0  0.04619397662556434 0.4191341716182545 0  0.03535533905932738 0.4353553390593274 0  0.01913417161825449 0.4461939766255644 0  0 0.975 0  0 0.95 0  0 0.9249999999999999 0  0 0.8999999999999998 0  0 0.8749999999999998 0  0 0.8499999999999998 0  0 0.8249999999999997 0  0 0.7999999999999996 0  0 0.7749999999999996 0  0 0.7499999999999996 0  0 0.7249999999999996 0  0 0.6999999999999997 0  0 0.6749999999999998 0  0 0.6499999999999999 0  0 0.6249999999999999 0  0 0.6 0  0 0.575 0  0 0.5499999999999998 0  0 0.5249999999999999 0  0 0.4999999999999998 0  0 0.4749999999999999 0  0.975 1 0  0.95 1 0  0.925 1 0  0.9 1 0  0.875 1 0  0.85 1 0  0.825 1 0  0.8 1 0  0.775 1 0  0.75 1 0  0.725 1 0  0.7 1 0  0.675 1 0  0.65 1 0  0.625 1 0  0.6 1 0  0.575 1 0  0.55 1 0  0.525 1 0  0.5 1 0  0.475 1 0  0.45 1 0  0.425 1 0  0.4 1 0  0.375 1 0  0.35 1 0  0.325 1 0  0.3 1 0  0.275 1 0  0.25 1 0  0.225 1 0  0.2 1 0  0.175 1 0  0.15 1 0  0.125 1 0  0.09999999999999998 1 0  0.07499999999999996 1 0  0.05000000000000004 1 0  0.02500000000000002 1 0  1 0.675 0  1 0.7000000000000001 0  1 0.7250000000000001 0  1 0.7500000000000001 0  1 0.7750000000000001 0  1 0.8000000000000002 0  1 0.8250000000000002 0  1 0.8500000000000002 0  1 0.8750000000000003 0  1 0.9000000000000001 0  1 0.9250000000000002 0  1 0.9500000000000001 0  1 0.9750000000000001 0  0.9783058130441221 0.6450484433951209 0  0.9609084258765985 0.6311744900929367 0  0.9512536043909088 0.6111260466978157 0  0.9512536043909088 0.5888739533021843 0  0.9609084258765985 0.5688255099070633 0  0.9783058130441221 0.554951556604879 0  1 0.02500000000000002 0  1 0.05000000000000004 0  1 0.07500000000000008 0  1 0.1000000000000001 0  1 0.1250000000000001 0  1 0.1500000000000002 0  1 0.1750000000000002 0  1 0.2000000000000003 0  1 0.2250000000000003 0  1 0.2500000000000004 0  1 0.2750000000000004 0  1 0.3000000000000003 0  1 0.3250000000000002 0  1 0.3500000000000001 0  1 0.3750000000000001 0  1 0.3999999999999999 0  1 0.425 0  1 0.45 0  1 0.475 0  1 0.5000000000000001 0  1 0.5249999999999999 0  0.025 0 0  0.05 0 0  0.075 0 0  0.1 0 0  0.125 0 0  0.15 0 0  0.175 0 0  0.2 0 0  0.225 0 0  0.25 0 0  0.275 0 0  0.3 0 0  0.325 0 0  0.35 0 0  0.375 0 0  0.4 0 0  0.425 0 0  0.45 0 0  0.475 0 0  0.5 0 0  0.525 0 0  0.55 0 0  0.575 0 0  0.6 0 0  0.625 0 0  0.65 0 0  0.675 0 0  0.7 0 0  0.725 0 0  0.75 0 0  0.775 0 0  0.8 0 0  0.825 0 0  0.85 0 0  0.875 0 0  0.9 0 0  0.925 0 0  0.95 0 0  0.975 0 0  0 0.3250000000000001 0  0 0.3 0  0 0.275 0  0 0.2499999999999999 0  0 0.2249999999999999 0  0 0.1999999999999998 0  0 0.1749999999999998 0  0 0.1499999999999998 0  0 0.1249999999999998 0  0 0.09999999999999987 0  0 0.07499999999999984 0  0 0.04999999999999993 0  0 0.02500000000000002 0  0.06453325334544308 0.4134708543086404 0  0.5146839915088474 0.02134387884913819 0  0.4875871001393628 0.9784117024331356 0  0.9386300160094723 0.5701776715936071 0  0.0216506350946109 0.6124999999999999 0  0.9764205887290853 0.3596067946540696 0  0.3876261045932067 0.02156097490657183 0  0.6125 0.978349364905389 0  0.3612127461797463 0.9792371404802113 0  0.6374786650398092 0.02079982608537345 0  0.9387185538472446 0.6295115890709873 0  0.05482260092545593 0.3633687091864355 0  0.02445354803948679 0.7343198207875321 0  0.2624888813627476 0.02091671348578122 0  0.7375212991274043 0.9794996488945376 0  0.9793010831723812 0.2648509348664836 0  0.2625026480689301 0.9795699185263282 0  0.7362840788105066 0.02225211062275217 0  0.02159327910297104 0.2128861809896528 0  0.9786837570973538 0.7867241244631172 0  0.02419728000065929 0.8365600234152764 0  0.980043283615984 0.1624097203408714 0  0.1645857434226354 0.0205513501962844 0  0.8339481359352011 0.9784483546369231 0  0.1637584777222821 0.9774556328160621 0  0.8374916614314967 0.02165097219510076 0  0.02171915379676059 0.5370700005916152 0  0.9795335762511281 0.4365726939225819 0  0.02319480745007968 0.1370197632171214 0  0.9774462976085161 0.8592616917551974 0  0.9786941241076723 0.7122511101067891 0  0.9797883857882621 0.08781864217752949 0  0.01966314788989931 0.9125801876811624 0  0.02051815350151098 0.2882126194470174 0  0.09063226699593246 0.0214884092697174 0  0.9124408843562394 0.9818463395009377 0  0.03872465516591678 0.452731089005145 0  0.08969424365256845 0.978412979507602 0  0.9124999999999999 0.02165063509461096 0  0.02158104789437187 0.6619299176372371 0  0.9796602354625652 0.4859004208706154 0  0.3127517983598529 0.02417963694738812 0  0.4375629605000894 0.02158039900821679 0  0.5643674594196073 0.01968996000301126 0  0.5368361594956101 0.9790428840407062 0  0.4376176251051295 0.9783667484208922 0  0.6874072695660477 0.978435143102373 0  0.310604317388614 0.979558305560928 0  0.2125577044121564 0.02066685543111635 0  0.6875 0.0216506350946109 0  0.02224009810917643 0.08811420611559456 0  0.790876428529276 0.978633065284896 0  0.2125 0.978349364905389 0  0.9788033534786624 0.2116925349935155 0  0.9769441169344462 0.3150381335760689 0  0.9804648376981185 0.9123186437266726 0  0.7874999988222203 0.02127957051165741 0  0.02109233852270731 0.786866823287435 0  0.9483709287873718 0.5504073206521916 0  0.9259842326464427 0.5519702047534598 0  0.9163209045278007 0.5719292915927929 0  0.9035374059862284 0.5537291796040291 0  0.8938951918780048 0.5738949757882954 0  0.8807940177559743 0.5546750869516996 0  0.8712661812741653 0.5757142549099102 0  0.8580668865514332 0.5563902430113601 0  0.848508161986991 0.5779004013072002 0  0.8354274200119249 0.5591176379057713 0  0.8256349826905482 0.5800610629400762 0  0.8124123591208572 0.5604454546391737 0  0.802603410938817 0.5819653950592523 0  0.7892876429890218 0.562234610648543 0  0.7794355871850538 0.583896242519796 0  0.7661469824381839 0.5648243426306435 0  0.7562387679604726 0.5860005456930413 0  0.7429651600512166 0.5669367633461588 0  0.7330846968880171 0.5879590907760761 0  0.7198577999459205 0.5688986880627463 0  0.7297050500533544 0.5479561801187277 0  0.7066243396993471 0.5499068108517552 0  0.6968285086900206 0.5707989520567972 0  0.6836266810714333 0.5519088927359967 0  0.6738604685766018 0.5727655091567184 0  0.6607284761452521 0.5538781923028128 0  0.6697149783704412 0.5321140554135094 0  0.6473436039782401 0.5350050604671006 0  0.6378867365666199 0.5557804038095817 0  0.6246915360243652 0.5362124690568238 0  0.6151175309583405 0.5575933164645619 0  0.6019784180102355 0.5380659376543677 0  0.5924099113505394 0.5593739656462906 0  0.5794110962027638 0.541110021814312 0  0.5697985396917309 0.5614600003719357 0  0.5568468707330213 0.5433212932327446 0  0.5472634011377896 0.5635652141280936 0  0.5343236363495072 0.5451361960661517 0  0.5247877773262166 0.565493591892781 0  0.5118927934227436 0.5470665328397559 0  0.5023398230005425 0.5674381114577953 0  0.5213991904098014 0.5267047787870831 0  0.4990390504096661 0.528649139287786 0  0.6328887517229864 0.5131744321062524 0  0.5085133205790763 0.5083322037773296 0  0.4861972978925295 0.5102540920324363 0  0.4956914791804768 0.4899605513008993 0  0.4734139980312694 0.4918582759645476 0  0.4826986629698439 0.4717164019717278 0  0.460570567761715 0.473509155475794 0  0.4699344541058981 0.4533140529328089 0  0.4477087341565655 0.4550973130597117 0  0.4381733274019614 0.4752901381741884 0  0.4570222843287571 0.4349938694701042 0  0.4348599018247688 0.436728068420533 0  0.5604623134382263 0.581815997002507 0  0.4443612964408632 0.416499823314016 0  0.422056299386984 0.4183730429856528 0  0.4688721528228815 0.4135009841763965 0  0.4315584877924544 0.398120546824229 0  0.4092288692044618 0.3999974286008185 0  0.7463210599443056 0.6070829843371945 0  0.4187270626688335 0.3797365044773463 0  0.3964262302393312 0.3817184136470017 0  0.3869780036193907 0.4018498778543814 0  0.3742423843122406 0.3837055716372927 0  0.3648701490102072 0.4037049758807119 0  0.3518115403926748 0.3858985036587403 0  0.3426146276710081 0.4056777495658291 0  0.3614541441355358 0.3656396497906528 0  0.339026673715919 0.3678724679736439 0  0.3485566370135618 0.3476560889674916 0  0.3264681821394378 0.3496422822523857 0  0.8219942777991693 0.5379143061758643 0  0.3358297439968608 0.3295117748868035 0  0.3137050884585635 0.3314921667582986 0  0.3229980644152205 0.3113561769498422 0  0.3007986024336577 0.3133063832007756 0  0.3441851868720173 0.3085211458266175 0  0.3101966551534752 0.2930273704914169 0  0.287793053707373 0.2950088132226583 0  0.2914417217227097 0.3337427541189321 0  0.2975120686695638 0.2743682539701985 0  0.274864585256681 0.2764253296978281 0  0.816026571618698 0.6006851919544112 0  0.2844672854128698 0.2557011565880619 0  0.2617267434509338 0.2577713002235077 0  0.3072711221189672 0.2536790056475094 0  0.2521588568690318 0.2785072139143895 0  0.2389277409161178 0.2598761196336353 0  0.248448076747058 0.2389478879785275 0  0.5053822153261678 0.4716915524631118 0  0.229548765875869 0.2806542761043101 0  0.2254561407802683 0.2411354049374563 0  0.2350621310805047 0.2199181955146378 0  0.2117782450160163 0.222165061041625 0  0.2214249125635323 0.2008136877065064 0  0.2448758256083499 0.1985732693215908 0  0.197966291680556 0.2031211006951591 0  0.1883147493074436 0.2245564097761413 0  0.8910637266939049 0.5322898364209732 0  0.1748136087708587 0.2051141748992724 0  0.1842088801696792 0.1837087814679069 0  0.1656574100807746 0.2269812054689968 0  0.3554582346764377 0.4236292557112198 0  0.3328979939923831 0.425459320867588 0  0.3460368767112177 0.4435398346083328 0  0.3238464003
[...]
<PointData  Tensors="$\sigma$"> 
<DataArray  type="Float64"  Name="$\sigma$"  NumberOfComponents="9" format="ascii">-2.6965994088447178e+02 -3.3141661188795422e+02 0.0000000000000000e+00 -3.3141661188795399e+02 -8.1335033885637392e+02 0.0000000000000000e+00 0.0000000000000000e+00 0.0000000000000000e+00 0.0000000000000000e+00  1.5345574206636672e+03 4.5170338581129329e+01 0.0000000000000000e+00 4.5170338581128455e+01 1.4872717976662261e+04 0.0000000000000000e+00 0.0000000000000000e+00 0.0000000000000000e+00 0.0000000000000000e+00  -2.2816814005024241e+02 4.0576462680404887e+02 0.0000000000000000e+00 4.0576462680404876e+02 -8.5188934450205727e+02 0.0000000000000000e+00 0.0000000000000000e+00 0.0000000000000000e+00 0.0000000000000000e+00  7.6871551940216595e-02 6.6509489259094945e-01 0.0000000000000000e+00 6.6509489259094967e-01 4.9206717756185344e+03 0.0000000000000000e+00 0.0000000000000000e+00 0.0000000000000000e+00 0.0000000000000000e+00  1.2829628310077559e+00 3.1110983400639051e-02 0.0000000000000000e+00 3.1110983400644329e-02 4.7718065167684172e+03 0.0000000000000000e+00 0.0000000000000000e+00 0.0000000000000000e+00 0.0000000000000000e+00  -3.1078587803627801e+02 -3.1765212292249259e+02 0.0000000000000000e+00 -3.1765212292249203e+02 -9.6737589630334298e+01 0.0000000000000000e+00 0.0000000000000000e+00 0.0000000000000000e+00 0.0000000000000000e+00  1.7416402785463785e+02 -1.2040254182226468e+02 0.0000000000000000e+00 -1.2040254182226410e+02 1.6607302564383633e+02 0.0000000000000000e+00 0.0000000000000000e+00 0.0000000000000000e+00 0.0000000000000000e+00  3.7346848884314714e-02 1.1461369914593919e-01 0.0000000000000000e+00 1.1461369914594208e-01 4.9227863036688295e+03 0.0000000000000000e+00 0.0000000000000000e+00 0.0000000000000000e+00 0.0000000000000000e+00  1.4410042239286863e+03 5.8717639962974647e+02 0.0000000000000000e+00 5.8717639962974715e+02 5.1661471197194160e+03 0.0000000000000000e+00 0.0000000000000000e+00 0.0000000000000000e+00 0.0000000000000000e+00  7.8848890896862326e+02 6.6227793050215939e+02 0.0000000000000000e+00 6.6227793050216110e+02 5.7824349697564458e+02 0.0000000000000000e+00 0.0000000000000000e+00 0.0000000000000000e+00 0.0000000000000000e+00  2.7007253536638268e+03 3.0840824762467710e+03 0.0000000000000000e+00 3.0840824762467705e+03 3.9485216416865146e+03 0.0000000000000000e+00 0.0000000000000000e+00 0.0000000000000000e+00 0.0000000000000000e+00  2.0207059039280141e+03 3.8602554051026891e+03 0.0000000000000000e+00 3.8602554051026896e+03 1.1606490738426179e+04 0.0000000000000000e+00 0.0000000000000000e+00 0.0000000000000000e+00 0.0000000000000000e+00  1.9910882381293702e+03 -3.8806284167677768e+03 0.0000000000000000e+00 -3.8806284167677782e+03 1.1545787835968869e+04 0.0000000000000000e+00 0.0000000000000000e+00 0.0000000000000000e+00 0.0000000000000000e+00  2.6660813075545993e+03 -3.0328750444437023e+03 0.0000000000000000e+00 -3.0328750444437028e+03 4.2138350522779047e+03 0.0000000000000000e+00 0.0000000000000000e+00 0.0000000000000000e+00 0.0000000000000000e+00  7.6748298729861938e+02 -7.2488464117998149e+02 0.0000000000000000e+00 -7.2488464117998319e+02 5.5490092945112883e+02 0.0000000000000000e+00 0.0000000000000000e+00 0.0000000000000000e+00 0.0000000000000000e+00  7.0219642676765323e-02 -1.6905596309061460e-01 0.0000000000000000e+00 -1.6905596309061635e-01 4.9185907573561171e+03 0.0000000000000000e+00 0.0000000000000000e+00 0.0000000000000000e+00 0.0000000000000000e+00  -2.2102256134830078e-02 -6.5167208663927789e-01 0.0000000000000000e+00 -6.5167208663927301e-01 4.9147570923866679e+03 0.0000000000000000e+00 0.0000000000000000e+00 0.0000000000000000e+00 0.0000000000000000e+00  4.3153719412708197e-01 -7.4106795692830829e-01 0.0000000000000000e+00 -7.4106795692830307e-01 4.9084819806200521e+03 0.0000000000000000e+00 0.0000000000000000e+00 0.0000000000000000e+00 0.0000000000000000e+00  -3.2082450820602459e-01 -5.5335145892532156e-01 0.0000000000000000e+00 -5.5335145892531856e-01 4.8988744956177670e+03 0.0000000000000000e+00 0.0000000000000000e+00 0.0000000000000000e+00 0.0000000000000000e+00  2.8433356207128324e-01 -1.0020220905753459e+00 0.0000000000000000e+00 -1.0020220905753547e+00 4.8856382483709240e+03 0.0000000000000000e+00 0.0000000000000000e+00 0.0000000000000000e+00 0.0000000000000000e+00  8.6319472296191690e-01 -2.1474727410975580e+00 0.0000000000000000e+00 -2.1474727410975767e+00 4.8717023059494695e+03 0.0000000000000000e+00 0.0000000000000000e+00 0.0000000000000000e+00 0.0000000000000000e+00  -7.1982283266590591e-02 -1.6543675258862967e+00 0.0000000000000000e+00 -1.6543675258862942e+00 4.8474145117344315e+03 0.0000000000000000e+00 0.0000000000000000e+00 0.0000000000000000e+00 0.0000000000000000e+00  -1.9664147881833480e-01 -2.2454374469773519e+00 0.0000000000000000e+00 -2.2454374469773448e+00 4.8238958786873291e+03 0.0000000000000000e+00 0.0000000000000000e+00 0.0000000000000000e+00 0.0000000000000000e+00  1.3253881493206581e+00 -3.3104060226876761e+00 0.0000000000000000e+00 -3.3104060226876570e+00 4.7943981955889631e+03 0.0000000000000000e+00 0.0000000000000000e+00 0.0000000000000000e+00 0.0000000000000000e+00  9.7452428906367505e-01 -4.4353468837254724e+00 0.0000000000000000e+00 -4.4353468837255097e+00 4.7586001235232643e+03 0.0000000000000000e+00 0.0000000000000000e+00 0.0000000000000000e+00 0.0000000000000000e+00  1.0729947815799334e+00 -5.6419556774153765e+00 0.0000000000000000e+00 -5.6419556774153774e+00 4.6969187069768232e+03 0.0000000000000000e+00 0.0000000000000000e+00 0.0000000000000000e+00 0.0000000000000000e+00  7.3216466616301024e-01 -9.2115622533269246e+00 0.0000000000000000e+00 -9.2115622533269086e+00 4.6556513455118429e+03 0.0000000000000000e+00 0.0000000000000000e+00 0.0000000000000000e+00 0.0000000000000000e+00  4.5446011495634270e-01 -6.8616622561475245e+00 0.0000000000000000e+00 -6.8616622561475999e+00 4.5623546277667683e+03 0.0000000000000000e+00 0.0000000000000000e+00 0.0000000000000000e+00 0.0000000000000000e+00  1.0844556245503396e+00 -9.5615206927318628e+00 0.0000000000000000e+00 -9.5615206927319445e+00 4.4737451538909590e+03 0.0000000000000000e+00 0.0000000000000000e+00 0.0000000000000000e+00 0.0000000000000000e+00  7.7234611555414565e+00 -5.7735602702478763e+00 0.0000000000000000e+00 -5.7735602702477857e+00 4.3342256093955148e+03 0.0000000000000000e+00 0.0000000000000000e+00 0.0000000000000000e+00 0.0000000000000000e+00  -6.3254161256205066e+00 -1.1396751498819365e+01 0.0000000000000000e+00 -1.1396751498819015e+01 4.1586035790490396e+03 0.0000000000000000e+00 0.0000000000000000e+00 0.0000000000000000e+00 0.0000000000000000e+00  2.4338991402230377e+01 -4.0330840080851949e+01 0.0000000000000000e+00 -4.0330840080852120e+01 3.8785660451922622e+03 0.0000000000000000e+00 0.0000000000000000e+00 0.0000000000000000e+00 0.0000000000000000e+00  -1.2220590929577389e+01 -2.2903376602851569e+01 0.0000000000000000e+00 -2.2903376602851637e+01 3.5074458002367919e+03 0.0000000000000000e+00 0.0000000000000000e+00 0.0000000000000000e+00 0.0000000000000000e+00  2.3521092336159931e+01 -1.2195778546224562e+02 0.0000000000000000e+00 -1.2195778546224577e+02 2.8765011522935151e+03 0.0000000000000000e+00 0.0000000000000000e+00 0.0000000000000000e+00 0.0000000000000000e+00  -3.9262222403119210e+01 -1.3554579297125261e+02 0.0000000000000000e+00 -1.3554579297125193e+02 1.9566112918703038e+03 0.0000000000000000e+00 0.0000000000000000e+00 0.0000000000000000e+00 0.0000000000000000e+00  1.5659206765561825e+02 -1.6039112868291093e+02 0.0000000000000000e+00 -1.6039112868291014e+02 6.9792298192472970e+02 0.0000000000000000e+00 0.0000000000000000e+00 0.0000000000000000e+00 0.0000000000000000e+00  -4.0472986156520490e+00 2.3509849645400691e-01 0.0000000000000000e+00 2.3509849645400169e-01 4.7825697931529867e+03 0.0000000000000000e+00 0.0000000000000000e+00 0.0000000000000000e+00 0.0000000000000000e+00  -2.0415820438305811e+01 7.8435361363848530e-03 0.0000000000000000e+00 7.8435361363950271e-03 4.8141158892483973e+03 0.0000000000000000e+00 0.0000000000000000e+00 0.0000000000000000e+00 0.0000000000000000e+00  -4.5182293602469244e+01 1.2851568575402064e+00 0.0000000000000000e+00 1.2851568575402046e+00 4.8619023286022448e+03 0.0000000000000000e+00 0.0000000000000000e+00 0.0000000000000000e+00 0.0000000000000000e+00  -7.4113221596982356e+01 1.2848010829815470e-01 0.0000000000000000e+00 1.2848010829814027e-01 4.9164908227698725e+03 0.0000000000000000e+00 0.0000000000000000e+00 0.0000000000000000e+00 0.0000000000000000e+00  -9.9514559048924127e+01 1.7286834611000121e+00 0.0000000000000000e+00 1.7286834610999966e+00 4.9829503226452662e+03 0.0000000000000000e+00 0.0000000000000000e+00 0.0000000000000000e+00 0.0000000000000000e+00  -1.2555402150773487e+02 -1.1915136344456895e-01 0.0000000000000000e+00 -1.1915136344454727e-01 5.0477376718574023e+03 0.0000000000000000e+00 0.0000000000000000e+00 0.0000000000000000e+00 0.0000000000000000e+00  -1.5089784752579595e+02 6.6846416811835785e-02 0.0000000000000000e+00 6.6846416811855422e-02 5.1036683825132795e+03 0.0000000000000000e+00 0.0000000000000000e+00 0.0000000000000000e+00 0.0000000000000000e+00  -1.6362629877066098e+02 -4.2810454870111347e-01 0.0000000000000000e+00 -4.2810454870111819e-01 5.1639310916029808e+03 0.0000000000000000e+00 0.0000000000000000e+00 0.0000000000000000e+00 0.0000000000000000e+00  -1.7580994926116145e+02 1.7844648755023101e-01 0.0000000000000000e+00 1.7844648755022582e-01 5.2023251476372079e+03 0.0000000000000000e+00 0.0000000000000000e+00 0.0000000000000000e+00 0.0000000000000000e+00  -1.8320652071290289e+02 -5.4800569170197566e-01 0.0000000000000000e+00 -5.4800569170197544e-01 5.2399876093642160e+03 0.0000000000000000e+00 0.0000000000000000e+00 0.0000000000000000e+00 0.0000000000000000e+00  -1.8443732823569337e+02 -4.3784559803359829e-01 0.0000000000000000e+00 -4.3784559803359752e-01 5.2683351183631630e+03 0.0000000000000000e+00 0.0000000000000000e+00 0.0000000000000000e+00 0.0000000000000000e+00  -1.8253361714610193e+02 -8.3666553957020484e-01 0.0000000000000000e+00 -8.3666553957020540e-01 5.2878214786010094e+03 0.0000000000000000e+00 0.0000000000000000e+00 0.0000000000000000e+00 0.0000000000000000e+00  -1.7810505574920322e+02 -5.0884590560735810e-01 0.0000000000000000e+00 -5.0884590560736309e-01 5.3016539261636362e+03 0.0000000000000000e+00 0.0000000000000000e+00 0.0000000000000000e+00 0.0000000000000000e+00  -1.7239970857306844e+02 -3.4728126492498873e-01 0.0000000000000000e+00 -3.4728126492499289e-01 5.3103024993566223e+03 0.0000000000000000e+00 0.0000000000000000e+00 0.0000000000000000e+00 0.0000000000000000e+00  -1.6511002944848872e+02 -4.3549032747735456e-01 0.0000000000000000e+00 -4.3549032747735433e-01 5.3138890874765275e+03 0.0000000000000000e+00 0.0000000000000000e+00 0.0000000000000000e+00 0.0000000000000000e+00  -1.5761850536198526e+02 -5.3868616429045391e-01 0.0000000000000000e+00 -5.3868616429045912e-01 5.3141454723100160e+03 0.0000000000000000e+00 0.0000000000000000e+00 0.0000000000000000e+00 0.0000000000000000e+00  -1.5040183938687167e+02 -3.0221450591261556e-01 0.0000000000000000e+00 -3.0221450591261134e-01 5.3110488504609211e+03 0.0000000000000000e+00 0.0000000000000000e+00 0.0000000000000000e+00 0.0000000000000000e+00  -1.4333591927967029e+02 -3.5979020321098060e-01 0.0000000000000000e+00 -3.5979020321098104e-01 5.3060247990963944e+03 0.0000000000000000e+00 0.0000000000000000e+00 0.0000000000000000e+00 0.0000000000000000e+00  -1.3685468007387030e+02 -1.8608862506070847e-01 0.0000000000000000e+00 -1.8608862506071452e-01 5.2989425016330824e+03 0.0000000000000000e+00 0.0000000000000000e+00 0.0000000000000000e+00 0.0000000000000000e+00  -1.3077144343066183e+02 -1.6003817212058036e-01 0.0000000000000000e+00 -1.6003817212057800e-01 5.2899277242729495e+03 0.0000000000000000e+00 0.0000000000000000e+00 0.0000000000000000e+00 0.0000000000000000e+00  -1.2536894326621281e+02 -8.3780155137259144e-02 0.0000000000000000e+00 -8.3780155137258713e-02 5.2795942336858670e+03 0.0000000000000000e+00 0.0000000000000000e+00 0.0000000000000000e+00 0.0000000000000000e+00  -1.2006128927932356e+02 -4.4555551082993923e-02 0.0000000000000000e+00 -4.4555551082991696e-02 5.2679670760309600e+03 0.0000000000000000e+00 0.0000000000000000e+00 0.0000000000000000e+00 0.0000000000000000e+00  -1.1542571767872315e+02 -1.5519661077085693e-02 0.0000000000000000e+00 -1.5519661077083089e-02 5.2546128966993674e+03 0.0000000000000000e+00 0.0000000000000000e+00 0.0000000000000000e+00 0.0000000000000000e+00  -1.1031732226484294e+02 -2.7734167093362277e-02 0.0000000000000000e+00 -2.7734167093360712e-02 5.2399369331708913e+03 0.0000000000000000e+00 0.0000000000000000e+00 0.0000000000000000e+00 0.0000000000000000e+00  -1.0565976532871601e+02 -6.8671514851521981e-02 0.0000000000000000e+00 -6.8671514851525686e-02 5.2239050894295888e+03 0.0000000000000000e+00 0.0000000000000000e+00 0.0000000000000000e+00 0.0000000000000000e+00  -1.0022774425006286e+02 9.0479760463000797e-02 0.0000000000000000e+00 9.0479760463003642e-02 5.2062449859174994e+03 0.0000000000000000e+00 0.0000000000000000e+00 0.0000000000000000e+00 0.0000000000000000e+00  -9.4458471276178969e+01 -4.9890820198122146e-02 0.0000000000000000e+00 -4.9890820198121730e-02 5.1864414954787380e+03 0.0000000000000000e+00 0.0000000000000000e+00 0.0000000000000000e+00 0.0000000000000000e+00  -8.8186819985448736e+01 1.1187379203966362e-01 0.0000000000000000e+00 1.1187379203966169e-01 5.1655582184593104e+03 0.0000000000000000e+00 0.0000000000000000e+00 0.0000000000000000e+00 0.0000000000000000e+00  -8.0903778261578921e+01 1.3454839419440248e-01 0.0000000000000000e+00 1.3454839419440132e-01 5.1435555122404712e+03 0.0000000000000000e+00 0.0000000000000000e+00 0.0000000000000000e+00 0.0000000000000000e+00  -7.3344263459881049e+01 1.4412194357533572e-02 0.0000000000000000e+00 1.4412194357534849e-02 5.1189093343708128e+03 0.0000000000000000e+00 0.0000000000000000e+00 0.0000000000000000e+00 0.0000000000000000e+00  -6.4361810793824716e+01 -9.5809008792961919e-02 0.0000000000000000e+00 -9.5809008792965181e-02 5.0946961275816429e+03 0.0000000000000000e+00 0.0000000000000000e+00 0.0000000000000000e+00 0.0000000000000000e+00  -5.5701756321390270e+01 -1.4581241146044335e-01 0.0000000000000000e+00 -1.4581241146044374e-01 5.0683327757209508e+03 0.0000000000000000e+00 0.0000000000000000e+00 0.0000000000000000e+00 0.0000000000000000e+00  -4.5601522692953246e+01 -4.3778007795984245e-02 0.0000000000000000e+00 -4.3778007795995083e-02 5.0427529007289731e+03 0.0000000000000000e+00 0.0000000000000000e+00 0.0000000000000000e+00 0.0000000000000000e+00  -3.5946456077589978e+01 -2.1381140999046100e-01 0.0000000000000000e+00 -2.1381140999046300e-01 5.0187374058412097e+03 0.0000000000000000e+00 0.0000000000000000e+00 0.0000000000000000e+00 0.0000000000000000e+00  -2.6388898638968481e+01 -7.2789587919698417e-02 0.0000000000000000e+00 -7.2789587919698737e-02 4.9949825789370798e+03 0.0000000000000000e+00 0.0000000000000000e+00 0.0000000000000000e+00 0.0000000000000000e+00  -1.7790114690171475e+01 -3.9181395471221139e-02 0.0000000000000000e+00 -3.9181395471218718e-02 4.9724072991968806e+03 0.0000000000000000e+00 0.0000000000000000e+00 0.0000000000000000e+00 0.0000000000000000e+00  -1.0405693798590573e+01 -8.7045923129511774e-02 0.0000000000000000e+00 -8.7045923129514244e-02 4.9534848029765317e+03 0.0000000000000000e+00 0.0000000000000000e+00 0.0000000000000000e+00 0.0000000000000000e+00  -4.7241803245028295e+00 7.0035040912338684e-02 0.0000000000000000e+00 7.0035040912342431e-02 4.9377231941066666e+03 0.0000000000000000e+00 0.0000000000000000e+00 0.0000000000000000e+00 0.0000000000000000e+00  -6.5632206757918643e-01 1.3551016474325711e-01 0.0000000000000000e+00 1.3551016474325620e-01 4.9266691445811721e+03 0.0000000000000000e+00 0.0000000000000000e+00 0.0000000000000000e+00 0.0000000000000000e+00  1.2476411445727787e+02 4.8288330807909510e+01 0.0000000000000000e+00 4.8288330807909702e+01 5.2923244738610958e+02 0.0000000000000000e+00 0.0000000000000000e+00 0.0000000000000000e+00 0.0000000000000000e+00  1.1264475271606358e+02 1.2448048551262272e+02 0.0000000000000000e+00 1.2448048551262268e+02 2.0625633512326926e+03 0.0000000000000000e+00 0.0000000000000000e+00 0.0000000000000000e+00 0.0000000000000000e+00  -4.1543393976578749e+01 2.1025329406601859e+01 0.0000000000000000e+00 2.1025329406602065e+01 2.8927194885954050e+03 0.0000000000000000e+00 0.0000000000000000e+00 0.0000000000000000e+00 0.0000000000000000e+00  6.1994106004154872e+01 5.9187114224157952e+01 0.0000000000000000e+00 5.9187114224158272e+01 3.5949621169909392e+03 0.0000000000000000e+00 0.0000000000000000e+00 0.0000000000000000e+00 0.0000000000000000e+00  -1.7348126034293500e+01 -8.6076381020011805e+00 0.0000000000000000e+00 -8.6076381020008466e+00 3.9163792024489799e+03 0.0000000000000000e+00 0.0000000000000000e+00 0.0000000000000000e+00 0.0000000000000000e+00  2.3967192512130389e+01 2.4932551456829419e+01 0.0000000000000000e+00 2.4932551456829476e+01 4.2100056374488877e+03 0.0000000000000000e+00 0.0000000000000000e+00 0.0000000000000000e+00 0.0000000000000000e+00  -5.6503711495580946e+00 1.0245911202351778e+01 0.0000000000000000e+00 1.0245911202351772e+01 4.3828903540861666e+03 0.0000000000000000e+00 0.0000000000000000e+00 0.0000000000000000e+00 0.0000000000000000e+00  3.8021400977872624e+00 1.3687009114452646e+01 0.0000000000000000e+00 1.3687009114452655e+01 4.4943877242409799e+03 0.0000000000000000e+00 0.0000000000000000e+00 0.0000000000000000e+00 0.0000000000000000e+00  1.7556071483112805e+00 7.1066842174810656e+00 0.0000000000000000e+00 7.1066842174811065e+00 4.6056243613379711e+03 0.0000000000000000e+00 0.0000000000000000e+00 0.0000000000000000e+00 0.0000000000000000e+00  2.9135355736312638e+00 5.3082303024800970e+00 0.0000000000000000e+00 5.3082303024800872e+00 4.6691451793379210e+03 0.0000000000000000e+00 0.0000000000000000e+00 0.0000000000000000e+00 0.0000000000000000e+00  -1.6805106707203796e+00 5.0019615605732481e-01 0.0000000000000000e+00 5.0019615605734713e-01 4.7199841599570873e+03 0.0000000000000000e+00 0.0000000000000000e+00 0.0000000000000000e+00 0.0000000000000000e+00  2.8147651323550447e+00 2.4362594482819468e+00 0.0000000000000000e+00 2.4362594482819508e+00 4.7458723851963277e+03 0.0000000000000000e+00 0.0000000000000000e+00 0.0000000000000000e+00 0.0000000000000000e+00  -7.8652247564792055e-01 4.6864639555851639e-01 0.0000000000000000e+00 4.6864639555851828e-01 4.7694598638254365e+03 0.0000000000000000e+00 0.0000000000000000e+00 0.0000000000000000e+00 0.0000000000000000e+00  1.0681719266792784e+03 8.2743853531634932e+02 0.0000000000000000e+00 8.2743853531634943e+02 5.9243302553410047e+02 0.0000000000000000e+00 0.0000000000000000e+00 0.0000000000000000e+00 0.0000000000000000e+00  2.9744325949678555e+03 3.9402425687454747e+03 0.0000000000000000e+00 3.9402425687454711e+03 6.5687500597572725e+03 0.0000000000000000e+00 0.0000000000000000e+00 0.0000000000000000e+00 0.0000000000000000e+00  1.3454096371932781e+03 2.7130223323547216e+03 0.0000000000000000e+00 2.7130223323547220e+03 1.3583659048455225e+04 0.0000000000000000e+00 0.0000000000000000e+00 0.0000000000000000e+00 0.0000000000000000e+00  1.7980635173412452e+03 -1.9339242128711751e+03 0.0000000000000000e+00 -1.9339242128711776e+03 1.3179963917628786e+04 0.0000000000000000e+00 0.0000000000000000e+00 0.0000000000000000e+00 0.0000000000000000e+00  2.0037517526919394e+03 -3.9101271396135103e+03 0.0000000000000000e+00 -3.9101271396135098e+03 6.5340758224701331e+03 0.0000000000000000e+00 0.0000000000000000e+00 0.0000000000000000e+00 0.0000000000000000e+00  1.1297932798040983e+03 -1.0692295725440035e+03 0.0000000000000000e+00 -1.0692295725440035e+03 8.7261463858927254e+02 0.0000000000000000e+00 0.0000000000000000e+00 0.0000000000000000e+00 0.0000000000000000e+00  5.1975037313891470e-02 -2.5490367272043335e-01 0.0000000000000000e+00 -2.5490367272043263e-01 4.9218599011534934e+03 0.0000000000000000e+00 0.0000000000000000e+0