<?xml version="1.0"?>
<VTKFile type="UnstructuredGrid"  version="0.1"  >
<UnstructuredGrid>
<Piece  NumberOfPoints="2165" NumberOfCells="4161">
<Points>
<DataArray  type="Float64"  NumberOfComponents="3"  format="ascii">-3.598637933768527e-16 0.3500000000000001 0  0.05 0.4 0  -3.537405593811159e-16 0.45 0  0 1 0  1 1 0  0.9999999999999997 0.65 0  0.9999999999999997 0.5499999999999999 0  1 0 0  0 0 0  0.0191341716182545 0.3538060233744357 0  0.03535533905932737 0.3646446609406727 0  0.04619397662556433 0.3808658283817455 0  0.04619397662556434 0.4191341716182545 0  0.03535533905932738 0.4353553390593274 0  0.01913417161825449 0.4461939766255644 0  0 0.975 0  0 0.95 0  0 0.9249999999999999 0  0 0.8999999999999998 0  0 0.8749999999999998 0  0 0.8499999999999998 0  0 0.8249999999999997 0  0 0.7999999999999996 0  0 0.7749999999999996 0  0 0.7499999999999996 0  0 0.7249999999999996 0  0 0.6999999999999997 0  0 0.6749999999999998 0  0 0.6499999999999999 0  0 0.6249999999999999 0  0 0.6 0  0 0.575 0  0 0.5499999999999998 0  0 0.5249999999999999 0  0 0.4999999999999998 0  0 0.4749999999999999 0  0.975 1 0  0.95 1 0  0.925 1 0  0.9 1 0  0.875 1 0  0.85 1 0  0.825 1 0  0.8 1 0  0.775 1 0  0.75 1 0  0.725 1 0  0.7 1 0  0.675 1 0  0.65 1 0  0.625 1 0  0.6 1 0  0.575 1 0  0.55 1 0  0.525 1 0  0.5 1 0  0.475 1 0  0.45 1 0  0.425 1 0  0.4 1 0  0.375 1 0  0.35 1 0  0.325 1 0  0.3 1 0  0.275 1 0  0.25 1 0  0.225 1 0  0.2 1 0  0.175 1 0  0.15 1 0  0.125 1 0  0.09999999999999998 1 0  0.07499999999999996 1 0  0.05000000000000004 1 0  0.02500000000000002 1 0  1 0.675 0  1 0.7000000000000001 0  1 0.7250000000000001 0  1 0.7500000000000001 0  1 0.7750000000000001 0  1 0.8000000000000002 0  1 0.8250000000000002 0  1 0.8500000000000002 0  1 0.8750000000000003 0  1 0.9000000000000001 0  1 0.9250000000000002 0  1 0.9500000000000001 0  1 0.9750000000000001 0  0.9783058130441221 0.6450484433951209 0  0.9609084258765985 0.6311744900929367 0  0.9512536043909088 0.6111260466978157 0  0.9512536043909088 0.5888739533021843 0  0.9609084258765985 0.5688255099070633 0  0.9783058130441221 0.554951556604879 0  1 0.02500000000000002 0  1 0.05000000000000004 0  1 0.07500000000000008 0  1 0.1000000000000001 0  1 0.1250000000000001 0  1 0.1500000000000002 0  1 0.1750000000000002 0  1 0.2000000000000003 0  1 0.2250000000000003 0  1 0.2500000000000004 0  1 0.2750000000000004 0  1 0.3000000000000003 0  1 0.3250000000000002 0  1 0.3500000000000001 0  1 0.3750000000000001 0  1 0.3999999999999999 0  1 0.425 0  1 0.45 0  1 0.475 0  1 0.5000000000000001 0  1 0.5249999999999999 0  0.025 0 0  0.05 0 0  0.075 0 0  0.1 0 0  0.125 0 0  0.15 0 0  0.175 0 0  0.2 0 0  0.225 0 0  0.25 0 0  0.275 0 0  0.3 0 0  0.325 0 0  0.35 0 0  0.375 0 0  0.4 0 0  0.425 0 0  0.45 0 0  0.475 0 0  0.5 0 0  0.525 0 0  0.55 0 0  0.575 0 0  0.6 0 0  0.625 0 0  0.65 0 0  0.675 0 0  0.7 0 0  0.725 0 0  0.75 0 0  0.775 0 0  0.8 0 0  0.825 0 0  0.85 0 0  0.875 0 0  0.9 0 0  0.925 0 0  0.95 0 0  0.975 0 0  0 0.3250000000000001 0  0 0.3 0  0 0.275 0  0 0.2499999999999999 0  0 0.2249999999999999 0  0 0.1999999999999998 0  0 0.1749999999999998 0  0 0.1499999999999998 0  0 0.1249999999999998 0  0 0.09999999999999987 0  0 0.07499999999999984 0  0 0.04999999999999993 0  0 0.02500000000000002 0  0.06453325334544308 0.4134708543086404 0  0.5146839915088474 0.02134387884913819 0  0.4875871001393628 0.9784117024331356 0  0.9386300160094723 0.5701776715936071 0  0.0216506350946109 0.6124999999999999 0  0.9764205887290853 0.3596067946540696 0  0.3876261045932067 0.02156097490657183 0  0.6125 0.978349364905389 0  0.3612127461797463 0.9792371404802113 0  0.6374786650398092 0.02079982608537345 0  0.9387185538472446 0.6295115890709873 0  0.05482260092545593 0.3633687091864355 0  0.02445354803948679 0.7343198207875321 0  0.2624888813627476 0.02091671348578122 0  0.7375212991274043 0.9794996488945376 0  0.9793010831723812 0.2648509348664836 0  0.2625026480689301 0.9795699185263282 0  0.7362840788105066 0.02225211062275217 0  0.02159327910297104 0.2128861809896528 0  0.9786837570973538 0.7867241244631172 0  0.02419728000065929 0.8365600234152764 0  0.980043283615984 0.1624097203408714 0  0.1645857434226354 0.0205513501962844 0  0.8339481359352011 0.9784483546369231 0  0.1637584777222821 0.9774556328160621 0  0.8374916614314967 0.02165097219510076 0  0.02171915379676059 0.5370700005916152 0  0.9795335762511281 0.4365726939225819 0  0.02319480745007968 0.1370197632171214 0  0.9774462976085161 0.8592616917551974 0  0.9786941241076723 0.7122511101067891 0  0.9797883857882621 0.08781864217752949 0  0.01966314788989931 0.9125801876811624 0  0.02051815350151098 0.2882126194470174 0  0.09063226699593246 0.0214884092697174 0  0.9124408843562394 0.9818463395009377 0  0.03872465516591678 0.452731089005145 0  0.08969424365256845 0.978412979507602 0  0.9124999999999999 0.02165063509461096 0  0.02158104789437187 0.6619299176372371 0  0.9796602354625652 0.4859004208706154 0  0.3127517983598529 0.02417963694738812 0  0.4375629605000894 0.02158039900821679 0  0.5643674594196073 0.01968996000301126 0  0.5368361594956101 0.9790428840407062 0  0.4376176251051295 0.9783667484208922 0  0.6874072695660477 0.978435143102373 0  0.310604317388614 0.979558305560928 0  0.2125577044121564 0.02066685543111635 0  0.6875 0.0216506350946109 0  0.02224009810917643 0.08811420611559456 0  0.790876428529276 0.978633065284896 0  0.2125 0.978349364905389 0  0.9788033534786624 0.2116925349935155 0  0.9769441169344462 0.3150381335760689 0  0.9804648376981185 0.9123186437266726 0  0.7874999988222203 0.02127957051165741 0  0.02109233852270731 0.786866823287435 0  0.9483709287873718 0.5504073206521916 0  0.9259842326464427 0.5519702047534598 0  0.9163209045278007 0.5719292915927929 0  0.9035374059862284 0.5537291796040291 0  0.8938951918780048 0.5738949757882954 0  0.8807940177559743 0.5546750869516996 0  0.8712661812741653 0.5757142549099102 0  0.8580668865514332 0.5563902430113601 0  0.848508161986991 0.5779004013072002 0  0.8354274200119249 0.5591176379057713 0  0.8256349826905482 0.5800610629400762 0  0.8124123591208572 0.5604454546391737 0  0.802603410938817 0.5819653950592523 0  0.7892876429890218 0.562234610648543 0  0.7794355871850538 0.583896242519796 0  0.7661469824381839 0.5648243426306435 0  0.7562387679604726 0.5860005456930413 0  0.7429651600512166 0.5669367633461588 0  0.7330846968880171 0.5879590907760761 0  0.7198577999459205 0.5688986880627463 0  0.7297050500533544 0.5479561801187277 0  0.7066243396993471 0.5499068108517552 0  0.6968285086900206 0.5707989520567972 0  0.6836266810714333 0.5519088927359967 0  0.6738604685766018 0.5727655091567184 0  0.6607284761452521 0.5538781923028128 0  0.6697149783704412 0.5321140554135094 0  0.6473436039782401 0.5350050604671006 0  0.6378867365666199 0.5557804038095817 0  0.6246915360243652 0.5362124690568238 0  0.6151175309583405 0.5575933164645619 0  0.6019784180102355 0.5380659376543677 0  0.5924099113505394 0.5593739656462906 0  0.5794110962027638 0.541110021814312 0  0.5697985396917309 0.5614600003719357 0  0.5568468707330213 0.5433212932327446 0  0.5472634011377896 0.5635652141280936 0  0.5343236363495072 0.5451361960661517 0  0.5247877773262166 0.565493591892781 0  0.5118927934227436 0.5470665328397559 0  0.5023398230005425 0.5674381114577953 0  0.5213991904098014 0.5267047787870831 0  0.4990390504096661 0.528649139287786 0  0.6328887517229864 0.5131744321062524 0  0.5085133205790763 0.5083322037773296 0  0.4861972978925295 0.5102540920324363 0  0.4956914791804768 0.4899605513008993 0  0.4734139980312694 0.4918582759645476 0  0.4826986629698439 0.4717164019717278 0  0.460570567761715 0.473509155475794 0  0.4699344541058981 0.4533140529328089 0  0.4477087341565655 0.4550973130597117 0  0.4381733274019614 0.4752901381741884 0  0.4570222843287571 0.4349938694701042 0  0.4348599018247688 0.436728068420533 0  0.5604623134382263 0.581815997002507 0  0.4443612964408632 0.416499823314016 0  0.422056299386984 0.4183730429856528 0  0.4688721528228815 0.4135009841763965 0  0.4315584877924544 0.398120546824229 0  0.4092288692044618 0.3999974286008185 0  0.7463210599443056 0.6070829843371945 0  0.4187270626688335 0.3797365044773463 0  0.3964262302393312 0.3817184136470017 0  0.3869780036193907 0.4018498778543814 0  0.3742423843122406 0.3837055716372927 0  0.3648701490102072 0.4037049758807119 0  0.3518115403926748 0.3858985036587403 0  0.3426146276710081 0.4056777495658291 0  0.3614541441355358 0.3656396497906528 0  0.339026673715919 0.3678724679736439 0  0.3485566370135618 0.3476560889674916 0  0.3264681821394378 0.3496422822523857 0  0.8219942777991693 0.5379143061758643 0  0.3358297439968608 0.3295117748868035 0  0.3137050884585635 0.3314921667582986 0  0.3229980644152205 0.3113561769498422 0  0.3007986024336577 0.3133063832007756 0  0.3441851868720173 0.3085211458266175 0  0.3101966551534752 0.2930273704914169 0  0.287793053707373 0.2950088132226583 0  0.2914417217227097 0.3337427541189321 0  0.2975120686695638 0.2743682539701985 0  0.274864585256681 0.2764253296978281 0  0.816026571618698 0.6006851919544112 0  0.2844672854128698 0.2557011565880619 0  0.2617267434509338 0.2577713002235077 0  0.3072711221189672 0.2536790056475094 0  0.2521588568690318 0.2785072139143895 0  0.2389277409161178 0.2598761196336353 0  0.248448076747058 0.2389478879785275 0  0.5053822153261678 0.4716915524631118 0  0.229548765875869 0.2806542761043101 0  0.2254561407802683 0.2411354049374563 0  0.2350621310805047 0.2199181955146378 0  0.2117782450160163 0.222165061041625 0  0.2214249125635323 0.2008136877065064 0  0.2448758256083499 0.1985732693215908 0  0.197966291680556 0.2031211006951591 0  0.1883147493074436 0.2245564097761413 0  0.8910637266939049 0.5322898364209732 0  0.1748136087708587 0.2051141748992724 0  0.1842088801696792 0.1837087814679069 0  0.1656574100807746 0.2269812054689968 0  0.3554582346764377 0.4236292557112198 0  0.3328979939923831 0.425459320867588 0  0.3460368767112177 0.4435398346083328 0  0.3238464003
[...]
<PointData  Tensors="$\sigma$"> 
<DataArray  type="Float64"  Name="$\sigma$"  NumberOfComponents="9" format="ascii">-9.2600743280301359e+01 -1.5362550853154798e+02 0.0000000000000000e+00 -1.5362550853154804e+02 -3.5911723815697860e+02 0.0000000000000000e+00 0.0000000000000000e+00 0.0000000000000000e+00 0.0000000000000000e+00  5.4107504854406875e+02 1.2571246791513882e+01 0.0000000000000000e+00 1.2571246791513843e+01 7.3822419878783576e+03 0.0000000000000000e+00 0.0000000000000000e+00 0.0000000000000000e+00 0.0000000000000000e+00  -7.5655071285694135e+01 1.7891985380740493e+02 0.0000000000000000e+00 1.7891985380740485e+02 -3.7421284461372773e+02 0.0000000000000000e+00 0.0000000000000000e+00 0.0000000000000000e+00 0.0000000000000000e+00  2.7965097299395177e-02 2.8264754958411092e-01 0.0000000000000000e+00 2.8264754958411092e-01 2.3446825515609617e+03 0.0000000000000000e+00 0.0000000000000000e+00 0.0000000000000000e+00 0.0000000000000000e+00  2.3193317096836458e-01 -4.9587038691887290e-02 0.0000000000000000e+00 -4.9587038691888706e-02 2.2745266434228170e+03 0.0000000000000000e+00 0.0000000000000000e+00 0.0000000000000000e+00 0.0000000000000000e+00  -9.9329867119497067e+01 -1.8045908644695936e+02 0.0000000000000000e+00 -1.8045908644695919e+02 -4.1770466153480655e+01 0.0000000000000000e+00 0.0000000000000000e+00 0.0000000000000000e+00 0.0000000000000000e+00  7.8356306103080357e+01 -4.3521058898508279e+01 0.0000000000000000e+00 -4.3521058898508251e+01 5.9732098651385392e+01 0.0000000000000000e+00 0.0000000000000000e+00 0.0000000000000000e+00 0.0000000000000000e+00  -1.1587941174053976e-01 4.3065139441658636e-02 0.0000000000000000e+00 4.3065139441658726e-02 2.3457414495128505e+03 0.0000000000000000e+00 0.0000000000000000e+00 0.0000000000000000e+00 0.0000000000000000e+00  6.6409366426840256e+02 2.7816803709911278e+02 0.0000000000000000e+00 2.7816803709911295e+02 2.4551161024675694e+03 0.0000000000000000e+00 0.0000000000000000e+00 0.0000000000000000e+00 0.0000000000000000e+00  3.7622776842024501e+02 3.4735760045141484e+02 0.0000000000000000e+00 3.4735760045141473e+02 3.2478018461608661e+02 0.0000000000000000e+00 0.0000000000000000e+00 0.0000000000000000e+00 0.0000000000000000e+00  1.2122867593626142e+03 1.4553913911504460e+03 0.0000000000000000e+00 1.4553913911504469e+03 2.0412644160942009e+03 0.0000000000000000e+00 0.0000000000000000e+00 0.0000000000000000e+00 0.0000000000000000e+00  1.0254694139652290e+03 1.7469138989879341e+03 0.0000000000000000e+00 1.7469138989879336e+03 5.5893942711768468e+03 0.0000000000000000e+00 0.0000000000000000e+00 0.0000000000000000e+00 0.0000000000000000e+00  1.0119032362141479e+03 -1.7668915688934403e+03 0.0000000000000000e+00 -1.7668915688934401e+03 5.5741747661659792e+03 0.0000000000000000e+00 0.0000000000000000e+00 0.0000000000000000e+00 0.0000000000000000e+00  1.2054236928569610e+03 -1.4277778751701724e+03 0.0000000000000000e+00 -1.4277778751701728e+03 2.1606625451145369e+03 0.0000000000000000e+00 0.0000000000000000e+00 0.0000000000000000e+00 0.0000000000000000e+00  3.6374623100194270e+02 -3.6966643633386087e+02 0.0000000000000000e+00 -3.6966643633386099e+02 3.1661910845807910e+02 0.0000000000000000e+00 0.0000000000000000e+00 0.0000000000000000e+00 0.0000000000000000e+00  -7.6122909425838572e-03 -1.2040133204159087e-01 0.0000000000000000e+00 -1.2040133204159040e-01 2.3436369638116698e+03 0.0000000000000000e+00 0.0000000000000000e+00 0.0000000000000000e+00 0.0000000000000000e+00  1.8851743358121460e-02 -3.9288341040191005e-01 0.0000000000000000e+00 -3.9288341040190849e-01 2.3419345477032502e+03 0.0000000000000000e+00 0.0000000000000000e+00 0.0000000000000000e+00 0.0000000000000000e+00  1.4609282662773340e-01 -3.9031813427553286e-01 0.0000000000000000e+00 -3.9031813427553208e-01 2.3388911424567696e+03 0.0000000000000000e+00 0.0000000000000000e+00 0.0000000000000000e+00 0.0000000000000000e+00  -1.1456627256353108e-01 -3.9843767173054212e-01 0.0000000000000000e+00 -3.9843767173054079e-01 2.3342564684113290e+03 0.0000000000000000e+00 0.0000000000000000e+00 0.0000000000000000e+00 0.0000000000000000e+00  8.4134890746532895e-02 -6.9134587920418256e-01 0.0000000000000000e+00 -6.9134587920418389e-01 2.3281776101394335e+03 0.0000000000000000e+00 0.0000000000000000e+00 0.0000000000000000e+00 0.0000000000000000e+00  3.8066260726028145e-01 -1.2511776439221873e+00 0.0000000000000000e+00 -1.2511776439221849e+00 2.3215886076699271e+03 0.0000000000000000e+00 0.0000000000000000e+00 0.0000000000000000e+00 0.0000000000000000e+00  -5.9474350611868211e-02 -1.0174997190857391e+00 0.0000000000000000e+00 -1.0174997190857329e+00 2.3099701919973572e+03 0.0000000000000000e+00 0.0000000000000000e+00 0.0000000000000000e+00 0.0000000000000000e+00  3.3004196401659504e-02 -1.5384945920645545e+00 0.0000000000000000e+00 -1.5384945920645559e+00 2.2991285793753150e+03 0.0000000000000000e+00 0.0000000000000000e+00 0.0000000000000000e+00 0.0000000000000000e+00  4.5883647575761738e-01 -2.0686755396163963e+00 0.0000000000000000e+00 -2.0686755396163967e+00 2.2847725590263635e+03 0.0000000000000000e+00 0.0000000000000000e+00 0.0000000000000000e+00 0.0000000000000000e+00  5.5756963169583662e-01 -2.3548906907688787e+00 0.0000000000000000e+00 -2.3548906907688849e+00 2.2684730620071259e+03 0.0000000000000000e+00 0.0000000000000000e+00 0.0000000000000000e+00 0.0000000000000000e+00  1.0417142244333608e-01 -3.1324238238568953e+00 0.0000000000000000e+00 -3.1324238238568838e+00 2.2384289731800864e+03 0.0000000000000000e+00 0.0000000000000000e+00 0.0000000000000000e+00 0.0000000000000000e+00  1.4118403678714664e-01 -5.1694708932073041e+00 0.0000000000000000e+00 -5.1694708932073024e+00 2.2198355052854818e+03 0.0000000000000000e+00 0.0000000000000000e+00 0.0000000000000000e+00 0.0000000000000000e+00  1.3658071644648878e-02 -4.0522263563593031e+00 0.0000000000000000e+00 -4.0522263563592977e+00 2.1752242414760767e+03 0.0000000000000000e+00 0.0000000000000000e+00 0.0000000000000000e+00 0.0000000000000000e+00  1.1153319886150139e+00 -6.1527790972437568e+00 0.0000000000000000e+00 -6.1527790972437506e+00 2.1335175260982369e+03 0.0000000000000000e+00 0.0000000000000000e+00 0.0000000000000000e+00 0.0000000000000000e+00  2.3000058368630665e+00 -3.9063641117766457e+00 0.0000000000000000e+00 -3.9063641117766599e+00 2.0666950376273621e+03 0.0000000000000000e+00 0.0000000000000000e+00 0.0000000000000000e+00 0.0000000000000000e+00  -9.5807680414547847e-01 -8.6611914454325518e+00 0.0000000000000000e+00 -8.6611914454325536e+00 1.9836271832903467e+03 0.0000000000000000e+00 0.0000000000000000e+00 0.0000000000000000e+00 0.0000000000000000e+00  7.1873313790540001e+00 -2.2271268075495733e+01 0.0000000000000000e+00 -2.2271268075495733e+01 1.8533389948886806e+03 0.0000000000000000e+00 0.0000000000000000e+00 0.0000000000000000e+00 0.0000000000000000e+00  -2.7640493401232988e+00 -1.9241243088114281e+01 0.0000000000000000e+00 -1.9241243088114263e+01 1.6701265859719372e+03 0.0000000000000000e+00 0.0000000000000000e+00 0.0000000000000000e+00 0.0000000000000000e+00  8.1934048500105501e+00 -6.3916280070717903e+01 0.0000000000000000e+00 -6.3916280070717917e+01 1.3801585932081357e+03 0.0000000000000000e+00 0.0000000000000000e+00 0.0000000000000000e+00 0.0000000000000000e+00  -2.4127569602983240e+01 -7.9071389920668707e+01 0.0000000000000000e+00 -7.9071389920668551e+01 9.3103267526680440e+02 0.0000000000000000e+00 0.0000000000000000e+00 0.0000000000000000e+00 0.0000000000000000e+00  7.6915143161172693e+01 -8.8286978103290039e+01 0.0000000000000000e+00 -8.8286978103290039e+01 3.4784089218803553e+02 0.0000000000000000e+00 0.0000000000000000e+00 0.0000000000000000e+00 0.0000000000000000e+00  -1.8374639216688302e+00 1.0164317987886209e-01 0.0000000000000000e+00 1.0164317987885921e-01 2.2796071479809034e+03 0.0000000000000000e+00 0.0000000000000000e+00 0.0000000000000000e+00 0.0000000000000000e+00  -9.7047620205840364e+00 1.2834941252273796e-01 0.0000000000000000e+00 1.2834941252273541e-01 2.2944854680003591e+03 0.0000000000000000e+00 0.0000000000000000e+00 0.0000000000000000e+00 0.0000000000000000e+00  -2.1358037119820647e+01 6.4616233024067338e-01 0.0000000000000000e+00 6.4616233024067837e-01 2.3166948493094555e+03 0.0000000000000000e+00 0.0000000000000000e+00 0.0000000000000000e+00 0.0000000000000000e+00  -3.5321330591940729e+01 2.7859453918370192e-01 0.0000000000000000e+00 2.7859453918370974e-01 2.3420368254987457e+03 0.0000000000000000e+00 0.0000000000000000e+00 0.0000000000000000e+00 0.0000000000000000e+00  -4.7025174246978892e+01 1.0982927394419706e+00 0.0000000000000000e+00 1.0982927394419826e+00 2.3739342488544953e+03 0.0000000000000000e+00 0.0000000000000000e+00 0.0000000000000000e+00 0.0000000000000000e+00  -5.9315086601877383e+01 4.2147592565698845e-03 0.0000000000000000e+00 4.2147592565724857e-03 2.4047992541553899e+03 0.0000000000000000e+00 0.0000000000000000e+00 0.0000000000000000e+00 0.0000000000000000e+00  -7.1493941411085260e+01 -5.6460760796843194e-02 0.0000000000000000e+00 -5.6460760796843951e-02 2.4308698967409819e+03 0.0000000000000000e+00 0.0000000000000000e+00 0.0000000000000000e+00 0.0000000000000000e+00  -7.7103460997527037e+01 -2.2255697982050607e-01 0.0000000000000000e+00 -2.2255697982050276e-01 2.4596364608858266e+03 0.0000000000000000e+00 0.0000000000000000e+00 0.0000000000000000e+00 0.0000000000000000e+00  -8.2966438657925494e+01 9.1353484623438716e-02 0.0000000000000000e+00 9.1353484623436731e-02 2.4775345794262380e+03 0.0000000000000000e+00 0.0000000000000000e+00 0.0000000000000000e+00 0.0000000000000000e+00  -8.6528128181714806e+01 -3.0618750370790315e-01 0.0000000000000000e+00 -3.0618750370790371e-01 2.4951792010778095e+03 0.0000000000000000e+00 0.0000000000000000e+00 0.0000000000000000e+00 0.0000000000000000e+00  -8.7089926499996380e+01 -3.7161162258439834e-01 0.0000000000000000e+00 -3.7161162258439812e-01 2.5087415426241732e+03 0.0000000000000000e+00 0.0000000000000000e+00 0.0000000000000000e+00 0.0000000000000000e+00  -8.6140800648538843e+01 -4.5488880646812901e-01 0.0000000000000000e+00 -4.5488880646812935e-01 2.5178719720719691e+03 0.0000000000000000e+00 0.0000000000000000e+00 0.0000000000000000e+00 0.0000000000000000e+00  -8.4051703707174397e+01 -3.2591459639241854e-01 0.0000000000000000e+00 -3.2591459639241877e-01 2.5244492348801332e+03 0.0000000000000000e+00 0.0000000000000000e+00 0.0000000000000000e+00 0.0000000000000000e+00  -8.1356808472644730e+01 -2.9761999003545064e-01 0.0000000000000000e+00 -2.9761999003545203e-01 2.5285151084348095e+03 0.0000000000000000e+00 0.0000000000000000e+00 0.0000000000000000e+00 0.0000000000000000e+00  -7.7901943544279504e+01 -3.0968752007386091e-01 0.0000000000000000e+00 -3.0968752007386091e-01 2.5301756639117084e+03 0.0000000000000000e+00 0.0000000000000000e+00 0.0000000000000000e+00 0.0000000000000000e+00  -7.4406995988723111e+01 -3.1641724329692844e-01 0.0000000000000000e+00 -3.1641724329692783e-01 2.5302684566689140e+03 0.0000000000000000e+00 0.0000000000000000e+00 0.0000000000000000e+00 0.0000000000000000e+00  -7.0950424471366048e+01 -2.3767498972222487e-01 0.0000000000000000e+00 -2.3767498972222542e-01 2.5288424582423713e+03 0.0000000000000000e+00 0.0000000000000000e+00 0.0000000000000000e+00 0.0000000000000000e+00  -6.7656369515509297e+01 -2.2205636492003725e-01 0.0000000000000000e+00 -2.2205636492003653e-01 2.5264526902856187e+03 0.0000000000000000e+00 0.0000000000000000e+00 0.0000000000000000e+00 0.0000000000000000e+00  -6.4563816395482164e+01 -1.4399451690274742e-01 0.0000000000000000e+00 -1.4399451690274695e-01 2.5231070864145131e+03 0.0000000000000000e+00 0.0000000000000000e+00 0.0000000000000000e+00 0.0000000000000000e+00  -6.1721497705161951e+01 -1.0217659933360941e-01 0.0000000000000000e+00 -1.0217659933360876e-01 2.5188670909262814e+03 0.0000000000000000e+00 0.0000000000000000e+00 0.0000000000000000e+00 0.0000000000000000e+00  -5.9160144349227167e+01 -6.0514285841587225e-02 0.0000000000000000e+00 -6.0514285841588418e-02 2.5140021673685687e+03 0.0000000000000000e+00 0.0000000000000000e+00 0.0000000000000000e+00 0.0000000000000000e+00  -5.6677941788072218e+01 -2.8778579067121238e-02 0.0000000000000000e+00 -2.8778579067120804e-02 2.5084778065459677e+03 0.0000000000000000e+00 0.0000000000000000e+00 0.0000000000000000e+00 0.0000000000000000e+00  -5.4474282748791353e+01 2.8194488631083005e-03 0.0000000000000000e+00 2.8194488631090018e-03 2.5022037416666485e+03 0.0000000000000000e+00 0.0000000000000000e+00 0.0000000000000000e+00 0.0000000000000000e+00  -5.2085892637258091e+01 -2.5405944720656808e-02 0.0000000000000000e+00 -2.5405944720656465e-02 2.4952590225052445e+03 0.0000000000000000e+00 0.0000000000000000e+00 0.0000000000000000e+00 0.0000000000000000e+00  -4.9867604453165463e+01 -2.6470877753317235e-02 0.0000000000000000e+00 -2.6470877753317003e-02 2.4877604317636983e+03 0.0000000000000000e+00 0.0000000000000000e+00 0.0000000000000000e+00 0.0000000000000000e+00  -4.7302376209892948e+01 3.7131751166791307e-02 0.0000000000000000e+00 3.7131751166791675e-02 2.4793597187873811e+03 0.0000000000000000e+00 0.0000000000000000e+00 0.0000000000000000e+00 0.0000000000000000e+00  -4.4594375199386363e+01 1.0735983387704340e-02 0.0000000000000000e+00 1.0735983387703797e-02 2.4699988013535763e+03 0.0000000000000000e+00 0.0000000000000000e+00 0.0000000000000000e+00 0.0000000000000000e+00  -4.1623594425085706e+01 4.1900029769341242e-02 0.0000000000000000e+00 4.1900029769341353e-02 2.4601843476053714e+03 0.0000000000000000e+00 0.0000000000000000e+00 0.0000000000000000e+00 0.0000000000000000e+00  -3.8177417648383219e+01 7.3768693529718890e-02 0.0000000000000000e+00 7.3768693529719653e-02 2.4497827267512239e+03 0.0000000000000000e+00 0.0000000000000000e+00 0.0000000000000000e+00 0.0000000000000000e+00  -3.4659252136220907e+01 8.2471353610183585e-03 0.0000000000000000e+00 8.2471353610194791e-03 2.4381672322774921e+03 0.0000000000000000e+00 0.0000000000000000e+00 0.0000000000000000e+00 0.0000000000000000e+00  -3.0359357642063451e+01 -9.6788507869316840e-03 0.0000000000000000e+00 -9.6788507869316840e-03 2.4267378362483651e+03 0.0000000000000000e+00 0.0000000000000000e+00 0.0000000000000000e+00 0.0000000000000000e+00  -2.6312967694959454e+01 -7.8839924042851853e-02 0.0000000000000000e+00 -7.8839924042849938e-02 2.4143275089394924e+03 0.0000000000000000e+00 0.0000000000000000e+00 0.0000000000000000e+00 0.0000000000000000e+00  -2.1539810408167710e+01 -5.5181836676797172e-02 0.0000000000000000e+00 -5.5181836676800100e-02 2.4022208080460141e+03 0.0000000000000000e+00 0.0000000000000000e+00 0.0000000000000000e+00 0.0000000000000000e+00  -1.6958235853575172e+01 -1.2994647796225470e-01 0.0000000000000000e+00 -1.2994647796225586e-01 2.3909485586962751e+03 0.0000000000000000e+00 0.0000000000000000e+00 0.0000000000000000e+00 0.0000000000000000e+00  -1.2464617085502695e+01 -4.6416517397049002e-02 0.0000000000000000e+00 -4.6416517397049460e-02 2.3797664627977092e+03 0.0000000000000000e+00 0.0000000000000000e+00 0.0000000000000000e+00 0.0000000000000000e+00  -8.3850036665085987e+00 -1.2527037557683803e-02 0.0000000000000000e+00 -1.2527037557682188e-02 2.3691335587473582e+03 0.0000000000000000e+00 0.0000000000000000e+00 0.0000000000000000e+00 0.0000000000000000e+00  -4.9220086045067166e+00 -4.2092163364765588e-02 0.0000000000000000e+00 -4.2092163364765046e-02 2.3601694906150415e+03 0.0000000000000000e+00 0.0000000000000000e+00 0.0000000000000000e+00 0.0000000000000000e+00  -2.2449287562762756e+00 2.4276781048186147e-02 0.0000000000000000e+00 2.4276781048186740e-02 2.3526419687814878e+03 0.0000000000000000e+00 0.0000000000000000e+00 0.0000000000000000e+00 0.0000000000000000e+00  -3.2174784515533383e-01 8.4474790301099306e-02 0.0000000000000000e+00 8.4474790301098154e-02 2.3475339236414966e+03 0.0000000000000000e+00 0.0000000000000000e+00 0.0000000000000000e+00 0.0000000000000000e+00  8.7511504310414495e+01 5.4713637654716130e+01 0.0000000000000000e+00 5.4713637654716266e+01 2.8633934715281106e+02 0.0000000000000000e+00 0.0000000000000000e+00 0.0000000000000000e+00 0.0000000000000000e+00  3.2338206631656142e+01 6.4403636228490683e+01 0.0000000000000000e+00 6.4403636228490768e+01 9.7316312029881362e+02 0.0000000000000000e+00 0.0000000000000000e+00 0.0000000000000000e+00 0.0000000000000000e+00  -1.2071261959304143e+00 2.8904159835244368e+01 0.0000000000000000e+00 2.8904159835244318e+01 1.3950244524612856e+03 0.0000000000000000e+00 0.0000000000000000e+00 0.0000000000000000e+00 0.0000000000000000e+00  1.7898910886136182e+01 2.6109281779660304e+01 0.0000000000000000e+00 2.6109281779660339e+01 1.7075717894740103e+03 0.0000000000000000e+00 0.0000000000000000e+00 0.0000000000000000e+00 0.0000000000000000e+00  -6.3062738835864496e-01 6.0077171313411544e+00 0.0000000000000000e+00 6.0077171313412849e+00 1.8776936790562418e+03 0.0000000000000000e+00 0.0000000000000000e+00 0.0000000000000000e+00 0.0000000000000000e+00  6.2931148091619624e+00 9.9186754122381711e+00 0.0000000000000000e+00 9.9186754122381728e+00 2.0031485734451030e+03 0.0000000000000000e+00 0.0000000000000000e+00 0.0000000000000000e+00 0.0000000000000000e+00  -2.7953713189597851e-01 8.8994503404080803e+00 0.0000000000000000e+00 8.8994503404080572e+00 2.0934829084377025e+03 0.0000000000000000e+00 0.0000000000000000e+00 0.0000000000000000e+00 0.0000000000000000e+00  -4.3191635836803138e-01 7.0851036702345258e+00 0.0000000000000000e+00 7.0851036702344894e+00 2.1420074945274396e+03 0.0000000000000000e+00 0.0000000000000000e+00 0.0000000000000000e+00 0.0000000000000000e+00  9.0711366175088126e-01 4.3465616208269706e+00 0.0000000000000000e+00 4.3465616208269759e+00 2.1960228912785719e+03 0.0000000000000000e+00 0.0000000000000000e+00 0.0000000000000000e+00 0.0000000000000000e+00  9.9920715512159208e-01 3.4296051298593326e+00 0.0000000000000000e+00 3.4296051298593278e+00 2.2264262111474086e+03 0.0000000000000000e+00 0.0000000000000000e+00 0.0000000000000000e+00 0.0000000000000000e+00  -5.7591422109727441e-01 6.4866700291828960e-01 0.0000000000000000e+00 6.4866700291829793e-01 2.2491454488773970e+03 0.0000000000000000e+00 0.0000000000000000e+00 0.0000000000000000e+00 0.0000000000000000e+00  1.1055656300220649e+00 1.1766985592756480e+00 0.0000000000000000e+00 1.1766985592756494e+00 2.2625522646908175e+03 0.0000000000000000e+00 0.0000000000000000e+00 0.0000000000000000e+00 0.0000000000000000e+00  -2.3567807874608826e-01 4.2645442533230021e-01 0.0000000000000000e+00 4.2645442533230304e-01 2.2730570727385702e+03 0.0000000000000000e+00 0.0000000000000000e+00 0.0000000000000000e+00 0.0000000000000000e+00  4.9825173890929068e+02 4.6945695362663054e+02 0.0000000000000000e+00 4.6945695362663065e+02 3.7543486769956041e+02 0.0000000000000000e+00 0.0000000000000000e+00 0.0000000000000000e+00 0.0000000000000000e+00  1.3699893429605202e+03 1.7694139648527546e+03 0.0000000000000000e+00 1.7694139648527535e+03 3.2706543968034907e+03 0.0000000000000000e+00 0.0000000000000000e+00 0.0000000000000000e+00 0.0000000000000000e+00  5.7224496088682497e+02 1.2635188421119365e+03 0.0000000000000000e+00 1.2635188421119362e+03 6.6645107300427426e+03 0.0000000000000000e+00 0.0000000000000000e+00 0.0000000000000000e+00 0.0000000000000000e+00  9.5163288315795842e+02 -8.2892336162603033e+02 0.0000000000000000e+00 -8.2892336162602976e+02 6.2372674797661020e+03 0.0000000000000000e+00 0.0000000000000000e+00 0.0000000000000000e+00 0.0000000000000000e+00  9.2660921839196533e+02 -1.8085126287269391e+03 0.0000000000000000e+00 -1.8085126287269393e+03 3.3136763087579516e+03 0.0000000000000000e+00 0.0000000000000000e+00 0.0000000000000000e+00 0.0000000000000000e+00  4.7155579486453570e+02 -5.4419557006401749e+02 0.0000000000000000e+00 -5.4419557006401760e+02 5.5720330152710801e+02 0.0000000000000000e+00 0.0000000000000000e+00 0.0000000000000000e+00 0.0000000000000000e+00  3.6287029540184465e-02 -1.9865818921630232e-01 0.0000000000000000e+00 -1.9865818921630268e-01 2.3451931424927966e+03 0.0000000000000000e+00 0.0000000000000000e+00 0