<?xml version="1.0"?>
<VTKFile type="UnstructuredGrid"  version="0.1"  >
<UnstructuredGrid>
<Piece  NumberOfPoints="2165" NumberOfCells="4161">
<Points>
<DataArray  type="Float64"  NumberOfComponents="3"  format="ascii">-3.598637933768527e-16 0.3500000000000001 0  0.05 0.4 0  -3.537405593811159e-16 0.45 0  0 1 0  1 1 0  0.9999999999999997 0.65 0  0.9999999999999997 0.5499999999999999 0  1 0 0  0 0 0  0.0191341716182545 0.3538060233744357 0  0.03535533905932737 0.3646446609406727 0  0.04619397662556433 0.3808658283817455 0  0.04619397662556434 0.4191341716182545 0  0.03535533905932738 0.4353553390593274 0  0.01913417161825449 0.4461939766255644 0  0 0.975 0  0 0.95 0  0 0.9249999999999999 0  0 0.8999999999999998 0  0 0.8749999999999998 0  0 0.8499999999999998 0  0 0.8249999999999997 0  0 0.7999999999999996 0  0 0.7749999999999996 0  0 0.7499999999999996 0  0 0.7249999999999996 0  0 0.6999999999999997 0  0 0.6749999999999998 0  0 0.6499999999999999 0  0 0.6249999999999999 0  0 0.6 0  0 0.575 0  0 0.5499999999999998 0  0 0.5249999999999999 0  0 0.4999999999999998 0  0 0.4749999999999999 0  0.975 1 0  0.95 1 0  0.925 1 0  0.9 1 0  0.875 1 0  0.85 1 0  0.825 1 0  0.8 1 0  0.775 1 0  0.75 1 0  0.725 1 0  0.7 1 0  0.675 1 0  0.65 1 0  0.625 1 0  0.6 1 0  0.575 1 0  0.55 1 0  0.525 1 0  0.5 1 0  0.475 1 0  0.45 1 0  0.425 1 0  0.4 1 0  0.375 1 0  0.35 1 0  0.325 1 0  0.3 1 0  0.275 1 0  0.25 1 0  0.225 1 0  0.2 1 0  0.175 1 0  0.15 1 0  0.125 1 0  0.09999999999999998 1 0  0.07499999999999996 1 0  0.05000000000000004 1 0  0.02500000000000002 1 0  1 0.675 0  1 0.7000000000000001 0  1 0.7250000000000001 0  1 0.7500000000000001 0  1 0.7750000000000001 0  1 0.8000000000000002 0  1 0.8250000000000002 0  1 0.8500000000000002 0  1 0.8750000000000003 0  1 0.9000000000000001 0  1 0.9250000000000002 0  1 0.9500000000000001 0  1 0.9750000000000001 0  0.9783058130441221 0.6450484433951209 0  0.9609084258765985 0.6311744900929367 0  0.9512536043909088 0.6111260466978157 0  0.9512536043909088 0.5888739533021843 0  0.9609084258765985 0.5688255099070633 0  0.9783058130441221 0.554951556604879 0  1 0.02500000000000002 0  1 0.05000000000000004 0  1 0.07500000000000008 0  1 0.1000000000000001 0  1 0.1250000000000001 0  1 0.1500000000000002 0  1 0.1750000000000002 0  1 0.2000000000000003 0  1 0.2250000000000003 0  1 0.2500000000000004 0  1 0.2750000000000004 0  1 0.3000000000000003 0  1 0.3250000000000002 0  1 0.3500000000000001 0  1 0.3750000000000001 0  1 0.3999999999999999 0  1 0.425 0  1 0.45 0  1 0.475 0  1 0.5000000000000001 0  1 0.5249999999999999 0  0.025 0 0  0.05 0 0  0.075 0 0  0.1 0 0  0.125 0 0  0.15 0 0  0.175 0 0  0.2 0 0  0.225 0 0  0.25 0 0  0.275 0 0  0.3 0 0  0.325 0 0  0.35 0 0  0.375 0 0  0.4 0 0  0.425 0 0  0.45 0 0  0.475 0 0  0.5 0 0  0.525 0 0  0.55 0 0  0.575 0 0  0.6 0 0  0.625 0 0  0.65 0 0  0.675 0 0  0.7 0 0  0.725 0 0  0.75 0 0  0.775 0 0  0.8 0 0  0.825 0 0  0.85 0 0  0.875 0 0  0.9 0 0  0.925 0 0  0.95 0 0  0.975 0 0  0 0.3250000000000001 0  0 0.3 0  0 0.275 0  0 0.2499999999999999 0  0 0.2249999999999999 0  0 0.1999999999999998 0  0 0.1749999999999998 0  0 0.1499999999999998 0  0 0.1249999999999998 0  0 0.09999999999999987 0  0 0.07499999999999984 0  0 0.04999999999999993 0  0 0.02500000000000002 0  0.06453325334544308 0.4134708543086404 0  0.5146839915088474 0.02134387884913819 0  0.4875871001393628 0.9784117024331356 0  0.9386300160094723 0.5701776715936071 0  0.0216506350946109 0.6124999999999999 0  0.9764205887290853 0.3596067946540696 0  0.3876261045932067 0.02156097490657183 0  0.6125 0.978349364905389 0  0.3612127461797463 0.9792371404802113 0  0.6374786650398092 0.02079982608537345 0  0.9387185538472446 0.6295115890709873 0  0.05482260092545593 0.3633687091864355 0  0.02445354803948679 0.7343198207875321 0  0.2624888813627476 0.02091671348578122 0  0.7375212991274043 0.9794996488945376 0  0.9793010831723812 0.2648509348664836 0  0.2625026480689301 0.9795699185263282 0  0.7362840788105066 0.02225211062275217 0  0.02159327910297104 0.2128861809896528 0  0.9786837570973538 0.7867241244631172 0  0.02419728000065929 0.8365600234152764 0  0.980043283615984 0.1624097203408714 0  0.1645857434226354 0.0205513501962844 0  0.8339481359352011 0.9784483546369231 0  0.1637584777222821 0.9774556328160621 0  0.8374916614314967 0.02165097219510076 0  0.02171915379676059 0.5370700005916152 0  0.9795335762511281 0.4365726939225819 0  0.02319480745007968 0.1370197632171214 0  0.9774462976085161 0.8592616917551974 0  0.9786941241076723 0.7122511101067891 0  0.9797883857882621 0.08781864217752949 0  0.01966314788989931 0.9125801876811624 0  0.02051815350151098 0.2882126194470174 0  0.09063226699593246 0.0214884092697174 0  0.9124408843562394 0.9818463395009377 0  0.03872465516591678 0.452731089005145 0  0.08969424365256845 0.978412979507602 0  0.9124999999999999 0.02165063509461096 0  0.02158104789437187 0.6619299176372371 0  0.9796602354625652 0.4859004208706154 0  0.3127517983598529 0.02417963694738812 0  0.4375629605000894 0.02158039900821679 0  0.5643674594196073 0.01968996000301126 0  0.5368361594956101 0.9790428840407062 0  0.4376176251051295 0.9783667484208922 0  0.6874072695660477 0.978435143102373 0  0.310604317388614 0.979558305560928 0  0.2125577044121564 0.02066685543111635 0  0.6875 0.0216506350946109 0  0.02224009810917643 0.08811420611559456 0  0.790876428529276 0.978633065284896 0  0.2125 0.978349364905389 0  0.9788033534786624 0.2116925349935155 0  0.9769441169344462 0.3150381335760689 0  0.9804648376981185 0.9123186437266726 0  0.7874999988222203 0.02127957051165741 0  0.02109233852270731 0.786866823287435 0  0.9483709287873718 0.5504073206521916 0  0.9259842326464427 0.5519702047534598 0  0.9163209045278007 0.5719292915927929 0  0.9035374059862284 0.5537291796040291 0  0.8938951918780048 0.5738949757882954 0  0.8807940177559743 0.5546750869516996 0  0.8712661812741653 0.5757142549099102 0  0.8580668865514332 0.5563902430113601 0  0.848508161986991 0.5779004013072002 0  0.8354274200119249 0.5591176379057713 0  0.8256349826905482 0.5800610629400762 0  0.8124123591208572 0.5604454546391737 0  0.802603410938817 0.5819653950592523 0  0.7892876429890218 0.562234610648543 0  0.7794355871850538 0.583896242519796 0  0.7661469824381839 0.5648243426306435 0  0.7562387679604726 0.5860005456930413 0  0.7429651600512166 0.5669367633461588 0  0.7330846968880171 0.5879590907760761 0  0.7198577999459205 0.5688986880627463 0  0.7297050500533544 0.5479561801187277 0  0.7066243396993471 0.5499068108517552 0  0.6968285086900206 0.5707989520567972 0  0.6836266810714333 0.5519088927359967 0  0.6738604685766018 0.5727655091567184 0  0.6607284761452521 0.5538781923028128 0  0.6697149783704412 0.5321140554135094 0  0.6473436039782401 0.5350050604671006 0  0.6378867365666199 0.5557804038095817 0  0.6246915360243652 0.5362124690568238 0  0.6151175309583405 0.5575933164645619 0  0.6019784180102355 0.5380659376543677 0  0.5924099113505394 0.5593739656462906 0  0.5794110962027638 0.541110021814312 0  0.5697985396917309 0.5614600003719357 0  0.5568468707330213 0.5433212932327446 0  0.5472634011377896 0.5635652141280936 0  0.5343236363495072 0.5451361960661517 0  0.5247877773262166 0.565493591892781 0  0.5118927934227436 0.5470665328397559 0  0.5023398230005425 0.5674381114577953 0  0.5213991904098014 0.5267047787870831 0  0.4990390504096661 0.528649139287786 0  0.6328887517229864 0.5131744321062524 0  0.5085133205790763 0.5083322037773296 0  0.4861972978925295 0.5102540920324363 0  0.4956914791804768 0.4899605513008993 0  0.4734139980312694 0.4918582759645476 0  0.4826986629698439 0.4717164019717278 0  0.460570567761715 0.473509155475794 0  0.4699344541058981 0.4533140529328089 0  0.4477087341565655 0.4550973130597117 0  0.4381733274019614 0.4752901381741884 0  0.4570222843287571 0.4349938694701042 0  0.4348599018247688 0.436728068420533 0  0.5604623134382263 0.581815997002507 0  0.4443612964408632 0.416499823314016 0  0.422056299386984 0.4183730429856528 0  0.4688721528228815 0.4135009841763965 0  0.4315584877924544 0.398120546824229 0  0.4092288692044618 0.3999974286008185 0  0.7463210599443056 0.6070829843371945 0  0.4187270626688335 0.3797365044773463 0  0.3964262302393312 0.3817184136470017 0  0.3869780036193907 0.4018498778543814 0  0.3742423843122406 0.3837055716372927 0  0.3648701490102072 0.4037049758807119 0  0.3518115403926748 0.3858985036587403 0  0.3426146276710081 0.4056777495658291 0  0.3614541441355358 0.3656396497906528 0  0.339026673715919 0.3678724679736439 0  0.3485566370135618 0.3476560889674916 0  0.3264681821394378 0.3496422822523857 0  0.8219942777991693 0.5379143061758643 0  0.3358297439968608 0.3295117748868035 0  0.3137050884585635 0.3314921667582986 0  0.3229980644152205 0.3113561769498422 0  0.3007986024336577 0.3133063832007756 0  0.3441851868720173 0.3085211458266175 0  0.3101966551534752 0.2930273704914169 0  0.287793053707373 0.2950088132226583 0  0.2914417217227097 0.3337427541189321 0  0.2975120686695638 0.2743682539701985 0  0.274864585256681 0.2764253296978281 0  0.816026571618698 0.6006851919544112 0  0.2844672854128698 0.2557011565880619 0  0.2617267434509338 0.2577713002235077 0  0.3072711221189672 0.2536790056475094 0  0.2521588568690318 0.2785072139143895 0  0.2389277409161178 0.2598761196336353 0  0.248448076747058 0.2389478879785275 0  0.5053822153261678 0.4716915524631118 0  0.229548765875869 0.2806542761043101 0  0.2254561407802683 0.2411354049374563 0  0.2350621310805047 0.2199181955146378 0  0.2117782450160163 0.222165061041625 0  0.2214249125635323 0.2008136877065064 0  0.2448758256083499 0.1985732693215908 0  0.197966291680556 0.2031211006951591 0  0.1883147493074436 0.2245564097761413 0  0.8910637266939049 0.5322898364209732 0  0.1748136087708587 0.2051141748992724 0  0.1842088801696792 0.1837087814679069 0  0.1656574100807746 0.2269812054689968 0  0.3554582346764377 0.4236292557112198 0  0.3328979939923831 0.425459320867588 0  0.3460368767112177 0.4435398346083328 0  0.3238464003
[...]
<PointData  Scalars="$\epsilon_{VM}$"> 
<DataArray  type="Float64"  Name="$\epsilon_{VM}$"  format="ascii">-1.1160903258269203e-03  2.7826610160204313e-02  -1.1064875530298710e-03  7.7721162387968893e-03  7.5313243194109186e-03  -1.6974720724471969e-04  8.2546395228784387e-04  7.7780896372079472e-03  7.2021453353416972e-03  1.9302936543955261e-03  8.1600691636662410e-03  2.0282195321872372e-02  2.0182610179656533e-02  8.3333015262357039e-03  2.0801791987563553e-03  7.7687791543834947e-03  7.7625416993263889e-03  7.7519461836992754e-03  7.7369600375622608e-03  7.7147289636275854e-03  7.6915153083051803e-03  7.6526770418236792e-03  7.6143806201384358e-03  7.5650418282508193e-03  7.5066281756676692e-03  7.4064956873938865e-03  7.3388492748516629e-03  7.1875397382849589e-03  7.0415284639212443e-03  6.8090949999167604e-03  6.5329272156181301e-03  6.0515006549948054e-03  5.4625077390589574e-03  4.4502239849720194e-03  2.9954443591646172e-03  1.3004710595465097e-03  7.5542871610723731e-03  7.6201689054672802e-03  7.7206479346705170e-03  7.8356679117795574e-03  7.9665716537933601e-03  8.0959157913695606e-03  8.2103683857666799e-03  8.3200523631886385e-03  8.3940242268956741e-03  8.4623204302471406e-03  8.5095463420427255e-03  8.5396053089694321e-03  8.5579985494807984e-03  8.5668051283796908e-03  8.5659341952724639e-03  8.5594141922882352e-03  8.5476981659063488e-03  8.5329701057310862e-03  8.5154584216254152e-03  8.4951202258736411e-03  8.4732708237796588e-03  8.4494400090347234e-03  8.4233510157389058e-03  8.3946915883051122e-03  8.3641763219219883e-03  8.3303697390827072e-03  8.2927244268574656e-03  8.2528277653981224e-03  8.2102221100995004e-03  8.1630330170902460e-03  8.1152834698260679e-03  8.0642850467830800e-03  8.0133346188942436e-03  7.9652430174727770e-03  7.9177547684658456e-03  7.8730529989524713e-03  7.8354190267732812e-03  7.8045590575104113e-03  7.7827017957015571e-03  9.3226318595879027e-04  3.0771808915562903e-03  4.4410348428421224e-03  5.5745601188112110e-03  6.1356449699023069e-03  6.6012478394632335e-03  6.9030081875754833e-03  7.0781340827173597e-03  7.2614477418575657e-03  7.3619362815190497e-03  7.4508750055544051e-03  7.4874436221575372e-03  7.5298938623168639e-03  2.2994165797724864e-03  1.1926686212540352e-02  2.5087374190908975e-02  2.1674033359174588e-02  1.1715551091035442e-02  2.2879438224280226e-03  7.7766938971426027e-03  7.7695210118362877e-03  7.7598130709275641e-03  7.7432717492326468e-03  7.7233250848155197e-03  7.6969257769798896e-03  7.6675068533828480e-03  7.6213061438944784e-03  7.5775916804779828e-03  7.5078502773909738e-03  7.4322979221895574e-03  7.3463526812871565e-03  7.1905249750018919e-03  7.0801718267636824e-03  6.8144252730191522e-03  6.5504042692089010e-03  6.0948877059798503e-03  5.4834012386423730e-03  4.6488832234780949e-03  2.9482729213424785e-03  1.1260606069232006e-03  5.8759137304837186e-03  7.7435430454643375e-03  8.2305330096819791e-03  7.7126376778749424e-03  8.0447812870377364e-03  8.0893592967884575e-03  8.2170611352458279e-03  8.3185842441997095e-03  8.4005164194164688e-03  8.4654476484801178e-03  8.5122792715353543e-03  8.5444009473475309e-03  8.5612426276895429e-03  8.5697041070255109e-03  8.5691511740570159e-03  8.5618636315850823e-03  8.5510918232312282e-03  8.5349587078880872e-03  8.5178759391265364e-03  8.4970071576929360e-03  8.4745682043963315e-03  8.4505226662636834e-03  8.4243607194737849e-03  8.3963220207283976e-03  8.3644165749435385e-03  8.3314571428009555e-03  8.2942718596729758e-03  8.2546064751419044e-03  8.2106855852031920e-03  8.1666908324071093e-03  8.1173721712337644e-03  8.0693119448820901e-03  8.0179389032058249e-03  7.9684917739108289e-03  7.9221549213964251e-03  7.8795700643278042e-03  7.8424190077076364e-03  7.8117328309909601e-03  7.7890683745415338e-03  1.2893669120331761e-03  2.8597991293342361e-03  4.5574954494146704e-03  5.5064151237936790e-03  6.1074972894640872e-03  6.6212121111600009e-03  6.8480532120951537e-03  7.1095538467651842e-03  7.2515708854429158e-03  7.2632768665660263e-03  7.5816016467268182e-03  7.1283538555465664e-03  7.5770590847511398e-03  1.3567239721628556e-02  8.4835884792403438e-03  8.4839493112748923e-03  1.2694175681621508e-02  6.8489236836175860e-03  7.0936959806752213e-03  8.5658401616283270e-03  8.5625276863978955e-03  8.3456423376787464e-03  8.3488332748887385e-03  1.1658067425124891e-02  1.1436314496781867e-02  7.5030893929844255e-03  8.4914228979722697e-03  8.4875155903464273e-03  7.5042490824636567e-03  8.1873445310836537e-03  8.1915464427999470e-03  6.6143803249886909e-03  6.6330535463403808e-03  7.6896736706383740e-03  7.6940129980150778e-03  8.1729364622808148e-03  8.1787172216130650e-03  7.9918004427491172e-03  7.9950292327180712e-03  5.9077998568253026e-03  6.3310010318885657e-03  7.2273513087354390e-03  7.2390690439292568e-03  5.5677249663498738e-03  7.7610959717780807e-03  7.7535930244794615e-03  5.3626611241294310e-03  7.7149367201896513e-03  7.7769737286438158e-03  8.0793267715920190e-03  7.8561828805614430e-03  7.8573537252749990e-03  7.2001273037082198e-03  5.3316715919948486e-03  8.5541096037814075e-03  8.5423224949788476e-03  8.4356822316470383e-03  8.5228235774389115e-03  8.4360116019438231e-03  8.5520981097174167e-03  8.2711465084550559e-03  8.3619390624647145e-03  8.2755013096261626e-03  7.4155440483639288e-03  8.3472771406962899e-03  8.0901731630750300e-03  7.6232653373049146e-03  7.3401159923163067e-03  7.4289116897087561e-03  8.0924852376401193e-03  7.6089925032800784e-03  1.0558829615568409e-02  1.1018495830988146e-02  9.9711103267509475e-03  9.3150873171343497e-03  9.0963736942001796e-03  9.3229267850091831e-03  8.3439262944407754e-03  8.3808768850407740e-03  8.0070567076494063e-03  8.3054618689660312e-03  7.9556125045376087e-03  8.0230760737029071e-03  7.8749888748726304e-03  8.0424146915993380e-03  7.9099018247270250e-03  7.9507698583894948e-03  7.9025325054805900e-03  7.9822683685451326e-03  7.9398875008600215e-03  7.9669043176627489e-03  8.0274552954523667e-03  8.0311246013851905e-03  7.9946539352327393e-03  8.0251586410303617e-03  8.0025879746701226e-03  8.0369755964345719e-03  8.0731610068459185e-03  8.0647194867923579e-03  8.0441192330761718e-03  8.0708904634696748e-03  8.0575472248987506e-03  8.0740289215672605e-03  8.0689315069152751e-03  8.0814661838155503e-03  8.0821628618393034e-03  8.0888063590537438e-03  8.0951307160567788e-03  8.0984375040641047e-03  8.1083829460631765e-03  8.1082983771925531e-03  8.1225813839359649e-03  8.1012180394636809e-03  8.1075243423840773e-03  8.1000358398002920e-03  8.1030969652970616e-03  8.1053183262898079e-03  8.1030390018451103e-03  8.1015920910922686e-03  8.1015403010771692e-03  8.0961433190443691e-03  8.0989620034113852e-03  8.0894672879776794e-03  8.0914023988911486e-03  8.0962202113828985e-03  8.0824511922801892e-03  8.0921273154123258e-03  8.0942757024748593e-03  8.0771510703441570e-03  8.1127648315030727e-03  8.0946876612171346e-03  8.0751188504532903e-03  7.9035277781277849e-03  8.0995039098280593e-03  8.0782272661940567e-03  8.0545859884540941e-03  8.0564645896062746e-03  8.0336161935201655e-03  8.0323969232181588e-03  8.0103746092154808e-03  8.0674098892323780e-03  8.0444580430740625e-03  8.0929799381057165e-03  8.0731748428166435e-03  8.3266128963801582e-03  8.1330473218458564e-03  8.1226798946846725e-03  8.1911442850027775e-03  8.1917081539107060e-03  8.1949119629501268e-03  8.2630299660264427e-03  8.2795384728060282e-03  8.1168898436314880e-03  8.3477252034642353e-03  8.3766186234434832e-03  7.9068608191234287e-03  8.4335308502812584e-03  8.4745480291989247e-03  8.3943940058059576e-03  8.4390496096019632e-03  8.5490276592656463e-03  8.5596103236478070e-03  8.1083259783546850e-03  8.4936775465144308e-03  8.6306199123813189e-03  8.6165431183324141e-03  8.6700665482029541e-03  8.6335847807835209e-03  8.6010153341684725e-03  8.6592890767279770e-03  8.7204990771727296e-03  9.6456151336554684e-03  8.6628141702250975e-03  8.5947909811979317e-03  8.7565878995569148e-03  8.0251556495320314e-03  8.0063151024067011e-03  8.0329896588394560e-03  8.0235403568394616e-03  8.0592049839984317e-03  8.0632748234830392e-03  8.1036125083173479e-03  8.1237903979721384e-03  8.1619641102692424e-03  8.2000764230431376e-03  8.2305500196123704e-03  8.2812337652307597e-03  8.2993953872089309e-03  8.3605422891327181e-03  8.3622104364162019e-03  8.4237979973403338e-03  8.4096033237054790e-03  8.0738299625756384e-03  8.4306126710819215e-03  8.4659478305066684e-03  8.4380275227870834e-03  8.3945523366082773e-03  8.4136716167505926e-03  8.3791406670110091e-03  8.3921893643854762e-03  8.3662461751545358e-03  8.3745513001435706e-03  8.3551769459244817e-03  8.3608357505043796e-03  8.3462611088277166e-03  8.3728500979404104e-03  8.3517687276580196e-03  8.3408607702709602e-03  8.3465441746787671e-03  8.3398351004782302e-03  8.4797718306333196e-03  8.3454244476054689e-03  8.3420109149706049e-03  8.3454196903892525e-03  8.3482070852618079e-03  8.3485609307591812e-03  8.3355949781811524e-03  8.3457241392881909e-03  8.3281700768819220e-03  8.3409576918464356e-03  8.3549850462327161e-03  8.3195073322576089e-03  8.3365237860952585e-03  8.3580349974272661e-03  8.3563337542607204e-03  8.3303894720375988e-03  8.3545242674098377e-03  8.3245425502418372e-03  8.3569688595392100e-03  8.3207462654765908e-03  8.3532018653143542e-03  8.3160095263816475e-03  8.3551763616472163e-03  8.3137843271755500e-03  8.3582669425200755e-03  8.3895177185753025e-03  8.3151428201733522e-03  8.3658051089153789e-03  8.3465560460955785e-03  8.3796816914792835e-03  8.3282401189375375e-03  8.3198552369804640e-03  8.3788537697063667e-03  8.4171714720415354e-03  8.4364417628386180e-03  8.3960252387756274e-03  8.4611172425460724e-03  8.4273762200572262e-03  8.4958820886980261e-03  8.4620768794857124e-03  8.5401990017466931e-03  8.5133004809619488e-03  8.5206228340989117e-03  8.5910667059262633e-03  8.5896657923098460e-03  8.6675332887308186e-03  8.6805897999275450e-03  8.6330388263281457e-03  8.6796656893483749e-03  8.6268401246034666e-03  8.6362285538929620e-03  8.1935061568966881e-03  8.2664985884273040e-03  8.2903739082838060e-03  8.5799167351405144e-03  8.5387829117121658e-03  8.6089912669445844e-03  8.5469200437560261e-03  8.4853857472179089e-03  8.3764779317494226e-03  8.4604918858878202e-03  8.4107296299216587e-03  8.3931778505601535e-03  8.5352315464636390e-03  8.5690585832926460e-03  8.6863182298649241e-03  8.3052324507554409e-03  8.5885741120836027e-03  8.3442806925831600e-03  8.4419911001550017e-03  8.2783657174989034e-03  8.2618926088859814e-03  8.2187938401594371e-03  8.5002831109620963e-03  8.6793496452400466e-03  8.2574508913034125e-03  8.1020786723617587e-03  8.0918549309961785e-03  8.1089342243460521e-03  8.8304599885221415e-03  8.8162338752425864e-03  9.0086742818442731e-03  9.1717847162034686e-03  9.1733615293792658e-03  8.2020485533347721e-03  8.2757304435275413e-03  8.0200954247549080e-03  8.2483933351697077e-03  8.5188768875008175e-03  8.5126406227976487e-03  8.5700488690095295e-03  8.5258151216969936e-03  8.5929312417651355e-03  8.5101874953715500e-03  8.4535134941060176e-03  8.3955880194684761e-03  8.3592204665470238e-03  8.5799126909201356e-03  8.6772503657516261e-03  8.2726949057315598e-03  8.2593401136386215e-03  8.6741337043806360e-03  8.7762461165703954e-03  8.1532993722498899e-03  8.1608861084034208e-03  8.2480934028762512e-03  8.1669236521461266e-03  8.0737426214595957e-03  8.0944440615280319e-03  8.1727999471970843e-03  8.1122725753179914e-03  8.1797944017464614e-03  8.1272997522740167e-03  8.1867839954402437e-03  8.1419952427024302e-03  8.1952621935155335e-03  8.0787939435126958e-03  8.1561768079641463e-03  8.2054525973424639e-03  8.1711718214528828e-03  8.2175056344197771e-03  7.9994219684715821e-03  8.7867251128010415e-03  8.9094722353184157e-03  8.1398713300911228e-03  8.1873312580184720e-03  8.2312042584013426e-03  8.1381743664006197e-03  8.5699335551268161e-03  8.2571059542895110e-03  8.2693906794432375e-03  8.9395305086056673e-03  9.0334031728599440e-03  8.9349036134642474e-03  9.0110169178920958e-03  8.7815568465751861e-03  8.8255718957991613e-03  8.5633928518423653e-03  8.4931856515988429e-03  8.2815364322661976e-03  8.1533029350386692e-03  8.0506111470713508e-03  7.9109303039391239e-03  7.9047785812859078e-03  7.8581885902506594e-03  7.8737424508208403e-03  7.9068668273153224e-03  7.9305045430114463e-03  8.1597593487612412e-03  7.9050773494188688e-03  9.2103108551280215e-03  8.2342578833261518e-03  9.1927840672021768e-03  8.2378505061754034e-03  8.5235052865590358e-03  8.4665003817292923e-03  8.0906300484679360e-03  8.3732417120095295e-03  8.3783668694878601e-03  7.9568252457359583e-03  8.0590499789691458e-03  8.0093297008093818e-03  8.1258100136602576e-03  8.1429025423393388e-03  8.1487517143235023e-03  8.1685559467208676e-03  8.1610804433295981e-03  8.1881646407531046e-03  8.1805717673684615e-03  8.1766510328760891e-03  7.9904446766755968e-03  8.4156746087319326e-03  8.0926456242185509e-03  8.1200194829454762e-03  8.1311587397410508e-03  8.1510185387261014e-03  8.1678046257808775e-03  8.1860339576697583e-03  8.2065436809002079e-03  8.2228769942258272e-03  8.2455832716426293e-03  8.2582013734646582e-03  8.2375822615558536e-03  8.2713426904986731e-03  8.2530723204679579e-03  8.2849218778751933e-03  8.2703183432683014e-03  8.2981341999405923e-03  8.2861271253819088e-03  8.3106756653376825e-03  8.3032430156219344e-03  8.3231170695773349e-03  8.3190516039183503e-03  8.3340778931613752e-03  8.3340607951327781e-03  8.3429236296070387e-03  8.3469954157579292e-03  8.3482228817922891e-03  8.3565182048226088e-03  8.3480621462210212e-03  8.3600368115677292e-03  8.3412463983655906e-03  8.2834242101406455e-03  8.3549611739441951e-03  8.3237002901375718e-03  8.3218664873482198e-03  8.3429581948303473e-03  8.3396156005254747e-03  8.2965063980205978e-03  8.3330758185974334e-03  8.3752052892110528e-03  8.3606773575807362e-03  8.3558046682935781e-03  8.4029279928788635e-03  8.3863475497024179e-03  8.2981640397504913e-03  8.4380430435209413e-03  8.4270623695066500e-03  8.3511802866891357e-03  8.4823426452871036e-03  8.4661340216138029e-03  8.4721144003016211e-03  8.5359937561854879e-03  8.5356235175724580e-03  8.2394056636325031e-03  8.2747553293139944e-03  8.3125149873101850e-03  8.3087725151579743e-03  8.3461620120594045e-03  8.3467900597682491e-03  8.3786507056917547e-03  8.3761713237448226e-03  8.4063802074010891e-03  8.4009656287734550e-03  8.4125779955658529e-03  8.4288670833549406e-03  8.4208053429378447e-03  8.4462197832489549e-03  8.4352294124180396e-03  8.4124055552005361e-03  8.4237138035231519e-03  8.4031728335899249e-03  8.4110233828149725e-03  8.6135878006102246e-03  8.6088023825845496e-03  8.4718240364086341e-03  8.3927829438099222e-03  8.3966266570154255e-03  8.3804449034033928e-03  8.3799104223958414e-03  8.3656398018128724e-03  8.3600473198069628e-03  8.3473325110248221e-03  8.3370922217247418e-03  8.3246590097864996e-03  8.3094731812411345e-03  8.2976118274070490e-03  8.2773226554938989e-03  8.2646922146865538e-03  8.2402526713418883e-03  8.2267823337664314e-03  8.1975253525608267e-03  8.1823145501307391e-03  8.1503283446059619e-03  8.1302236827679591e-03  8.5513855231299802e-03  8.0997095407667353e-03  8.0745920476601885e-03  8.0440405428351021e-03  8.0159946491001350e-03  8.0528201032498813e-03  7.9873387490429545e-03  8.0238047843158994e-03  7.9564532343866790e-03  8.7146756764402335e-03  7.9547237536960295e-03  7.9945856080465179e-03  8.3443216750431412e-03  8.4588659756532278e-03  8.4718151971047966e-03  8.6279866540870144e-03  8.5620801024447867e-03  8.6428906189957473e-03  8.5478391693928849e-03  8.4303098608108709e-03  7.9656503293492175e-03  8.0001897467535821e-03  8.3470614454472670e-03  7.9174765038640821e-03  7.9613049724209829e-03  8.1060677723128020e-03  8.3747274520012578e-03  8.1567016029003812e-03  8.2342803282696182e-03  8.1057250458332290e-03  8.2459511915970521e-03  8.2831510030644245e-03  8.3012341380316167e-03  8.3153069762103900e-03  8.1648984426719931e-03  8.0398849737727211e-03  8.2105872674502010e-03  8.2019056623601014e-03  8.7998780512457322e-03  9.0048222736374885e-03  9.1946296783439012e-03  9.2754110735528798e-03  8.0967129776833343e-03  8.1150520580520035e-03  8.4814804111289395e-03  8.4958719435571373e-03  8.1576322529495517e-03  8.1068110965197161e-03  8.2992999281438981e-03  7.8847390920574103e-03  8.7747027577815221e-03  9.5242269146071472e-03  9.3251542788822545e-03  8.1387348725029465e-03  8.5653020178992519e-03  8.9090611046697479e-03  8.3224928335963681e-03  7.8593926537016637e-03  7.9128061692371361e-03  8.0163980882026354e-03  7.9805819816786625e-03  8.0482256847295586e-03  8.1935927623524429e-03  8.8336438648634191e-03  8.7603193389300012e-03  8.3813332172496657e-03  8.6008918401624702e-03  8.4862699903851431e-03  8.4743210873947008e-03  7.9619191122000041e-03  7.8487627098236257e-03  9.2047100043492983e-03  8.2543746209436074e-03  8.0736296508939955e-03  8.3488138447311011e-03  8.3564747357657999e-03  8.1551556089645948e-03  7.8620049280952054e-03  7.9356026308826568e-03  8.2873413248118633e-03  8.0447176232940586e-03  8.0684508695499247e-03  8.3766311058413711e-03  8.3368799527773450e-03  8.2177904908301933e-03  8.1875176283257144e-03  8.1679564993473366e-03  7.9436164726716177e-03  8.3742339331553308e-03  8.1912541683839615e-03  8.4248536023586486e-03  8.8051302308477120e-03  8.2338199279378497e-03  8.2263497347077504e-03  8.1933570081564305e-03  8.2179189752192416e-03  8.1817875267833646e-03  9.3354636188040276e-03  8.1703800940762256e-03  8.4003000341360354e-03  8.3966886455479235e-03  8.3223433892208199e-03  8.3358223915076489e-03  8.2695834061061423e-03  8.2832354649834943e-03  8.3368478171938366e-03  8.2920801030755015e-03  8.3350934404906474e-03  8.2954901115823657e-03  8.2534682544841090e-03  8.2604377667424341e-03  8.2227069322846486e-03  8.2311735410111400e-03  8.1975294058457340e-03  8.2047769085007768e-03  8.1732721452970735e-03  8.1822765362286557e-03  8.9661896260439435e-03  7.9127827734824692e-03  8.3061905291701797e-03  8.3507864123519345e-03  8.2983794984903183e-03  8.3304684998319525e-03  8.2545257586776073e-03  8.3430072269673819e-03  8.3580518409538691e-03  8.3661062330441412e-03  8.3827542976164342e-03  8.3844884912316151e-03  8.4035424163567164e-03  8.4026298858243861e-03  8.4232377073672742e-03  8.4159610415976156e-03  8.4384312531434851e-03  8.4330062169014810e-03  8.4548800201369994e-03  8.4452777979169193e-03  8.4693041008291510e-03  8.4571964142011995e-03  8.4824891483634701e-03  8.4754358876515858e-03  8.4694345291794690e-03  8.4954646898101269e-03  8.4805682222864852e-03  8.5083603356708188e-03  8.5188466937963156e-03  8.5314474695984514e-03  8.5199664049828913e-03  8.5418906477825064e-03  8.5338922984762033e-03  8.5512167364450286e-03  8.5440585181689611e-03  8.5567257880408542e-03  8.5555255099083183e-03  8.5588044713751348e-03  8.0689532910952853e-03  8.0149230429404431e-03  8.2130223159415216e-03  8.1899479479435201e-03  8.5562566237550354e-03  8.3578029103932687e-03  8.2964053437219343e-03  8.7198814516853927e-03  8.7898928849059529e-03  8.2931308610225268e-03  9.3387548313349795e-03  9.0819752739161631e-03  8.2683354238504651e-03  8.2127030141871307e-03  8.4012185347400632e-03  8.0693961766583246e-03  8.4411293142517430e-03  8.3102092769293447e-03  8.0194493588268325e-03  8.1708210480773841e-03  8.1019148519067708e-03  8.4843728199473847e-03  8.5090767370211168e-03  8.4968882037590038e-03  8.5217325318225727e-03  8.5093754682509289e-03  8.5337707534592373e-03  8.5226509179236274e-03  8.5443421514279916e-03  8.5351418900489837e-03  8.5533805819117768e-03  8.5480285857690019e-03  8.5604472310420454e-03  8.5233601217930346e-03  8.5595563310759872e-03  8.4928155128761919e-03  8.5291625705980131e-03  9.5943951743137600e-03  9.7706512401749494e-03  8.6017991116998337e-03  8.3653238596107758e-03  8.0837070983784363e-03  8.0535794428502842e-03  8.0261645302305753e-03  7.9969346572560090