<?xml version="1.0"?>
<VTKFile type="UnstructuredGrid"  version="0.1"  >
<UnstructuredGrid>
<Piece  NumberOfPoints="2165" NumberOfCells="4161">
<Points>
<DataArray  type="Float64"  NumberOfComponents="3"  format="ascii">-3.598637933768527e-16 0.3500000000000001 0  0.05 0.4 0  -3.537405593811159e-16 0.45 0  0 1 0  1 1 0  0.9999999999999997 0.65 0  0.9999999999999997 0.5499999999999999 0  1 0 0  0 0 0  0.0191341716182545 0.3538060233744357 0  0.03535533905932737 0.3646446609406727 0  0.04619397662556433 0.3808658283817455 0  0.04619397662556434 0.4191341716182545 0  0.03535533905932738 0.4353553390593274 0  0.01913417161825449 0.4461939766255644 0  0 0.975 0  0 0.95 0  0 0.9249999999999999 0  0 0.8999999999999998 0  0 0.8749999999999998 0  0 0.8499999999999998 0  0 0.8249999999999997 0  0 0.7999999999999996 0  0 0.7749999999999996 0  0 0.7499999999999996 0  0 0.7249999999999996 0  0 0.6999999999999997 0  0 0.6749999999999998 0  0 0.6499999999999999 0  0 0.6249999999999999 0  0 0.6 0  0 0.575 0  0 0.5499999999999998 0  0 0.5249999999999999 0  0 0.4999999999999998 0  0 0.4749999999999999 0  0.975 1 0  0.95 1 0  0.925 1 0  0.9 1 0  0.875 1 0  0.85 1 0  0.825 1 0  0.8 1 0  0.775 1 0  0.75 1 0  0.725 1 0  0.7 1 0  0.675 1 0  0.65 1 0  0.625 1 0  0.6 1 0  0.575 1 0  0.55 1 0  0.525 1 0  0.5 1 0  0.475 1 0  0.45 1 0  0.425 1 0  0.4 1 0  0.375 1 0  0.35 1 0  0.325 1 0  0.3 1 0  0.275 1 0  0.25 1 0  0.225 1 0  0.2 1 0  0.175 1 0  0.15 1 0  0.125 1 0  0.09999999999999998 1 0  0.07499999999999996 1 0  0.05000000000000004 1 0  0.02500000000000002 1 0  1 0.675 0  1 0.7000000000000001 0  1 0.7250000000000001 0  1 0.7500000000000001 0  1 0.7750000000000001 0  1 0.8000000000000002 0  1 0.8250000000000002 0  1 0.8500000000000002 0  1 0.8750000000000003 0  1 0.9000000000000001 0  1 0.9250000000000002 0  1 0.9500000000000001 0  1 0.9750000000000001 0  0.9783058130441221 0.6450484433951209 0  0.9609084258765985 0.6311744900929367 0  0.9512536043909088 0.6111260466978157 0  0.9512536043909088 0.5888739533021843 0  0.9609084258765985 0.5688255099070633 0  0.9783058130441221 0.554951556604879 0  1 0.02500000000000002 0  1 0.05000000000000004 0  1 0.07500000000000008 0  1 0.1000000000000001 0  1 0.1250000000000001 0  1 0.1500000000000002 0  1 0.1750000000000002 0  1 0.2000000000000003 0  1 0.2250000000000003 0  1 0.2500000000000004 0  1 0.2750000000000004 0  1 0.3000000000000003 0  1 0.3250000000000002 0  1 0.3500000000000001 0  1 0.3750000000000001 0  1 0.3999999999999999 0  1 0.425 0  1 0.45 0  1 0.475 0  1 0.5000000000000001 0  1 0.5249999999999999 0  0.025 0 0  0.05 0 0  0.075 0 0  0.1 0 0  0.125 0 0  0.15 0 0  0.175 0 0  0.2 0 0  0.225 0 0  0.25 0 0  0.275 0 0  0.3 0 0  0.325 0 0  0.35 0 0  0.375 0 0  0.4 0 0  0.425 0 0  0.45 0 0  0.475 0 0  0.5 0 0  0.525 0 0  0.55 0 0  0.575 0 0  0.6 0 0  0.625 0 0  0.65 0 0  0.675 0 0  0.7 0 0  0.725 0 0  0.75 0 0  0.775 0 0  0.8 0 0  0.825 0 0  0.85 0 0  0.875 0 0  0.9 0 0  0.925 0 0  0.95 0 0  0.975 0 0  0 0.3250000000000001 0  0 0.3 0  0 0.275 0  0 0.2499999999999999 0  0 0.2249999999999999 0  0 0.1999999999999998 0  0 0.1749999999999998 0  0 0.1499999999999998 0  0 0.1249999999999998 0  0 0.09999999999999987 0  0 0.07499999999999984 0  0 0.04999999999999993 0  0 0.02500000000000002 0  0.06453325334544308 0.4134708543086404 0  0.5146839915088474 0.02134387884913819 0  0.4875871001393628 0.9784117024331356 0  0.9386300160094723 0.5701776715936071 0  0.0216506350946109 0.6124999999999999 0  0.9764205887290853 0.3596067946540696 0  0.3876261045932067 0.02156097490657183 0  0.6125 0.978349364905389 0  0.3612127461797463 0.9792371404802113 0  0.6374786650398092 0.02079982608537345 0  0.9387185538472446 0.6295115890709873 0  0.05482260092545593 0.3633687091864355 0  0.02445354803948679 0.7343198207875321 0  0.2624888813627476 0.02091671348578122 0  0.7375212991274043 0.9794996488945376 0  0.9793010831723812 0.2648509348664836 0  0.2625026480689301 0.9795699185263282 0  0.7362840788105066 0.02225211062275217 0  0.02159327910297104 0.2128861809896528 0  0.9786837570973538 0.7867241244631172 0  0.02419728000065929 0.8365600234152764 0  0.980043283615984 0.1624097203408714 0  0.1645857434226354 0.0205513501962844 0  0.8339481359352011 0.9784483546369231 0  0.1637584777222821 0.9774556328160621 0  0.8374916614314967 0.02165097219510076 0  0.02171915379676059 0.5370700005916152 0  0.9795335762511281 0.4365726939225819 0  0.02319480745007968 0.1370197632171214 0  0.9774462976085161 0.8592616917551974 0  0.9786941241076723 0.7122511101067891 0  0.9797883857882621 0.08781864217752949 0  0.01966314788989931 0.9125801876811624 0  0.02051815350151098 0.2882126194470174 0  0.09063226699593246 0.0214884092697174 0  0.9124408843562394 0.9818463395009377 0  0.03872465516591678 0.452731089005145 0  0.08969424365256845 0.978412979507602 0  0.9124999999999999 0.02165063509461096 0  0.02158104789437187 0.6619299176372371 0  0.9796602354625652 0.4859004208706154 0  0.3127517983598529 0.02417963694738812 0  0.4375629605000894 0.02158039900821679 0  0.5643674594196073 0.01968996000301126 0  0.5368361594956101 0.9790428840407062 0  0.4376176251051295 0.9783667484208922 0  0.6874072695660477 0.978435143102373 0  0.310604317388614 0.979558305560928 0  0.2125577044121564 0.02066685543111635 0  0.6875 0.0216506350946109 0  0.02224009810917643 0.08811420611559456 0  0.790876428529276 0.978633065284896 0  0.2125 0.978349364905389 0  0.9788033534786624 0.2116925349935155 0  0.9769441169344462 0.3150381335760689 0  0.9804648376981185 0.9123186437266726 0  0.7874999988222203 0.02127957051165741 0  0.02109233852270731 0.786866823287435 0  0.9483709287873718 0.5504073206521916 0  0.9259842326464427 0.5519702047534598 0  0.9163209045278007 0.5719292915927929 0  0.9035374059862284 0.5537291796040291 0  0.8938951918780048 0.5738949757882954 0  0.8807940177559743 0.5546750869516996 0  0.8712661812741653 0.5757142549099102 0  0.8580668865514332 0.5563902430113601 0  0.848508161986991 0.5779004013072002 0  0.8354274200119249 0.5591176379057713 0  0.8256349826905482 0.5800610629400762 0  0.8124123591208572 0.5604454546391737 0  0.802603410938817 0.5819653950592523 0  0.7892876429890218 0.562234610648543 0  0.7794355871850538 0.583896242519796 0  0.7661469824381839 0.5648243426306435 0  0.7562387679604726 0.5860005456930413 0  0.7429651600512166 0.5669367633461588 0  0.7330846968880171 0.5879590907760761 0  0.7198577999459205 0.5688986880627463 0  0.7297050500533544 0.5479561801187277 0  0.7066243396993471 0.5499068108517552 0  0.6968285086900206 0.5707989520567972 0  0.6836266810714333 0.5519088927359967 0  0.6738604685766018 0.5727655091567184 0  0.6607284761452521 0.5538781923028128 0  0.6697149783704412 0.5321140554135094 0  0.6473436039782401 0.5350050604671006 0  0.6378867365666199 0.5557804038095817 0  0.6246915360243652 0.5362124690568238 0  0.6151175309583405 0.5575933164645619 0  0.6019784180102355 0.5380659376543677 0  0.5924099113505394 0.5593739656462906 0  0.5794110962027638 0.541110021814312 0  0.5697985396917309 0.5614600003719357 0  0.5568468707330213 0.5433212932327446 0  0.5472634011377896 0.5635652141280936 0  0.5343236363495072 0.5451361960661517 0  0.5247877773262166 0.565493591892781 0  0.5118927934227436 0.5470665328397559 0  0.5023398230005425 0.5674381114577953 0  0.5213991904098014 0.5267047787870831 0  0.4990390504096661 0.528649139287786 0  0.6328887517229864 0.5131744321062524 0  0.5085133205790763 0.5083322037773296 0  0.4861972978925295 0.5102540920324363 0  0.4956914791804768 0.4899605513008993 0  0.4734139980312694 0.4918582759645476 0  0.4826986629698439 0.4717164019717278 0  0.460570567761715 0.473509155475794 0  0.4699344541058981 0.4533140529328089 0  0.4477087341565655 0.4550973130597117 0  0.4381733274019614 0.4752901381741884 0  0.4570222843287571 0.4349938694701042 0  0.4348599018247688 0.436728068420533 0  0.5604623134382263 0.581815997002507 0  0.4443612964408632 0.416499823314016 0  0.422056299386984 0.4183730429856528 0  0.4688721528228815 0.4135009841763965 0  0.4315584877924544 0.398120546824229 0  0.4092288692044618 0.3999974286008185 0  0.7463210599443056 0.6070829843371945 0  0.4187270626688335 0.3797365044773463 0  0.3964262302393312 0.3817184136470017 0  0.3869780036193907 0.4018498778543814 0  0.3742423843122406 0.3837055716372927 0  0.3648701490102072 0.4037049758807119 0  0.3518115403926748 0.3858985036587403 0  0.3426146276710081 0.4056777495658291 0  0.3614541441355358 0.3656396497906528 0  0.339026673715919 0.3678724679736439 0  0.3485566370135618 0.3476560889674916 0  0.3264681821394378 0.3496422822523857 0  0.8219942777991693 0.5379143061758643 0  0.3358297439968608 0.3295117748868035 0  0.3137050884585635 0.3314921667582986 0  0.3229980644152205 0.3113561769498422 0  0.3007986024336577 0.3133063832007756 0  0.3441851868720173 0.3085211458266175 0  0.3101966551534752 0.2930273704914169 0  0.287793053707373 0.2950088132226583 0  0.2914417217227097 0.3337427541189321 0  0.2975120686695638 0.2743682539701985 0  0.274864585256681 0.2764253296978281 0  0.816026571618698 0.6006851919544112 0  0.2844672854128698 0.2557011565880619 0  0.2617267434509338 0.2577713002235077 0  0.3072711221189672 0.2536790056475094 0  0.2521588568690318 0.2785072139143895 0  0.2389277409161178 0.2598761196336353 0  0.248448076747058 0.2389478879785275 0  0.5053822153261678 0.4716915524631118 0  0.229548765875869 0.2806542761043101 0  0.2254561407802683 0.2411354049374563 0  0.2350621310805047 0.2199181955146378 0  0.2117782450160163 0.222165061041625 0  0.2214249125635323 0.2008136877065064 0  0.2448758256083499 0.1985732693215908 0  0.197966291680556 0.2031211006951591 0  0.1883147493074436 0.2245564097761413 0  0.8910637266939049 0.5322898364209732 0  0.1748136087708587 0.2051141748992724 0  0.1842088801696792 0.1837087814679069 0  0.1656574100807746 0.2269812054689968 0  0.3554582346764377 0.4236292557112198 0  0.3328979939923831 0.425459320867588 0  0.3460368767112177 0.4435398346083328 0  0.3238464003
[...]
<PointData  Scalars="$\epsilon$"> 
<DataArray  type="Float64"  Name="$\epsilon$"  format="ascii">1.3828386325037807e-05  2.6642418362975605e-02  1.2269888565457157e-05  6.0621778264838555e-07  6.0621777799096176e-07  8.4571033908914045e-06  1.1647802182992516e-05  6.0621778264843129e-07  6.0621777203967047e-07  9.0577174676626608e-05  -1.3575590185321204e-03  1.1191866702820958e-02  1.0604134971419496e-02  -1.3502264590526164e-03  9.1854158634625745e-05  6.0621778264886698e-07  6.0621778264834839e-07  6.0621778264868106e-07  6.0621778266227731e-07  6.0621778255333268e-07  6.0621778301536755e-07  6.0621778231260125e-07  6.0621777376105318e-07  6.0621784534533264e-07  6.0621748011544678e-07  6.0621834261330104e-07  6.0621821092532145e-07  6.0619361738791372e-07  6.0649508148587100e-07  6.0476029657290194e-07  6.0952851875502839e-07  6.2698172212036451e-07  2.9093100205965304e-07  2.7672427810603143e-06  -8.6448215588620791e-06  1.6614338770395498e-05  6.0621778058216938e-07  6.0621776831042126e-07  6.0621777181544201e-07  6.0621778412086434e-07  6.0621777911494166e-07  6.0621778505869679e-07  6.0621778345758450e-07  6.0621778224431918e-07  6.0621778238791688e-07  6.0621778259654343e-07  6.0621778271702846e-07  6.0621778260384316e-07  6.0621778265130517e-07  6.0621778265144122e-07  6.0621778264807035e-07  6.0621778264795557e-07  6.0621778264971370e-07  6.0621778264850170e-07  6.0621778264874946e-07  6.0621778264880165e-07  6.0621778264870996e-07  6.0621778264873379e-07  6.0621778264886253e-07  6.0621778264865692e-07  6.0621778264879371e-07  6.0621778264877645e-07  6.0621778264876280e-07  6.0621778264878260e-07  6.0621778264876523e-07  6.0621778264874278e-07  6.0621778264878005e-07  6.0621778264873050e-07  6.0621778264877000e-07  6.0621778264878122e-07  6.0621778264853897e-07  6.0621778264865533e-07  6.0621778264867936e-07  6.0621778264868900e-07  6.0621778264903205e-07  -4.4422818520495595e-06  2.1817938451217703e-06  2.8151476077157252e-07  6.5252119162045333e-07  5.9920302120787604e-07  6.0714813224326774e-07  6.0614896975730101e-07  6.0619405860988612e-07  6.0622592740611391e-07  6.0621605065811115e-07  6.0621830377171745e-07  6.0621768839370940e-07  6.0621781092393584e-07  -5.6068863125685839e-05  3.6786478219512510e-04  2.2348393713599729e-02  1.3418099299893148e-02  3.3041423673090914e-04  -5.7837245268136037e-05  6.0621778264881182e-07  6.0621778264887492e-07  6.0621778264813949e-07  6.0621778265189788e-07  6.0621778263751462e-07  6.0621778267093198e-07  6.0621778274087106e-07  6.0621778173795907e-07  6.0621778633533542e-07  6.0621777747536264e-07  6.0621775280900374e-07  6.0621774296786357e-07  6.0621867230533143e-07  6.0619839982597944e-07  6.0632540284920998e-07  6.0595594903552983e-07  6.0317190724408774e-07  6.4389582577825386e-07  3.3809087436276184e-07  1.8635375054833869e-06  -3.5625173209720490e-06  6.0621776357157897e-07  6.0621776714229527e-07  6.0621778503008655e-07  6.0621778313182039e-07  6.0621778392882302e-07  6.0621778239895097e-07  6.0621778219889057e-07  6.0621778285952619e-07  6.0621778268627397e-07  6.0621778256605945e-07  6.0621778268650934e-07  6.0621778266223793e-07  6.0621778264709689e-07  6.0621778264689350e-07  6.0621778265014558e-07  6.0621778264807723e-07  6.0621778264904062e-07  6.0621778264870943e-07  6.0621778264866338e-07  6.0621778264879392e-07  6.0621778264875803e-07  6.0621778264878101e-07  6.0621778264882209e-07  6.0621778264863108e-07  6.0621778264876978e-07  6.0621778264878387e-07  6.0621778264875994e-07  6.0621778264872447e-07  6.0621778264876407e-07  6.0621778264880811e-07  6.0621778264876174e-07  6.0621778264878874e-07  6.0621778264878852e-07  6.0621778264877455e-07  6.0621778264859911e-07  6.0621778264880070e-07  6.0621778264884623e-07  6.0621778264853219e-07  6.0621778264894692e-07  1.6363356328991103e-05  -8.9089220309311518e-06  3.4888741659204499e-06  -1.1879593870755690e-08  6.9379210502386672e-07  5.9848110797564668e-07  6.0535708711775244e-07  6.0669107693983078e-07  6.0609762405796349e-07  6.0623317245396452e-07  6.0621580413611243e-07  6.0621789219758135e-07  6.0621780721765626e-07  4.5575696903084563e-03  6.0621778264875242e-07  6.0621778264884337e-07  -5.5993640066743383e-04  6.0880099100742223e-07  6.0620469575197902e-07  6.0621778265050112e-07  6.0621778265376548e-07  6.0621778264872182e-07  6.0621778264880282e-07  -1.5503035571484876e-04  -1.4625965199156175e-03  6.0621835528077205e-07  6.0621778261716042e-07  6.0621778241123739e-07  6.0621781912282969e-07  6.0621778264888445e-07  6.0621778264876195e-07  5.7472425881200463e-07  6.0720536977134206e-07  6.0621778172042813e-07  6.0621778251702577e-07  6.0621778402650815e-07  6.0621777871890420e-07  6.0621778264876851e-07  6.0621778264880621e-07  3.4453009249366927e-07  5.9388936699437709e-07  6.0627765196635792e-07  6.0620529040028441e-07  7.4999176940504069e-07  6.0621778264893358e-07  6.0621778264184624e-07  -3.4358590419419747e-06  6.0621778217773423e-07  6.0621779261788965e-07  4.1202450465526862e-04  6.0621778264906540e-07  6.0621778264875570e-07  6.0614540719791070e-07  7.2472275077952428e-07  6.0621778263825747e-07  6.0621778264884633e-07  6.0621778264872150e-07  6.0621778264913380e-07  6.0621778264877825e-07  6.0621778266781003e-07  6.0621778264876025e-07  6.0621778222993888e-07  6.0621778264884199e-07  6.0621512925098152e-07  6.0621778316501964e-07  6.0621778264882177e-07  6.0621778317501293e-07  6.0621738773969575e-07  6.0621712497312395e-07  6.0621778264882632e-07  6.0621777145230892e-07  3.9049651062019169e-05  5.0685867031601334e-05  2.7969883322549857e-04  -5.4531937785566314e-05  5.0151937857696282e-06  8.8343869611035041e-06  -5.0874719951447589e-06  -1.5272700375514244e-07  5.2089996578709332e-06  1.0072241351407974e-07  -9.7975869502493888e-07  9.1555450456232061e-07  9.6274941410544650e-07  5.0262377375100430e-07  5.5096128074262601e-07  6.3028464218802046e-07  6.1064339626189486e-07  6.0219942139200182e-07  6.0672098352661059e-07  6.0662049779649840e-07  6.0787399220477586e-07  6.0592905319209620e-07  6.0623211546908255e-07  6.0625142623139469e-07  6.0620062668535253e-07  6.0621737776437878e-07  6.0619762367843058e-07  6.0622026177113449e-07  6.0621678105785638e-07  6.0621770756108932e-07  6.0621808158659505e-07  6.0621771746644422e-07  6.0621773168547492e-07  6.0621780504096433e-07  6.0621778657756990e-07  6.0621777841828183e-07  6.0621778330362483e-07  6.0621778309541005e-07  6.0621778233194367e-07  6.0621778265603214e-07  6.0621778270689001e-07  6.0621778234724850e-07  6.0621778270375217e-07  6.0621633565161787e-07  6.0621778277129215e-07  6.0621778258892405e-07  6.0621778263725077e-07  6.0621778266771738e-07  6.0621778253504058e-07  6.0621778290943401e-07  6.0621778281208568e-07  6.0621778162090261e-07  6.0621778252309222e-07  6.0621778260415444e-07  6.0621778456414453e-07  6.0621777811415815e-07  6.0621778176676518e-07  6.0621778341653951e-07  6.0621778286379365e-07  6.0621778562316918e-07  6.0621776762261536e-07  6.0195459538011075e-07  6.0621778105831000e-07  6.0621781592452889e-07  6.0621781690161168e-07  6.0621755852401087e-07  6.0621795630275703e-07  6.0621859092717625e-07  6.0621531965904775e-07  6.0621805259116469e-07  6.0621501133088478e-07  6.0621856470738868e-07  6.0621787615405450e-07  5.6592968417396368e-07  6.0621556163857732e-07  6.0623124496940862e-07  6.0621572995842244e-07  6.0621042866731166e-07  6.0621863660083897e-07  6.0622611156371099e-07  6.0617458938014093e-07  6.0617293342587533e-07  6.0622456309969659e-07  6.0623125102160483e-07  -1.6794220597568527e-07  6.0620025515473353e-07  6.0632033151233939e-07  6.0621912371784330e-07  6.0596277476700820e-07  6.0582852499926373e-07  6.0627543287805113e-07  6.0621778287242259e-07  6.0780692672115502e-07  6.0622811311294997e-07  6.0617295499807369e-07  6.0644574962601883e-07  6.0617650608233417e-07  6.0623289102129907e-07  6.0625238788881051e-07  6.0565309209503632e-07  8.8649494585971337e-06  6.0645585453235321e-07  6.0613820379608666e-07  6.0640021660425178e-07  6.0621877365670500e-07  6.0621536493145593e-07  6.0621688568845807e-07  6.0622869434112804e-07  6.0621296169169231e-07  6.0623939358551404e-07  6.0621252820813509e-07  6.0623150070740151e-07  6.0621609558918496e-07  6.0621654639920758e-07  6.0621965895365424e-07  6.0620739180123730e-07  6.0622076242955460e-07  6.0620946415040059e-07  6.0621821087509134e-07  6.0622358634854688e-07  6.0621488940779726e-07  6.0614375504209131e-07  6.0622616715782708e-07  6.0622981628136536e-07  6.0621551438927555e-07  6.0621859885012148e-07  6.0621805248364593e-07  6.0621761948398910e-07  6.0621778015080186e-07  6.0621780460179225e-07  6.0621777415214131e-07  6.0621778170553782e-07  6.0621778517447793e-07  6.0621778216741314e-07  6.0621777750436251e-07  6.0621778221284322e-07  6.0621778282097105e-07  6.0621778268891893e-07  6.0621778261472139e-07  6.0622100822438855e-07  6.0621778265187363e-07  6.0621778265290479e-07  6.0621778261746133e-07  6.0621778264676221e-07  6.0621778264886211e-07  6.0621778264620031e-07  6.0621778264928658e-07  6.0621778265001948e-07  6.0621778264744778e-07  6.0621778264932290e-07  6.0621778264874564e-07  6.0621778265597613e-07  6.0621778264859191e-07  6.0621778264432360e-07  6.0621778261969930e-07  6.0621778271206803e-07  6.0621778269562786e-07  6.0621778224203907e-07  6.0621778304024724e-07  6.0621778483985831e-07  6.0621777786052186e-07  6.0621777610278619e-07  6.0621781053570189e-07  6.0621777853370680e-07  6.0621778171194129e-07  6.0621768599133041e-07  6.0621800739558409e-07  6.0621783824719834e-07  6.0621778263733135e-07  6.0621778254557290e-07  6.0621778855181058e-07  6.0621583211546918e-07  6.0621862410353572e-07  6.0621383747994805e-07  6.0622947124654978e-07  6.0623310219325250e-07  6.0616213623001009e-07  6.0617020441383630e-07  6.0643362661503489e-07  6.0632574904863932e-07  6.0622625049557637e-07  6.0555864664869477e-07  6.0608547489164674e-07  6.0764665258096385e-07  6.0605028184347993e-07  6.0470871741492742e-07  6.0631213692851074e-07  6.0595522157290596e-07  6.0624375451062483e-07  6.0626584712647008e-07  6.0621770956458535e-07  6.0621816838119485e-07  6.0621778229402074e-07  6.0619964180840071e-07  6.0625155595185565e-07  6.0596137855366412e-07  6.0641756770902091e-07  6.0619770008108819e-07  6.0638572138158062e-07  6.0625627278935901e-07  6.0620147711201383e-07  6.0619104640784376e-07  6.0642546151206547e-07  5.9697133561855614e-07  6.2551803945657997e-07  6.0621778264722861e-07  6.0621909525387296e-07  6.0622957843887631e-07  6.0621709295390762e-07  6.0624169642859144e-07  6.0621894866301380e-07  6.0619513412601949e-07  6.5130264309477586e-07  4.7385942410099429e-07  6.0637506718201542e-07  6.0574565139130474e-07  6.0621777102872596e-07  6.0621778293703691e-07  5.9144402700671941e-07  8.6069240051549402e-07  5.3757067413761022e-07  5.2356855156336173e-07  8.7229522741856021e-07  6.0621899603052558e-07  6.0621778660866332e-07  6.0623222558074720e-07  6.0624231501014532e-07  6.0618609153066949e-07  6.0622271003602296e-07  6.0624865689955229e-07  6.0618244998157469e-07  6.0634039245725666e-07  6.0626308180958830e-07  6.0621919904997144e-07  6.0619227855940720e-07  6.0622089229340088e-07  6.0576710227224822e-07  6.0631642623082166e-07  6.0622734624670269e-07  6.0621551872955793e-07  6.0870628374819449e-07  6.0108397091505597e-07  6.0621771988957488e-07  6.0621823142692946e-07  6.0621812631847773e-07  6.0621765194819715e-07  6.0621774249638322e-07  6.0621781471271358e-07  6.0621780547846034e-07  6.0621777410044446e-07  6.0621778045468626e-07  6.0621778413233190e-07  6.0621778251021732e-07  6.0621778250091320e-07  6.0621778276032392e-07  6.0621778198695203e-07  6.0621778264127958e-07  6.0621778262240641e-07  6.0621778265615136e-07  6.0621778265240811e-07  6.0621775166642618e-07  5.9933720550497086e-07  6.5128648476342900e-07  6.0620474614720128e-07  6.0621778264700446e-07  6.0621778264879308e-07  6.0621778264845935e-07  6.0368957195264949e-07  6.0621778264704491e-07  6.0621778264933010e-07  5.7959683044997214e-07  3.5107710771379798e-07  6.3290359074029092e-07  7.0793844908510940e-07  5.6042484132805879e-07  7.6849448354895118e-07  5.9442041544375921e-07  5.6235401220575060e-07  5.9880547519638887e-07  6.8307968654756177e-07  6.3027752835848312e-07  3.1676999140298473e-07  6.8127298199711117e-07  3.9175834816184491e-07  2.0920082582919843e-06  6.4847999681716443e-07  -1.7039133641403522e-06  1.4753329648164422e-06  6.5785853031870727e-07  -7.8666586525726579e-07  6.0621778225156618e-07  1.0995238629634269e-06  -1.4359664473375018e-06  -1.6884602345986640e-07  6.0621883229241455e-07  6.2790066193582764e-07  1.3565617319825770e-07  6.0622074391695497e-07  6.0693279360198803e-07  6.0621781211345735e-07  6.0622402768624559e-07  6.0621778259100553e-07  6.0621778263433031e-07  6.0621778272261570e-07  6.0621778264035144e-07  6.0621778265302581e-07  6.0621778263122646e-07  6.0621778269453339e-07  6.0621778264503966e-07  6.0620889978263833e-07  6.0621764204204339e-07  6.0621929908108301e-07  6.0621778196653377e-07  6.0621778574703028e-07  6.0621778226972783e-07  6.0621778198829722e-07  6.0621778287807388e-07  6.0621778236922879e-07  6.0621778263052289e-07  6.0621778286057313e-07  6.0621778261912501e-07  6.0621778266325606e-07  6.0621778264986616e-07  6.0621778264496618e-07  6.0621778265065359e-07  6.0621778264631074e-07  6.0621778264599766e-07  6.0621778266163812e-07  6.0621778265279859e-07  6.0621778261296485e-07  6.0621778265424733e-07  6.0621778268431743e-07  6.0621778260852683e-07  6.0621778275757360e-07  6.0621778273524137e-07  6.0621778210437663e-07  6.0621778265011784e-07  6.0621778353067720e-07  6.0621778213431067e-07  6.0621778348544966e-07  6.0621778398657373e-07  6.0621778260569297e-07  6.0621777540570402e-07  6.0621778200718701e-07  6.0621778264891050e-07  6.0621778264400798e-07  6.0621779483706218e-07  6.0621777975334510e-07  6.0621778251264926e-07  6.0621780511601293e-07  6.0621769625241046e-07  6.0621778451302419e-07  6.0621780597968510e-07  6.0621814256939076e-07  6.0621778284731727e-07  6.0621696893812949e-07  6.0621692575008939e-07  6.0621720503182436e-07  6.0622396044509115e-07  6.0621648391012746e-07  6.0621182420771664e-07  6.0619324897406871e-07  6.0628984085519635e-07  6.0621778265937432e-07  6.0621778258498492e-07  6.0621778278433455e-07  6.0621778182774234e-07  6.0621778283218228e-07  6.0621778258905237e-07  6.0621778267895550e-07  6.0621778265771816e-07  6.0621778261473399e-07  6.0621778265203923e-07  6.0621778283574564e-07  6.0621778266082296e-07  6.0621778264646363e-07  6.0621778264673733e-07  6.0621778264963852e-07  6.0621778264914438e-07  6.0621778264870890e-07  6.0621778264889398e-07  6.0621778264890954e-07  6.0622781794344130e-07  6.0581180195015097e-07  6.0623644996890997e-07  6.0621778264886539e-07  6.0621778264880578e-07  6.0621778264888127e-07  6.0621778264890414e-07  6.0621778264879710e-07  6.0621778264887990e-07  6.0621778264887810e-07  6.0621778264887979e-07  6.0621778264882908e-07  6.0621778264887323e-07  6.0621778264893644e-07  6.0621778264881923e-07  6.0621778264910680e-07  6.0621778264889567e-07  6.0621778264841339e-07  6.0621778264906042e-07  6.0621778264861573e-07  6.0621778264847131e-07  6.0621778265122830e-07  6.0680107936912304e-07  6.0621778264880303e-07  6.0621778264409999e-07  6.0621778265217221e-07  6.0621778262843295e-07  6.0621778269902425e-07  6.0621778274297869e-07  6.0621778231683081e-07  6.0621778262145117e-07  6.0728739501258416e-07  6.0621778233427026e-07  6.0621778427171191e-07  6.0582811096651880e-07  6.0621778264868932e-07  6.0621778265279340e-07  6.0057411322136044e-07  6.0628635181313750e-07  6.0576391279895901e-07  6.0631142296815766e-07  6.0621778264876502e-07  6.0627057194146314e-07  6.0596702040311813e-07  6.0621778272905919e-07  6.0621778325408759e-07  6.0621777679476457e-07  -2.3956382671611608e-05  6.0621778264871197e-07  6.0621778253511787e-07  6.0621777828241595e-07  6.0619879400151659e-07  6.0621778264867650e-07  6.0621778264885184e-07  6.0621778264870922e-07  6.0621778264889059e-07  6.0621778264607527e-07  6.0622515219339952e-07  6.0621778271465603e-07  6.0621778238574276e-07  7.8668431300158253e-06  -9.9753120156544000e-07  3.1913372691346298e-06  1.0302159720593705e-06  6.0629242401105756e-07  6.0622055862395957e-07  6.0621778264706397e-07  6.0621778265705895e-07  6.0621778264936885e-07  6.0621778264792413e-07  5.5058161576060041e-07  6.0621778249565545e-07  4.3108298583931801e-07  -3.7040636512616817e-06  1.4216696211495836e-06  6.0527745926543167e-07  6.1529307682512014e-07  7.8687735657678132e-07  6.0621778264873950e-07  6.0621778406001932e-07  6.0621779501642458e-07  6.0621780630463796e-07  6.0621768597242284e-07  6.0621594678391083e-07  6.0621822121991214e-07  6.1052901336041762e-07  6.3731613629301051e-07  6.0128568883403240e-07  6.0645728657349318e-07  6.0580381933419809e-07  6.0624898454528015e-07  6.0617399882885629e-07  6.0624154555763467e-07  -5.9178401261146421e-07  6.0621778264874416e-07  6.0621778320962661e-07  6.0621778264848253e-07  6.0621778264878302e-07  1.9661449255918969e-05  6.0621781040968150e-07  6.0621798339611001e-07  6.0621778333263825e-07  6.0699205668035249e-07  6.0616885298520308e-07  6.0621778264882484e-07  6.0621778264889197e-07  6.0621778263789335e-07  6.0621778272803428e-07  6.0621778243046758e-07  6.0622146098223766e-07  6.0621778264492108e-07  6.0621778537870509e-07  4.3482073463233279e-07  -1.2945223115630821e-06  6.0621778248499332e-07  6.0621778362863709e-07  6.0621778331167842e-07  6.0621777888134236e-07  6.0621778239300956e-07  4.3755309961026301e-07  6.0621778264875390e-07  6.0640725367636701e-07  6.0618696975414389e-07  6.0615990595982570e-07  6.0623192134900201e-07  6.0622859990049512e-07  6.0621370619223177e-07  6.0621537244570596e-07  6.0621878470830702e-07  6.0621803609672958e-07  6.0621760284866584e-07  6.0621750638194578e-07  6.0621785286611943e-07  6.0621782996832107e-07  6.0621776330563603e-07  6.0621778509573214e-07  6.0621778616997225e-07  6.0621777379833195e-07  6.0621778370112331e-07  1.3142530869350305e-06  6.0621951679274838e-07  6.0621778551114155e-07  6.0621777744900912e-07  6.0621778264886973e-07  6.0621778264888604e-07  6.0621778264877053e-07  6.0621778264884485e-07  6.0621778264883861e-07  6.0621778264886338e-07  6.0621778264887079e-07  6.0621778264880377e-07  6.0621778264895560e-07  6.0621778264882675e-07  6.0621778264857634e-07  6.0621778264911908e-07  6.0621778265056232e-07  6.0621778264492288e-07  6.0621778264298381e-07  6.0621778267415335e-07  6.0621778265440456e-07  6.0621778254725913e-07  6.0621778273749267e-07  6.0621778265506070e-07  6.0621778280669442e-07  6.0621778191213233e-07  6.0621778401443126e-07  6.0621778577114456e-07  6.0621778220242101e-07  6.0621778262362963e-07  6.0621777899989224e-07  6.0621778388091325e-07  6.0621778107815862e-07  6.0621778078727893e-07  6.0621780040606293e-07  6.0621777518497973e-07  6.0621780965217167e-07  6.0621778501261915e-07  6.0621778264849672e-07  6.0621778264730558e-07  6.0621778114285881e-07  6.0621778272396386e-07  6.0621778252800576e-07  6.0631610324947322e-07  6.0621780399605475e-07  6.0905264454983648e-07  6.0973808708336324e-07  6.0621778265161243e-07  5.4572899823721118e-08  4.2774749893027271e-07  6.0621627601429609e-07  6.0621711842161760e-07  6.0621769875163178e-07  6.0621776832196303e-07  6.0621778264842123e-07  6.0621721486380112e-07  6.0628108986776888e-07  6.0621778264788781e-07  6.0621778233990525e-07  6.0621778262246115e-07  6.0621778262205129e-07  6.0621778276776044e-07  6.0621778270720098e-07  6.0621778226339690e-07  6.0621778263867294e-07  6.0621778347311665e-07  6.0621778206175329e-07  6.0621778231008705e-07  6.0621778590013148e-07  6.0621777541191150e-07  6.0621777126044050e-07  6.0621779370427812e-07  6.0621778226812864e-07  6.0621778435347558e-07  6.0621778264699440e-07  3.8227320157083072e-06  1.4546337895258542e-06  6.0622152489921574e-07  6.0621778264885385e-07  6.0621778265762435e-07  6.0621778264492044e-07  6.0621778266427155e-07  6.06