<?xml version="1.0"?>
<VTKFile type="UnstructuredGrid"  version="0.1"  >
<UnstructuredGrid>
<Piece  NumberOfPoints="5239" NumberOfCells="9518">
<Points>
<DataArray  type="Float64"  NumberOfComponents="3"  format="ascii">0.9414213645594869 0.7109475791470508 0  0.9423976669666869 0.7119489233974361 0  0.9414213645615341 0.7890524208509022 0  0.9423976669666869 0.7880510766025639 0  0.9424142169837042 0.7880761184457472 0  0.9424142169837042 0.7119238815542528 0  0.05758578301629641 0.2119238815542518 0  0.05760233303331211 0.2119489233974368 0  0.05857863544051246 0.2109475791470513 0  0.1528595479208968 0.25 0  0.05857863544051345 0.2890524208529496 0  0.05760233303331212 0.2880510766025632 0  0.05758578301629574 0.2880761184457472 0  1.031465821164248e-15 0.2647883604631984 0  -5.996837077767991e-16 0.3471404520791032 0  0.05522847498307933 0.4023689270621825 0  0.03905242085295188 0.4414213645594843 0  0.03805107660256478 0.4423976669666885 0  0.03807611844574815 0.4424142169837036 0  0.0380761184457472 0.5575857830162957 0  0.03805107660256218 0.557602333033312 0  0.03905242083482743 0.5585786354223912 0  0.05522847498307936 0.5976310729378175 0  -5.503058498981808e-16 0.6528595479208968 0  1.060466145009817e-15 0.7352116395368016 0  0.05758578301629642 0.7119238815542519 0  0.05760233303331213 0.7119489233974368 0  0.05857863544051377 0.7109475791470501 0  0.1528595479208968 0.75 0  0.05857863544051369 0.7890524208529499 0  0.05760233303331214 0.7880510766025632 0  0.05758578301629577 0.7880761184457472 0  1.031465821164248e-15 0.7647883604631984 0  0 1 0  1 1 0  1.000000000000001 0.7647883604631984 0  1.000000000000001 0.7352116395368016 0  0.9999999999999998 0.6528595479208968 0  0.9609475791470494 0.5585786354405142 0  0.9619489233974378 0.557602333033312 0  0.9619238815542528 0.5575857830162958 0  0.9852116395368016 0.5 0  0.9619238815542518 0.4424142169837036 0  0.9619489233974352 0.4423976669666885 0  0.9609475791524118 0.441421364564848 0  0.9999999999999996 0.3471404520791032 0  0.9999999999999989 0.2647883604631985 0  0.9424142169837043 0.2880761184457472 0  0.9423976669666869 0.288051076602564 0  0.9414213645735279 0.2890524208389084 0  0.9414213645594869 0.2109475791470508 0  0.9423976669666869 0.2119489233974361 0  0.9424142169837043 0.2119238815542528 0  0.9999999999999989 0.2352116395368015 0  1 0 0  0 0 0  1.060466145009817e-15 0.2352116395368015 0  0.2109475791470459 0.1914213645594821 0  0.3052284749830794 0.1523689270621825 0  0.2119489233974352 0.1923976669666885 0  0.289052420852949 0.1914213645594872 0  0.2119238815542518 0.1924142169837036 0  0.2880510766025648 0.1923976669666885 0  0.2352116395368015 0.25 0  0.2880761184457481 0.1924142169837036 0  0.2119238815542528 0.3075857830162957 0  0.2880761184457472 0.3075857830162957 0  0.2119489233974378 0.307602333033312 0  0.2880510766025622 0.307602333033312 0  0.2109475791470512 0.3085786354405126 0  0.2890524208529491 0.3085786354405129 0  0.3052284749830794 0.3476310729378175 0  0.4414213645594883 0.2109475791470521 0  0.4423976669666869 0.211948923397436 0  0.4414213645648475 0.2890524208475887 0  0.4424142169837043 0.2119238815542528 0  0.4423976669666869 0.288051076602564 0  0.5575857830162965 0.2119238815542518 0  0.4424142169837043 0.2880761184457472 0  0.5576023330333122 0.2119489233974367 0  0.5575857830162958 0.2880761184457473 0  0.5585786354277373 0.2109475791598264 0  0.5576023330333121 0.2880510766025632 0  0.6528595479208968 0.25 0  0.558578635417798 0.2890524208302342 0  0.7109475791470501 0.1914213645594864 0  0.8052284749830794 0.1523689270621825 0  0.7119489233974352 0.1923976669666885 0  0.7890524208281815 0.1914213645842547 0  0.7119238815542519 0.1924142169837035 0  0.7880510766025648 0.1923976669666885 0  0.7352116395368016 0.25 0  0.7880761184457481 0.1924142169837036 0  0.7119238815542528 0.3075857830162957 0  0.7880761184457472 0.3075857830162957 0  0.7119489233974378 0.307602333033312 0  0.7880510766025622 0.307602333033312 0  0.710947579147051 0.3085786354405128 0  0.7890524208529504 0.3085786354405141 0  0.8052284749830794 0.3476310729378175 0  0.1914213645594872 0.460947579147051 0  0.1923976669666869 0.461948923397436 0  0.1914213645594873 0.5390524208529488 0  0.1924142169837043 0.4619238815542528 0  0.1923976669666869 0.5380510766025639 0  0.3075857830162964 0.4619238815542518 0  0.1924142169837043 0.5380761184457472 0  0.3076023330333121 0.4619489233974368 0  0.3075857830162958 0.5380761184457472 0  0.3085786354402141 0.4609475791473497 0  0.3076023330333121 0.5380510766025632 0  0.4028595479208968 0.5 0  0.3085786354405169 0.539052420852953 0  0.2109475791470474 0.6914213645594836 0  0.3052284749830794 0.6523689270621825 0  0.2119489233974352 0.6923976669666885 0  0.2890524208529492 0.6914213645594871 0  0.2119238815542517 0.6924142169837035 0  0.2880510766025649 0.6923976669666885 0  0.2352116395368015 0.75 0  0.2880761184457482 0.6924142169837035 0  0.2119238815542528 0.8075857830162958 0  0.2880761184457472 0.8075857830162957 0  0.2119489233974378 0.807602333033312 0  0.2880510766025622 0.807602333033312 0  0.2109475791470511 0.8085786354405127 0  0.289052420852949 0.8085786354405129 0  0.3052284749830794 0.8476310729378175 0  0.4609475791470503 0.4414213645594865 0  0.5552284749830794 0.4023689270621825 0  0.4619489233974352 0.4423976669666885 0  0.5390524208529517 0.4414213645594846 0  0.4619238815542518 0.4424142169837035 0  0.5380510766025648 0.4423976669666885 0  0.4852116395368015 0.5 0  0.5380761184457481 0.4424142169837035 0  0.4619238815542528 0.5575857830162957 0  0.5380761184457472 0.5575857830162957 0  0.4619489233974378 0.557602333033312 0  0.5380510766025622 0.557602333033312 0  0.460947579147051 0.5585786354405128 0  0.5390524208529492 0.5585786354405129 0  0.5552284749830794 0.5976310729378175 0  0.6914213645594869 0.4609475791470506 0  0.6923976669666869 0.461948923397436 0  0.6914213645615341 0.5390524208509022 0  0.6924142169837042 0.4619238815542528 0  0.6923976669666869 0.5380510766025639 0  0.8075857830162965 0.4619238815542518 0  0.6924142169837043 0.5380761184457472 0  0.8076023330333121 0.4619489233974368 0  0.8075857830162958 0.5380761184457473 0  0.8085786354318349 0.4609475791557289 0  0.8076023330333121 0.5380510766025632 0  0.9028595479208968 0.5 0  0.8085786354405149 0.5390524208529512 0  0.4414213645594893 0.7109475791470532 0  0.4423976669666869 0.7119489233974361 0  0.4414213645594843 0.7890524208529519 0  0.4424142169837043 0.7119238815542528 0  0.4423976669666869 0.7880510766025641 0  0.5575857830162965 0.7119238815542519 0  0.4424142169837043 0.7880761184457472 0  0.5576023330333121 0.7119489233974368 0  0.5575857830162958 0.7880761184457473 0  0.5585786354397329 0.7109475791478308 0  0.5576023330333121 0.7880510766025632 0  0.6528595479208968 0.75 0  0.5585786354405149 0.7890524208529512 0  0.710947579149098 0.6914213645615341 0  0.8052284749830794 0.6523689270621825 0  0.7119489233974352 0.6923976669666885 0  0.7890524208529492 0.6914213645594871 0  0.7119238815542518 0.6924142169837035 0  0.7880510766025648 0.6923976669666885 0  0.7352116395368016 0.75 0  0.7880761184457481 0.6924142169837035 0  0.7119238815542528 0.8075857830162958 0  0.7880761184457472 0.8075857830162957 0  0.7119489233974378 0.807602333033312 0  0.7880510766025622 0.807602333033312 0  0.7109475791470496 0.808578635440514 0  0.7890524208529492 0.8085786354405129 0  0.8052284749830794 0.8476310729378175 0  0.929983173616129 0.797829257115436 0  0.9166631170642728 0.8033466079628383 0  0.9023689349108194 0.8052284749830788 0  0.8880747522224941 0.803346612025592 0  0.8747546941024734 0.7978292649640734 0  0.8633165006624797 0.7890524319505509 0  0.8545396660231512 0.7776142397580817 0  0.8490223170683415 0.7642941824222879 0  0.8471404520791032 0.7500000000014476 0  0.8490223170675921 0.7357058175805088 0  0.8545396660217035 0.7223857602444257 0  0.8633165006604323 0.7109475680514964 0  0.8747546940999661 0.7021707350373743 0  0.8880747522196976 0.6966533879751573 0  0.902368934907924 0.6947715250169212 0  0.9166631170614762 0.6966533920364123 0  0.9299831736136216 0.7021707428831164 0  0.07001682638623824 0.2021707428831974 0  0.08333688293821212 0.1966533920364958 0  0.0976310650915926 0.1947715250169212 0  0.1119252477796804 0.1966533879749906 0  0.125245305899337 0.2021707350369718 0  0.136683499338885 0.2109475680508137 0  0.1454603339777333 0.2223857602434503 0  0.1509776829320748 0.2357058175792657 0  0.1509776829320748 0.264294182420734 0  0.1454603339777335 0.2776142397565493 0  0.1366834993388854 0.2890524319491858 0  0.1252453058993377 0.2978292649630277 0  0.1119252477796813 0.3033466120250091 0  0.09763106509159368 0.3052284749830788 0  0.08333688293821334 0.3033466079635044 0  0.07001682638623936 0.2978292571168032 0  0.01268431543055292 0.2657651877828237 0  0.02506950048564634 0.2686726335183826 0  0.03686347909101759 0.2734421322562138 0  0.04778811741534545 0.27996120634973 0  0 0.3334151034764524 0  0 0.3196897548738016 0  0 0.3059644062711508 0  0 0.2922390576685001 0  0 0.2785137090658493 0  0.01429418115758901 0.3490223167294665 0  0.02761423749153967 0.3545396647145624 0  0.03905242917512698 0.3633164978870555 0  0.04782926234762003 0.3747546895706428 0  0.05334661033271604 0.3880747459045935 0  0.05334660931734009 0.4166631120092057 0  0.04782925842450866 0.4299831713487493 0  0.029154906231913 0.5466254179972424 0  0.02222641833679384 0.5343082071034427 0  0.01749228062504768 0.5209925933796457 0  0.01509026119614865 0.5070660743824827 0  0.01509026119614876 0.492933925617516 0  0.017492280625048 0.4790074066203531 0  0.02222641833679433 0.4656917928965562 0  0.02915490623191368 0.4533745820027567 0  0.04782925841596472 0.5700168286364521 0  0.05334660931512877 0.5833368879825415 0  0.05334661033271607 0.6119252540954065 0  0.04782926234762011 0.625245310429357 0  0.03905242917512711 0.6366835021129444 0  0.02761423749153983 0.6454603352854374 0  0.01429418115758916 0
[...]
<PointData  Tensors="$\sigma$"> 
<DataArray  type="Float64"  Name="$\sigma$"  NumberOfComponents="9" format="ascii">-6.9879778418459613e+06 -3.8442240339597561e+06 0.0000000000000000e+00 -3.8442240339597561e+06 -2.0472455437056618e+06 0.0000000000000000e+00 0.0000000000000000e+00 0.0000000000000000e+00 0.0000000000000000e+00  2.6560885438989910e+04 -3.6682425772572486e+06 0.0000000000000000e+00 -3.6682425772572486e+06 -5.7875039592411388e+06 0.0000000000000000e+00 0.0000000000000000e+00 0.0000000000000000e+00 0.0000000000000000e+00  -5.3768692205652792e+05 -1.5681083147802604e+06 0.0000000000000000e+00 -1.5681083147802604e+06 -9.4195613861169911e+05 0.0000000000000000e+00 0.0000000000000000e+00 0.0000000000000000e+00 0.0000000000000000e+00  3.0763883607942495e+06 -1.3364341669062073e+06 0.0000000000000000e+00 -1.3364341669062073e+06 3.6519123066734080e+06 0.0000000000000000e+00 0.0000000000000000e+00 0.0000000000000000e+00 0.0000000000000000e+00  1.8575976911940898e+06 -1.0439682612308824e+06 0.0000000000000000e+00 -1.0439682612308824e+06 3.1304499092673481e+05 0.0000000000000000e+00 0.0000000000000000e+00 0.0000000000000000e+00 0.0000000000000000e+00  -3.3758035220485870e+06 -1.7358251328446451e+06 0.0000000000000000e+00 -1.7358251328446451e+06 -7.8912601692179265e+05 0.0000000000000000e+00 0.0000000000000000e+00 0.0000000000000000e+00 0.0000000000000000e+00  1.1112893904402808e+06 -1.1274372109516209e+06 0.0000000000000000e+00 -1.1274372109516209e+06 6.4022857259768713e+05 0.0000000000000000e+00 0.0000000000000000e+00 0.0000000000000000e+00 0.0000000000000000e+00  7.2757903645646777e+06 -5.8993300225351462e+06 0.0000000000000000e+00 -5.8993300225351462e+06 4.1806771987786838e+06 0.0000000000000000e+00 0.0000000000000000e+00 0.0000000000000000e+00 0.0000000000000000e+00  -2.4797625704313833e+06 1.3617028960340286e+06 0.0000000000000000e+00 1.3617028960340286e+06 1.1084599409515967e+06 0.0000000000000000e+00 0.0000000000000000e+00 0.0000000000000000e+00 0.0000000000000000e+00  4.0529103640257396e+07 -3.0991896156138219e+07 0.0000000000000000e+00 -3.0991896156138219e+07 4.3406430090371275e+08 0.0000000000000000e+00 0.0000000000000000e+00 0.0000000000000000e+00 0.0000000000000000e+00  -4.6885618969784984e+06 -4.4205592064200155e+06 0.0000000000000000e+00 -4.4205592064200155e+06 -3.5064575396511834e+06 0.0000000000000000e+00 0.0000000000000000e+00 0.0000000000000000e+00 0.0000000000000000e+00  -9.5811352025906672e+05 -2.2440979053267902e+06 0.0000000000000000e+00 -2.2440979053267902e+06 -3.8992667008281639e+06 0.0000000000000000e+00 0.0000000000000000e+00 0.0000000000000000e+00 0.0000000000000000e+00  -3.1960605901492047e+06 -1.9651780957913005e+06 0.0000000000000000e+00 -1.9651780957913005e+06 -7.3427328452628397e+05 0.0000000000000000e+00 0.0000000000000000e+00 0.0000000000000000e+00 0.0000000000000000e+00  3.7085565781152342e+04 2.8913896736460479e+03 0.0000000000000000e+00 2.8913896736460479e+03 1.4484598713004731e+04 0.0000000000000000e+00 0.0000000000000000e+00 0.0000000000000000e+00 0.0000000000000000e+00  -2.4829374261789530e+05 -2.1484550596599397e+05 0.0000000000000000e+00 -2.1484550596599397e+05 -3.3452113311004848e+05 0.0000000000000000e+00 0.0000000000000000e+00 0.0000000000000000e+00 0.0000000000000000e+00  5.9955077936582752e+06 -3.1144510272418638e+06 0.0000000000000000e+00 -3.1144510272418638e+06 1.1924461411331189e+08 0.0000000000000000e+00 0.0000000000000000e+00 0.0000000000000000e+00 0.0000000000000000e+00  -4.8053973906373322e+07 5.2650300090641499e+07 0.0000000000000000e+00 5.2650300090641499e+07 -3.6925544922688834e+07 0.0000000000000000e+00 0.0000000000000000e+00 0.0000000000000000e+00 0.0000000000000000e+00  -8.9259996015981808e+07 7.2576631603790656e+07 0.0000000000000000e+00 7.2576631603790656e+07 -7.8281906408363223e+07 0.0000000000000000e+00 0.0000000000000000e+00 0.0000000000000000e+00 0.0000000000000000e+00  -3.5606865358638093e+07 5.6532938626695074e+07 0.0000000000000000e+00 5.6532938626695074e+07 -6.9946567237530261e+07 0.0000000000000000e+00 0.0000000000000000e+00 0.0000000000000000e+00 0.0000000000000000e+00  -4.5610692360392921e+07 -5.7782985675601289e+07 0.0000000000000000e+00 -5.7782985675601289e+07 -6.0491594316218197e+07 0.0000000000000000e+00 0.0000000000000000e+00 0.0000000000000000e+00 0.0000000000000000e+00  -8.8744598326931238e+07 -8.2585765644947901e+07 0.0000000000000000e+00 -8.2585765644947901e+07 -9.4397039637648329e+07 0.0000000000000000e+00 0.0000000000000000e+00 0.0000000000000000e+00 0.0000000000000000e+00  -5.3816098074901879e+07 -5.3811983924593538e+07 0.0000000000000000e+00 -5.3811983924593538e+07 -4.1507428833608523e+07 0.0000000000000000e+00 0.0000000000000000e+00 0.0000000000000000e+00 0.0000000000000000e+00  7.0997818317808267e+06 1.9673054930089680e+06 0.0000000000000000e+00 1.9673054930089680e+06 1.1826674584741752e+08 0.0000000000000000e+00 0.0000000000000000e+00 0.0000000000000000e+00 0.0000000000000000e+00  -3.1652316299381177e+05 2.8793414272747177e+05 0.0000000000000000e+00 2.8793414272747177e+05 -3.2207487297472690e+05 0.0000000000000000e+00 0.0000000000000000e+00 0.0000000000000000e+00 0.0000000000000000e+00  3.5535408752485571e+04 -1.3565562379484916e+03 0.0000000000000000e+00 -1.3565562379484916e+03 1.2406603965006731e+04 0.0000000000000000e+00 0.0000000000000000e+00 0.0000000000000000e+00 0.0000000000000000e+00  -3.1802761652414040e+06 1.9382835038793217e+06 0.0000000000000000e+00 1.9382835038793217e+06 -7.0431418685138307e+05 0.0000000000000000e+00 0.0000000000000000e+00 0.0000000000000000e+00 0.0000000000000000e+00  -7.5289524659167684e+05 2.3895572100476562e+06 0.0000000000000000e+00 2.3895572100476562e+06 -3.9318005207037469e+06 0.0000000000000000e+00 0.0000000000000000e+00 0.0000000000000000e+00 0.0000000000000000e+00  -4.8531919089899333e+06 4.1002454639633526e+06 0.0000000000000000e+00 4.1002454639633526e+06 -3.3310214235168090e+06 0.0000000000000000e+00 0.0000000000000000e+00 0.0000000000000000e+00 0.0000000000000000e+00  3.3278123630714595e+07 2.5891162775036149e+07 0.0000000000000000e+00 2.5891162775036149e+07 4.3615456519867378e+08 0.0000000000000000e+00 0.0000000000000000e+00 0.0000000000000000e+00 0.0000000000000000e+00  -3.7140808399880752e+06 -7.7414727475983324e+05 0.0000000000000000e+00 -7.7414727475983324e+05 -2.7933449192384360e+04 0.0000000000000000e+00 0.0000000000000000e+00 0.0000000000000000e+00 0.0000000000000000e+00  7.9963015824426236e+06 5.5108182379457708e+06 0.0000000000000000e+00 5.5108182379457708e+06 4.8854414373194668e+06 0.0000000000000000e+00 0.0000000000000000e+00 0.0000000000000000e+00 0.0000000000000000e+00  1.3454890587944556e+06 1.0707938448850939e+06 0.0000000000000000e+00 1.0707938448850939e+06 7.9434639886006783e+05 0.0000000000000000e+00 0.0000000000000000e+00 0.0000000000000000e+00 0.0000000000000000e+00  2.3242421343090014e+03 -8.9011980542908481e+04 0.0000000000000000e+00 -8.9011980542908481e+04 1.5662132267686477e+05 0.0000000000000000e+00 0.0000000000000000e+00 0.0000000000000000e+00 0.0000000000000000e+00  -1.7843478346549271e+05 6.1962330916068715e+05 0.0000000000000000e+00 6.1962330916068715e+05 -5.9003546242648304e+07 0.0000000000000000e+00 0.0000000000000000e+00 0.0000000000000000e+00 0.0000000000000000e+00  -3.4651498937386274e+05 -5.4266053266219189e+05 0.0000000000000000e+00 -5.4266053266219189e+05 -5.9658967088581219e+07 0.0000000000000000e+00 0.0000000000000000e+00 0.0000000000000000e+00 0.0000000000000000e+00  2.7513315022675462e+04 8.6707085884961052e+04 0.0000000000000000e+00 8.6707085884961052e+04 1.4017632786770075e+05 0.0000000000000000e+00 0.0000000000000000e+00 0.0000000000000000e+00 0.0000000000000000e+00  3.9486092608842890e+04 6.8774842899588393e+03 0.0000000000000000e+00 6.8774842899588393e+03 9.6537836905141521e+03 0.0000000000000000e+00 0.0000000000000000e+00 0.0000000000000000e+00 0.0000000000000000e+00  -3.5766509275699896e+05 -3.9443812164843071e+05 0.0000000000000000e+00 -3.9443812164843071e+05 -5.9836025764480559e+05 0.0000000000000000e+00 0.0000000000000000e+00 0.0000000000000000e+00 0.0000000000000000e+00  -5.2840603076180078e+07 4.9545132523571208e+07 0.0000000000000000e+00 4.9545132523571208e+07 -3.4151906137225874e+07 0.0000000000000000e+00 0.0000000000000000e+00 0.0000000000000000e+00 0.0000000000000000e+00  -9.0941620420619309e+07 8.6141264302095681e+07 0.0000000000000000e+00 8.6141264302095681e+07 -9.5686982767543718e+07 0.0000000000000000e+00 0.0000000000000000e+00 0.0000000000000000e+00 0.0000000000000000e+00  -4.2258492752638869e+07 5.5905573917393140e+07 0.0000000000000000e+00 5.5905573917393140e+07 -6.4960696500145957e+07 0.0000000000000000e+00 0.0000000000000000e+00 0.0000000000000000e+00 0.0000000000000000e+00  5.3895153940618085e+06 -8.2121737283032481e+05 0.0000000000000000e+00 -8.2121737283032481e+05 -1.0159914237403287e+08 0.0000000000000000e+00 0.0000000000000000e+00 0.0000000000000000e+00 0.0000000000000000e+00  -3.7293574698062427e+07 -5.9586116933259986e+07 0.0000000000000000e+00 -5.9586116933259986e+07 -6.9543249861643761e+07 0.0000000000000000e+00 0.0000000000000000e+00 0.0000000000000000e+00 0.0000000000000000e+00  -1.0001637992489375e+08 -7.6339449662189245e+07 0.0000000000000000e+00 -7.6339449662189245e+07 -8.3473816285117343e+07 0.0000000000000000e+00 0.0000000000000000e+00 0.0000000000000000e+00 0.0000000000000000e+00  -4.4519803444529980e+07 -5.6687250865278721e+07 0.0000000000000000e+00 -5.6687250865278721e+07 -4.3506483980266832e+07 0.0000000000000000e+00 0.0000000000000000e+00 0.0000000000000000e+00 0.0000000000000000e+00  -3.3287077427591488e+05 2.6989319100062875e+05 0.0000000000000000e+00 2.6989319100062875e+05 -3.1341469845531468e+05 0.0000000000000000e+00 0.0000000000000000e+00 0.0000000000000000e+00 0.0000000000000000e+00  3.2762024511183139e+04 1.3303862006675508e+03 0.0000000000000000e+00 1.3303862006675508e+03 9.4377984368424422e+03 0.0000000000000000e+00 0.0000000000000000e+00 0.0000000000000000e+00 0.0000000000000000e+00  -3.4055285084542092e+06 2.2397117642597733e+06 0.0000000000000000e+00 2.2397117642597733e+06 -1.1710165697831991e+06 0.0000000000000000e+00 0.0000000000000000e+00 0.0000000000000000e+00 0.0000000000000000e+00  -9.6129240716601652e+05 2.3948287827045550e+06 0.0000000000000000e+00 2.3948287827045550e+06 -3.5776924913398353e+06 0.0000000000000000e+00 0.0000000000000000e+00 0.0000000000000000e+00 0.0000000000000000e+00  -4.9086054718964389e+06 4.2900980493857134e+06 0.0000000000000000e+00 4.2900980493857134e+06 -3.7058927800993728e+06 0.0000000000000000e+00 0.0000000000000000e+00 0.0000000000000000e+00 0.0000000000000000e+00  -5.3588193422335386e+05 1.5690322450475369e+06 0.0000000000000000e+00 1.5690322450475369e+06 -9.4044316772274929e+05 0.0000000000000000e+00 0.0000000000000000e+00 0.0000000000000000e+00 0.0000000000000000e+00  3.0771275364891766e+06 1.3382778563282059e+06 0.0000000000000000e+00 1.3382778563282059e+06 3.6539674965598108e+06 0.0000000000000000e+00 0.0000000000000000e+00 0.0000000000000000e+00 0.0000000000000000e+00  1.8588765770632047e+06 1.0447211226912341e+06 0.0000000000000000e+00 1.0447211226912341e+06 3.1339141581664665e+05 0.0000000000000000e+00 0.0000000000000000e+00 0.0000000000000000e+00 0.0000000000000000e+00  2.7484108070656563e+04 -8.6709753491961223e+04 0.0000000000000000e+00 -8.6709753491961223e+04 1.4017045841944212e+05 0.0000000000000000e+00 0.0000000000000000e+00 0.0000000000000000e+00 0.0000000000000000e+00  -3.6772975963074807e+05 5.3764783778069075e+05 0.0000000000000000e+00 5.3764783778069075e+05 -5.9657940927307725e+07 0.0000000000000000e+00 0.0000000000000000e+00 0.0000000000000000e+00 0.0000000000000000e+00  -1.2265143304633131e+07 -2.8717087965953490e+06 0.0000000000000000e+00 -2.8717087965953490e+06 -5.9888301857059292e+07 0.0000000000000000e+00 0.0000000000000000e+00 0.0000000000000000e+00 0.0000000000000000e+00  5.6029227243164314e+03 9.0885496990717729e+04 0.0000000000000000e+00 9.0885496990717729e+04 1.4968399705996618e+05 0.0000000000000000e+00 0.0000000000000000e+00 0.0000000000000000e+00 0.0000000000000000e+00  7.0145601502444185e+06 2.7688298083406489e+07 0.0000000000000000e+00 2.7688298083406489e+07 5.9401036380493462e+07 0.0000000000000000e+00 0.0000000000000000e+00 0.0000000000000000e+00 0.0000000000000000e+00  8.9454042175021376e+06 -1.5892824282532409e+06 0.0000000000000000e+00 -1.5892824282532409e+06 2.9894330872539103e+08 0.0000000000000000e+00 0.0000000000000000e+00 0.0000000000000000e+00 0.0000000000000000e+00  -1.9479939745108347e+07 -3.1852802846102551e+07 0.0000000000000000e+00 -3.1852802846102551e+07 -5.7445129480347849e+07 0.0000000000000000e+00 0.0000000000000000e+00 0.0000000000000000e+00 0.0000000000000000e+00  -5.8465745032921759e+06 -6.8379118109440350e+05 0.0000000000000000e+00 -6.8379118109440350e+05 2.1752024202423953e+07 0.0000000000000000e+00 0.0000000000000000e+00 0.0000000000000000e+00 0.0000000000000000e+00  -4.4240898802223271e+06 -1.0039557344526868e+07 0.0000000000000000e+00 -1.0039557344526868e+07 -1.2353815501450606e+07 0.0000000000000000e+00 0.0000000000000000e+00 0.0000000000000000e+00 0.0000000000000000e+00  -3.4463195367640682e+07 3.2210650305582713e+07 0.0000000000000000e+00 3.2210650305582713e+07 -5.0888088339626275e+07 0.0000000000000000e+00 0.0000000000000000e+00 0.0000000000000000e+00 0.0000000000000000e+00  5.1173789270413965e+06 -8.6654005528299336e+05 0.0000000000000000e+00 -8.6654005528299336e+05 -7.8902254130347654e+07 0.0000000000000000e+00 0.0000000000000000e+00 0.0000000000000000e+00 0.0000000000000000e+00  -1.2931715511478737e+07 2.4328110151051488e+07 0.0000000000000000e+00 2.4328110151051488e+07 -2.5621272614306476e+07 0.0000000000000000e+00 0.0000000000000000e+00 0.0000000000000000e+00 0.0000000000000000e+00  -4.8982032873596102e+07 6.9042760301547334e+07 0.0000000000000000e+00 6.9042760301547334e+07 -8.6009505476634994e+07 0.0000000000000000e+00 0.0000000000000000e+00 0.0000000000000000e+00 0.0000000000000000e+00  -2.5426442359964047e+07 -5.0812924725948088e+07 0.0000000000000000e+00 -5.0812924725948088e+07 -8.2676772026438206e+07 0.0000000000000000e+00 0.0000000000000000e+00 0.0000000000000000e+00 0.0000000000000000e+00  -1.0753285958999519e+08 8.8794609798071235e+07 0.0000000000000000e+00 8.8794609798071235e+07 -8.6928868120723307e+07 0.0000000000000000e+00 0.0000000000000000e+00 0.0000000000000000e+00 0.0000000000000000e+00  -8.9750371217328027e+07 -6.8280175886382759e+07 0.0000000000000000e+00 -6.8280175886382759e+07 -5.5913531139356442e+07 0.0000000000000000e+00 0.0000000000000000e+00 0.0000000000000000e+00 0.0000000000000000e+00  -7.3486455202012703e+07 8.2805933074851513e+07 0.0000000000000000e+00 8.2805933074851513e+07 -7.4114301850937739e+07 0.0000000000000000e+00 0.0000000000000000e+00 0.0000000000000000e+00 0.0000000000000000e+00  -4.1775774588128090e+07 -4.6630394612016335e+07 0.0000000000000000e+00 -4.6630394612016335e+07 -3.5494555310676314e+07 0.0000000000000000e+00 0.0000000000000000e+00 0.0000000000000000e+00 0.0000000000000000e+00  9.6296627437764183e+06 -6.9681030202632183e+06 0.0000000000000000e+00 -6.9681030202632183e+06 1.3509363320368949e+08 0.0000000000000000e+00 0.0000000000000000e+00 0.0000000000000000e+00 0.0000000000000000e+00  -2.8603242512454767e+07 -2.9772807235646356e+07 0.0000000000000000e+00 -2.9772807235646356e+07 -2.5639479474103656e+07 0.0000000000000000e+00 0.0000000000000000e+00 0.0000000000000000e+00 0.0000000000000000e+00  -1.6326921297865074e+07 -1.3959886152962947e+07 0.0000000000000000e+00 -1.3959886152962947e+07 -2.2112765652141508e+07 0.0000000000000000e+00 0.0000000000000000e+00 0.0000000000000000e+00 0.0000000000000000e+00  -1.0835880294151798e+08 9.6826323066243976e+07 0.0000000000000000e+00 9.6826323066243976e+07 -7.2606644141006723e+07 0.0000000000000000e+00 0.0000000000000000e+00 0.0000000000000000e+00 0.0000000000000000e+00  -1.2803517178999670e+07 -1.4270717360648351e+07 0.0000000000000000e+00 -1.4270717360648351e+07 -7.2248307637284510e+06 0.0000000000000000e+00 0.0000000000000000e+00 0.0000000000000000e+00 0.0000000000000000e+00  -5.2923633765699640e+07 7.7870845457816154e+07 0.0000000000000000e+00 7.7870845457816154e+07 -1.0863603966851696e+08 0.0000000000000000e+00 0.0000000000000000e+00 0.0000000000000000e+00 0.0000000000000000e+00  -1.8305891222107876e+07 1.4269551873757817e+07 0.0000000000000000e+00 1.4269551873757817e+07 -9.6423147031454388e+06 0.0000000000000000e+00 0.0000000000000000e+00 0.0000000000000000e+00 0.0000000000000000e+00  -8.3633911166778594e+07 6.0470029190170661e+07 0.0000000000000000e+00 6.0470029190170661e+07 -4.1779520308969386e+07 0.0000000000000000e+00 0.0000000000000000e+00 0.0000000000000000e+00 0.0000000000000000e+00  -4.6105469049597448e+06 1.2572983486854039e+07 0.0000000000000000e+00 1.2572983486854039e+07 -2.2827515471451860e+07 0.0000000000000000e+00 0.0000000000000000e+00 0.0000000000000000e+00 0.0000000000000000e+00  -8.5852603512616396e+07 -6.5665849213280603e+07 0.0000000000000000e+00 -6.5665849213280603e+07 -4.4687164930628985e+07 0.0000000000000000e+00 0.0000000000000000e+00 0.0000000000000000e+00 0.0000000000000000e+00  -3.1696454930451050e+07 2.5509869895006467e+07 0.0000000000000000e+00 2.5509869895006467e+07 -1.6281703706286158e+07 0.0000000000000000e+00 0.0000000000000000e+00 0.0000000000000000e+00 0.0000000000000000e+00  -4.2753024460875727e+07 -6.6760108104495175e+07 0.0000000000000000e+00 -6.6760108104495175e+07 -9.9529488863883898e+07 0.0000000000000000e+00 0.0000000000000000e+00 0.0000000000000000e+00 0.0000000000000000e+00  2.2930589003537163e+07 -1.6389120027402014e+07 0.0000000000000000e+00 -1.6389120027402014e+07 4.8072756444824553e+08 0.0000000000000000e+00 0.0000000000000000e+00 0.0000000000000000e+00 0.0000000000000000e+00  -1.0972869744576363e+08 -9.5966629453915954e+07 0.0000000000000000e+00 -9.5966629453915954e+07 -7.0747519730193183e+07 0.0000000000000000e+00 0.0000000000000000e+00 0.0000000000000000e+00 0.0000000000000000e+00  -9.7546425031938609e+06 -1.7869739970355732e+06 0.0000000000000000e+00 -1.7869739970355732e+06 3.1070362233088449e+07 0.0000000000000000e+00 0.0000000000000000e+00 0.0000000000000000e+00 0.0000000000000000e+00  2.2437702088252909e+07 3.4700396090352619e+06 0.0000000000000000e+00 3.4700396090352619e+06 3.7819679641228491e+08 0.0000000000000000e+00 0.0000000000000000e+00 0.0000000000000000e+00 0.0000000000000000e+00  -4.4737697965009898e+07 -4.1666033464595176e+07 0.0000000000000000e+00 -4.1666033464595176e+07 -4.7105607479961000e+07 0.0000000000000000e+00 0.0000000000000000e+00 0.0000000000000000e+00 0.0000000000000000e+00  1.0229623423915774e+07 -2.6074894519590106e+07 0.0000000000000000e+00 -2.6074894519590106e+07 4.8246348665405810e+07 0.0000000000000000e+00 0.0000000000000000e+00 0.0000000000000000e+00 0.0000000000000000e+00  -1.0737200773183156e+07 -2.4503102192870989e+07 0.0000000000000000e+00 -2.4503102192870989e+07 -5.4611050280470267e+07 0.0000000000000000e+00 0.0000000000000000e+00 0.0000000000000000e+00 0.0000000000000000e+00  -2.6408581540658422e+07 3.7515426615759365e+07 0.0000000000000000e+00 3.7515426615759365e+07 -6.4534146569323421e+07 0.0000000000000000e+00 0.0000000000000000e+00 0.0000000000000000e+00 0.0000000000000000e+00  5.9911515892772330e+06 2.3565657016557320e+06 0.0000000000000000e+00 2.3565657016557320e+06 -7.8532300451854318e+07 0.0000000000000000e+00 0.0000000000000000e+00 0.0000000000000000e+00 0.0000000000000000e+00  -7.7949396715724142e+06 1.0835725733065611e+07 0.0000000000000000e+00 1.0835725733065611e+07 -3.0134276233039633e+06 0.0000000000000000e+00 0.0000000000000000e+00 0.0000000000000000e+00 0.0000000000000000e+00  -3.2278706226099346e+07 4.9048752211110383e+07 0.0000000000000000e+00 4.9048752211110383e+07 -5.6638180241166838e+07 0.0000000000000000e+00 0.0000000000000000e+00 0.0000000000000000e+00 0.0000000000000000e+00  -3.6791503413262390e+07 -6.9465889946311697e+07 0.0000000000000000e+00 -6.9465889946311697e+07 -1.102267390