<?xml version="1.0"?>
<VTKFile type="UnstructuredGrid"  version="0.1"  >
<UnstructuredGrid>
<Piece  NumberOfPoints="5224" NumberOfCells="9280">
<Points>
<DataArray  type="Float64"  NumberOfComponents="3"  format="ascii">0.9862045838834903 0.5990234874416556 0  0.9861751739971002 0.5990294920695234 0  0.9861928812542302 0.5976310729378175 0  0.9309644062711477 0.6528595479208967 0  0.9323628254028569 0.6528418406637668 0  0.9323568207749873 0.6528712505501573 0  0.06764317922501246 0.3471287494498427 0  0.06763717459714147 0.3471581593362345 0  0.06903559372884978 0.3471404520791032 0  0.1242640687119285 0.4023689270621825 0  0.01380711874576983 0.4023689270621825 0  0.01382482600289935 0.4009705079304756 0  0.01379541611650921 0.4009765125583467 0  5.204170427930421e-16 0.3565758947465831 0  -5.065392549852277e-16 0.6434241052534169 0  0.06764317922501245 0.680462082783176 0  0.06763717459714146 0.6804914926695678 0  0.06903559372884882 0.6804737854124365 0  0.1242640687119285 0.7357022603955158 0  0.01380711874576983 0.7357022603955158 0  0.01382482600289935 0.7343038412638089 0  0.01379541611650921 0.7343098458916799 0  5.204170427930421e-16 0.6899092280799164 0  0 1 0  1 1 0  1 0.6899092280799163 0  1 0.6434241052534201 0  1 0.3565758947465831 0  0.9323568207749873 0.319537917216824 0  0.9323628254028569 0.3195085073304336 0  0.9309644062711507 0.3195262145875636 0  0.9861928812542302 0.2642977396044842 0  0.9861751739970996 0.2656961587361928 0  0.9862045838834903 0.2656901541083223 0  1 0.3100907719200869 0  1 0 0  0 0 0  -5.065392549852277e-16 0.3100907719200836 0  0.1528418406637658 0.2343038412638082 0  0.1528595479208969 0.2357022603955159 0  0.1528712505501572 0.2343098458916778 0  0.09763107293781424 0.1804737854124365 0  0.2343098458916792 0.1528712505501573 0  0.09902949206952522 0.1804914926695678 0  0.2343038412638098 0.1528418406637668 0  0.09902348744165401 0.180462082783176 0  0.2357022603955128 0.1528595479208968 0  0.1804620827831759 0.0990234874416534 0  0.2909307353785952 0.0976310729378175 0  0.1804914926695665 0.09902949206952372 0  0.1804737854124365 0.09763107293781752 0  0.4023689270621832 0.3471404520791032 0  0.4575974020452619 0.4023689270621825 0  0.4009705079304748 0.3471581593362345 0  0.3471404520791032 0.4023689270621825 0  0.4009765125583458 0.3471287494498427 0  0.3471581593362327 0.4009705079304756 0  0.3195379172168238 0.2656901541083223 0  0.3471287494498426 0.4009765125583467 0  0.3195085073304329 0.2656961587361928 0  0.2656901541083207 0.319537917216824 0  0.3195262145875636 0.2642977396044842 0  0.2656961587361902 0.3195085073304336 0  0.2642977396044841 0.3195262145875636 0  0.4861751739970991 0.2343038412638082 0  0.4861928812542302 0.2357022603955159 0  0.4862045838834904 0.2343098458916778 0  0.4309644062711476 0.1804737854124365 0  0.5676431792250125 0.1528712505501573 0  0.4323628254028585 0.1804914926695678 0  0.5676371745971431 0.1528418406637668 0  0.4323568207749873 0.180462082783176 0  0.569035593728846 0.1528595479208968 0  0.5137954161165093 0.09902348744165342 0  0.6242640687119285 0.0976310729378175 0  0.5138248260028998 0.09902949206952373 0  0.5138071187457699 0.09763107293781752 0  0.8195085073304323 0.2343038412638082 0  0.8195262145875635 0.2357022603955159 0  0.8195379172168236 0.2343098458916778 0  0.7642977396044808 0.1804737854124365 0  0.9009765125583458 0.1528712505501573 0  0.7656961587361918 0.1804914926695678 0  0.9009705079304764 0.1528418406637668 0  0.7656901541083205 0.180462082783176 0  0.9023689270621793 0.1528595479208968 0  0.8471287494498425 0.0990234874416534 0  0.9575974020452618 0.0976310729378175 0  0.8471581593362331 0.09902949206952373 0  0.8471404520791032 0.09763107293781752 0  0.7357022603955163 0.3471404520791032 0  0.7909307353785952 0.4023689270621825 0  0.7343038412638081 0.3471581593362345 0  0.6804737854124365 0.4023689270621825 0  0.734309845891679 0.3471287494498427 0  0.680491492669566 0.4009705079304756 0  0.652871250550157 0.2656901541083223 0  0.680462082783176 0.4009765125583467 0  0.6528418406637662 0.2656961587361928 0  0.599023487441654 0.319537917216824 0  0.6528595479208968 0.2642977396044842 0  0.5990294920695235 0.3195085073304336 0  0.5976310729378174 0.3195262145875636 0  0.1528418406637658 0.5676371745971416 0  0.1528595479208969 0.5690355937288492 0  0.1528712505501572 0.5676431792250112 0  0.09763107293781728 0.5138071187457698 0  0.2343098458916792 0.4862045838834906 0  0.09902949206952522 0.5138248260029011 0  0.2343038412638098 0.4861751739971002 0  0.099023487441654 0.5137954161165093 0  0.2357022603955163 0.4861928812542302 0  0.1804620827831759 0.4323568207749867 0  0.2909307353785952 0.4309644062711508 0  0.1804914926695665 0.432362825402857 0  0.1804737854124365 0.4309644062711508 0  0.4023689270621822 0.6804737854124365 0  0.4575974020452619 0.7357022603955158 0  0.4009705079304748 0.6804914926695678 0  0.3471404520791032 0.7357022603955158 0  0.4009765125583458 0.680462082783176 0  0.3471581593362327 0.7343038412638089 0  0.3195379172168238 0.5990234874416556 0  0.3471287494498426 0.7343098458916799 0  0.3195085073304336 0.5990294920695234 0  0.2656901541083207 0.6528712505501573 0  0.3195262145875636 0.5976310729378175 0  0.2656961587361902 0.6528418406637668 0  0.2642977396044812 0.6528595479208967 0  0.1528418406637658 0.9009705079304748 0  0.1528595479208969 0.9023689270621824 0  0.1528712505501572 0.9009765125583444 0  0.09763107293781728 0.847140452079103 0  0.2343098458916792 0.8195379172168239 0  0.09902949206952522 0.8471581593362344 0  0.2343038412638098 0.8195085073304335 0  0.099023487441654 0.8471287494498425 0  0.2357022603955162 0.8195262145875635 0  0.1804620827831759 0.76569015410832 0  0.2909307353785952 0.7642977396044841 0  0.1804914926695665 0.7656961587361903 0  0.1804737854124365 0.7642977396044841 0  0.4861751739970991 0.5676371745971416 0  0.4861928812542302 0.5690355937288492 0  0.4862045838834904 0.5676431792250112 0  0.4309644062711506 0.5138071187457698 0  0.5676431792250125 0.4862045838834906 0  0.4323628254028585 0.5138248260029011 0  0.5676371745971431 0.4861751739971002 0  0.4323568207749873 0.5137954161165093 0  0.5690355937288496 0.4861928812542302 0  0.5137954161165093 0.4323568207749867 0  0.6242640687119285 0.4309644062711508 0  0.5138248260028999 0.4323628254028571 0  0.5138071187457699 0.4309644062711508 0  0.7357022603955155 0.6804737854124365 0  0.7909307353785952 0.7357022603955158 0  0.7343038412638081 0.6804914926695678 0  0.6804737854124365 0.7357022603955158 0  0.734309845891679 0.680462082783176 0  0.680491492669566 0.7343038412638089 0  0.652871250550157 0.5990234874416556 0  0.680462082783176 0.7343098458916799 0  0.6528418406637668 0.5990294920695234 0  0.5990234874416539 0.6528712505501573 0  0.6528595479208968 0.5976310729378175 0  0.5990294920695235 0.6528418406637668 0  0.5976310729378145 0.6528595479208967 0  0.8195085073304323 0.5676371745971416 0  0.8195262145875635 0.5690355937288492 0  0.8195379172168237 0.5676431792250112 0  0.7642977396044839 0.5138071187457698 0  0.9009765125583458 0.4862045838834906 0  0.7656961587361918 0.5138248260029011 0  0.9009705079304764 0.4861751739971002 0  0.7656901541083205 0.5137954161165093 0  0.9023689270621829 0.4861928812542302 0  0.8471287494498425 0.4323568207749867 0  0.9575974020452618 0.4309644062711508 0  0.8471581593362332 0.4323628254028571 0  0.8471404520791032 0.4309644062711508 0  0.4861751739970991 0.9009705079304748 0  0.4861928812542302 0.9023689270621824 0  0.4862045838834904 0.9009765125583444 0  0.4309644062711506 0.847140452079103 0  0.5676431792250125 0.8195379172168239 0  0.4323628254028585 0.8471581593362344 0  0.5676371745971431 0.8195085073304335 0  0.4323568207749873 0.8471287494498425 0  0.5690355937288494 0.8195262145875635 0  0.5137954161165093 0.76569015410832 0  0.6242640687119285 0.7642977396044841 0  0.5138248260028998 0.7656961587361903 0  0.5138071187457699 0.7642977396044841 0  0.8195085073304323 0.9009705079304748 0  0.8195262145875635 0.9023689270621824 0  0.8195379172168237 0.9009765125583444 0  0.7642977396044839 0.847140452079103 0  0.9009765125583458 0.8195379172168239 0  0.7656961587361918 0.8471581593362344 0  0.9009705079304764 0.8195085073304335 0  0.7656901541083205 0.8471287494498425 0  0.9023689270621826 0.8195262145875635 0  0.8471287494498425 0.76569015410832 0  0.9575974020452618 0.7642977396044841 0  0.8471581593362331 0.7656961587361903 0  0.8471404520791032 0.7642977396044841 0  0.9166702251135618 0.6509776832705335 0  0.9033501687796112 0.6454603352854376 0  0.8919119770960238 0.6366835021129444 0  0.8831351439235308 0.6252453104293572 0  0.8776177959384348 0.6119252540954064 0  0.8757359312880715 0.5976310729378174 0  0.8776177959384348 0.5833368917802283 0  0.8831351439235309 0.5700168354462776 0  0.891911977096024 0.5585786437626903 0  0.9033501687796113 0.5498018105901973 0  0.9166702251135619 0.5442844626051014 0  0.9309644062711508 0.5424025979547381 0  0.9452585874287399 0.5442844626051014 0  0.9585786437626905 0.5498018105901974 0  0.9700168354462778 0.5585786437626904 0  0.9787936686187708 0.5700168354462777 0  0.9843110166038669 0.5833368917802283 0  0.0833297748864382 0.3490223167294665 0  0.09664983122038885 0.3545396647145624 0  0.1080880229039761 0.3633164978870555 0  0.1168648560764692 0.3747546895706428 0  0.1223822040615652 0.3880747459045935 0  0.1223822040615652 0.4166631082197715 0  0.1168648560764693 0.4299831645537222 0  0.1080880229039762 0.4414213562373094 0  0.09664983122038896 0.4501981894098025 0  0.0833297748864384 0.4557155373948986 0  0.06903559372884942 0.4575974020452619 0  0.05474141257126038 0.4557155373948987 0  0.04142135623730978 0.4501981894098027 0  0.02998316455372236 0.4414213562373097 0  0.0212063313812292 0.4299831645537224 0  0.01568898339613314 0.4166631082197716 0  0.005793724986843218 0.3668233496903389 0  0.01007647890111069 0.3777885492305797 0  0.01276178337594815 0.3892500814983391 0  0 
[...]
<PointData  Tensors="$\sigma$"> 
<DataArray  type="Float64"  Name="$\sigma$"  NumberOfComponents="9" format="ascii">3.5986261626751907e+03 2.7939687221387971e+03 0.0000000000000000e+00 2.7939687221387971e+03 -3.6251072601910878e+03 0.0000000000000000e+00 0.0000000000000000e+00 0.0000000000000000e+00 0.0000000000000000e+00  1.5380456104456771e+04 9.3236766195049895e+03 0.0000000000000000e+00 9.3236766195049895e+03 -1.1958824753997362e+04 0.0000000000000000e+00 0.0000000000000000e+00 0.0000000000000000e+00 0.0000000000000000e+00  -2.4304548829024596e+04 -1.5892353884452543e+04 0.0000000000000000e+00 -1.5892353884452543e+04 1.6127118631388801e+04 0.0000000000000000e+00 0.0000000000000000e+00 0.0000000000000000e+00 0.0000000000000000e+00  -1.9555883239782851e+07 3.7309185431999727e+06 0.0000000000000000e+00 3.7309185431999727e+06 1.7075956212706049e+06 0.0000000000000000e+00 0.0000000000000000e+00 0.0000000000000000e+00 0.0000000000000000e+00  -4.7245564712062769e+07 -2.0952423776168644e+06 0.0000000000000000e+00 -2.0952423776168644e+06 -2.7029123712237934e+06 0.0000000000000000e+00 0.0000000000000000e+00 0.0000000000000000e+00 0.0000000000000000e+00  -2.7779068305573799e+07 -2.3040098194042859e+06 0.0000000000000000e+00 -2.3040098194042859e+06 1.5394586431336484e+06 0.0000000000000000e+00 0.0000000000000000e+00 0.0000000000000000e+00 0.0000000000000000e+00  -2.7249109961595159e+07 -2.6810146972559076e+06 0.0000000000000000e+00 -2.6810146972559076e+06 1.4910209739764712e+06 0.0000000000000000e+00 0.0000000000000000e+00 0.0000000000000000e+00 0.0000000000000000e+00  -4.0933511538998589e+07 -9.4443241809881013e+05 0.0000000000000000e+00 -9.4443241809881013e+05 -2.9111871545249233e+06 0.0000000000000000e+00 0.0000000000000000e+00 0.0000000000000000e+00 0.0000000000000000e+00  -2.0300539688673031e+07 2.7096127975648949e+06 0.0000000000000000e+00 2.7096127975648949e+06 2.0752268446338626e+06 0.0000000000000000e+00 0.0000000000000000e+00 0.0000000000000000e+00 0.0000000000000000e+00  9.8153652551149875e+06 -1.5343651802079583e+07 0.0000000000000000e+00 -1.5343651802079583e+07 2.6789602033045539e+08 0.0000000000000000e+00 0.0000000000000000e+00 0.0000000000000000e+00 0.0000000000000000e+00  -2.6448088233116818e+04 -2.9827393028363182e+04 0.0000000000000000e+00 -2.9827393028363182e+04 3.3192861088473364e+04 0.0000000000000000e+00 0.0000000000000000e+00 0.0000000000000000e+00 0.0000000000000000e+00  1.6079445240527502e+04 1.7266300745372584e+04 0.0000000000000000e+00 1.7266300745372584e+04 -2.6503078616845934e+04 0.0000000000000000e+00 0.0000000000000000e+00 0.0000000000000000e+00 0.0000000000000000e+00  4.3675757320041766e+03 4.6629628241126120e+03 0.0000000000000000e+00 4.6629628241126120e+03 -5.1088998817101483e+03 0.0000000000000000e+00 0.0000000000000000e+00 0.0000000000000000e+00 0.0000000000000000e+00  -1.3187416776000796e+02 -6.8789904566283113e+01 0.0000000000000000e+00 -6.8789904566283113e+01 -2.1144591062812570e+01 0.0000000000000000e+00 0.0000000000000000e+00 0.0000000000000000e+00 0.0000000000000000e+00  -1.6582356194058100e+06 -7.6210849425843172e+06 0.0000000000000000e+00 -7.6210849425843172e+06 -1.9022413789559010e+07 0.0000000000000000e+00 0.0000000000000000e+00 0.0000000000000000e+00 0.0000000000000000e+00  2.0899481701104413e+06 2.8059813242789852e+06 0.0000000000000000e+00 2.8059813242789852e+06 8.9645848735945905e+05 0.0000000000000000e+00 0.0000000000000000e+00 0.0000000000000000e+00 0.0000000000000000e+00  -1.5999332137529856e+07 -8.5459465229611900e+06 0.0000000000000000e+00 -8.5459465229611900e+06 -9.6346438072710764e+05 0.0000000000000000e+00 0.0000000000000000e+00 0.0000000000000000e+00 0.0000000000000000e+00  2.3862651866188969e+07 7.6810880760023529e+06 0.0000000000000000e+00 7.6810880760023529e+06 -1.0345343404338699e+05 0.0000000000000000e+00 0.0000000000000000e+00 0.0000000000000000e+00 0.0000000000000000e+00  1.0027604375887839e+07 -1.8013747542652480e+07 0.0000000000000000e+00 -1.8013747542652480e+07 2.5039854952868444e+08 0.0000000000000000e+00 0.0000000000000000e+00 0.0000000000000000e+00 0.0000000000000000e+00  -3.0791166241521667e+04 1.1346741194271955e+04 0.0000000000000000e+00 1.1346741194271955e+04 4.6113396807439667e+03 0.0000000000000000e+00 0.0000000000000000e+00 0.0000000000000000e+00 0.0000000000000000e+00  2.0540117767630363e+04 -8.9927826640757885e+03 0.0000000000000000e+00 -8.9927826640757885e+03 -8.7626841497852656e+03 0.0000000000000000e+00 0.0000000000000000e+00 0.0000000000000000e+00 0.0000000000000000e+00  3.3911522796958166e+03 1.0274623449726432e+03 0.0000000000000000e+00 1.0274623449726432e+03 -3.7373926232314767e+02 0.0000000000000000e+00 0.0000000000000000e+00 0.0000000000000000e+00 0.0000000000000000e+00  -3.8602055472807912e+01 -3.1569908142723406e+00 0.0000000000000000e+00 -3.1569908142723406e+00 -8.4870142051621968e+01 0.0000000000000000e+00 0.0000000000000000e+00 0.0000000000000000e+00 0.0000000000000000e+00  -6.2002740123144886e+05 -1.1308465392165703e+06 0.0000000000000000e+00 -1.1308465392165703e+06 7.4427912739892066e+07 0.0000000000000000e+00 0.0000000000000000e+00 0.0000000000000000e+00 0.0000000000000000e+00  1.3440216304887587e+05 1.4929875943228716e+05 0.0000000000000000e+00 1.4929875943228716e+05 3.6121964840513825e+07 0.0000000000000000e+00 0.0000000000000000e+00 0.0000000000000000e+00 0.0000000000000000e+00  -2.1770111411175611e+06 -7.3853155837455252e+06 0.0000000000000000e+00 -7.3853155837455252e+06 -2.2143162416636091e+07 0.0000000000000000e+00 0.0000000000000000e+00 0.0000000000000000e+00 0.0000000000000000e+00  -1.1023870718927155e+02 -5.8751166875317139e+01 0.0000000000000000e+00 -5.8751166875317139e+01 -6.7097402966444903e+01 0.0000000000000000e+00 0.0000000000000000e+00 0.0000000000000000e+00 0.0000000000000000e+00  -1.6565060083950572e+06 -7.6174195854421323e+06 0.0000000000000000e+00 -7.6174195854421323e+06 -1.9009603384733960e+07 0.0000000000000000e+00 0.0000000000000000e+00 0.0000000000000000e+00 0.0000000000000000e+00  1.8697563484768115e+06 2.7843237723643426e+06 0.0000000000000000e+00 2.7843237723643426e+06 9.4604247978279612e+05 0.0000000000000000e+00 0.0000000000000000e+00 0.0000000000000000e+00 0.0000000000000000e+00  -1.5754643411356676e+07 -8.3043631999815274e+06 0.0000000000000000e+00 -8.3043631999815274e+06 -1.0320096013503439e+06 0.0000000000000000e+00 0.0000000000000000e+00 0.0000000000000000e+00 0.0000000000000000e+00  2.2980360700291902e+07 7.3936222456211746e+06 0.0000000000000000e+00 7.3936222456211746e+06 -4.8562805253377992e+04 0.0000000000000000e+00 0.0000000000000000e+00 0.0000000000000000e+00 0.0000000000000000e+00  -3.4873686925000598e+04 1.1875031587968431e+04 0.0000000000000000e+00 1.1875031587968431e+04 -5.0784148840088337e+03 0.0000000000000000e+00 0.0000000000000000e+00 0.0000000000000000e+00 0.0000000000000000e+00  2.2824220022446538e+04 -9.3233277309003297e+03 0.0000000000000000e+00 -9.3233277309003297e+03 -4.9731641464514774e+02 0.0000000000000000e+00 0.0000000000000000e+00 0.0000000000000000e+00 0.0000000000000000e+00  3.9131924655892790e+03 1.1661232618162978e+03 0.0000000000000000e+00 1.1661232618162978e+03 5.7712676439428162e+02 0.0000000000000000e+00 0.0000000000000000e+00 0.0000000000000000e+00 0.0000000000000000e+00  -6.1688052900429454e+01 1.9286055873038235e+00 0.0000000000000000e+00 1.9286055873038235e+00 -6.0720639205223662e+01 0.0000000000000000e+00 0.0000000000000000e+00 0.0000000000000000e+00 0.0000000000000000e+00  -6.2006795200964890e+05 -1.1310352090261814e+06 0.0000000000000000e+00 -1.1310352090261814e+06 7.4427168786879376e+07 0.0000000000000000e+00 0.0000000000000000e+00 0.0000000000000000e+00 0.0000000000000000e+00  8.1134356001378968e+06 1.9109520871395180e+06 0.0000000000000000e+00 1.9109520871395180e+06 3.6613073556657195e+07 0.0000000000000000e+00 0.0000000000000000e+00 0.0000000000000000e+00 0.0000000000000000e+00  -1.2788703202403928e+06 -7.7787060697903018e+06 0.0000000000000000e+00 -7.7787060697903018e+06 -2.0194083770069670e+07 0.0000000000000000e+00 0.0000000000000000e+00 0.0000000000000000e+00 0.0000000000000000e+00  -5.8164235028311675e+06 -2.0798264707756270e+07 0.0000000000000000e+00 -2.0798264707756270e+07 -1.5616089063015750e+08 0.0000000000000000e+00 0.0000000000000000e+00 0.0000000000000000e+00 0.0000000000000000e+00  6.0597028608372044e+06 1.3234026384093847e+07 0.0000000000000000e+00 1.3234026384093847e+07 -1.5354185807521367e+08 0.0000000000000000e+00 0.0000000000000000e+00 0.0000000000000000e+00 0.0000000000000000e+00  1.7861823114937081e+06 1.7270650385092400e+07 0.0000000000000000e+00 1.7270650385092400e+07 -1.1819217786605242e+08 0.0000000000000000e+00 0.0000000000000000e+00 0.0000000000000000e+00 0.0000000000000000e+00  -3.1842939407457765e+07 4.3253219837011788e+06 0.0000000000000000e+00 4.3253219837011788e+06 8.0580568926556536e+05 0.0000000000000000e+00 0.0000000000000000e+00 0.0000000000000000e+00 0.0000000000000000e+00  3.7042486395846093e+06 -5.0937367272285111e+06 0.0000000000000000e+00 -5.0937367272285111e+06 2.7954195661841207e+06 0.0000000000000000e+00 0.0000000000000000e+00 0.0000000000000000e+00 0.0000000000000000e+00  -1.9252877604335357e+07 -5.8277157074202243e+06 0.0000000000000000e+00 -5.8277157074202243e+06 -6.7545235061907140e+05 0.0000000000000000e+00 0.0000000000000000e+00 0.0000000000000000e+00 0.0000000000000000e+00  -2.7353165375958104e+07 1.4967381928244257e+07 0.0000000000000000e+00 1.4967381928244257e+07 -1.2441860499837876e+06 0.0000000000000000e+00 0.0000000000000000e+00 0.0000000000000000e+00 0.0000000000000000e+00  -1.9559973748336855e+07 3.5254841728375778e+06 0.0000000000000000e+00 3.5254841728375778e+06 2.5997619745396759e+05 0.0000000000000000e+00 0.0000000000000000e+00 0.0000000000000000e+00 0.0000000000000000e+00  4.6993313212614268e+07 -1.3564035593013644e+07 0.0000000000000000e+00 -1.3564035593013644e+07 -1.8253066844501339e+06 0.0000000000000000e+00 0.0000000000000000e+00 0.0000000000000000e+00 0.0000000000000000e+00  -8.6007396790758154e+04 2.2467613654543418e+06 0.0000000000000000e+00 2.2467613654543418e+06 -1.3665718537312197e+07 0.0000000000000000e+00 0.0000000000000000e+00 0.0000000000000000e+00 0.0000000000000000e+00  8.7629368047341071e+06 -3.7794757828283794e+06 0.0000000000000000e+00 -3.7794757828283794e+06 1.5255937490032485e+08 0.0000000000000000e+00 0.0000000000000000e+00 0.0000000000000000e+00 0.0000000000000000e+00  -2.9255067128267454e+05 -4.0634747390337973e+06 0.0000000000000000e+00 -4.0634747390337973e+06 -1.6575535729470527e+07 0.0000000000000000e+00 0.0000000000000000e+00 0.0000000000000000e+00 0.0000000000000000e+00  6.0331862681458017e+05 3.2798931985274991e+06 0.0000000000000000e+00 3.2798931985274991e+06 -2.3612158354226712e+07 0.0000000000000000e+00 0.0000000000000000e+00 0.0000000000000000e+00 0.0000000000000000e+00  -3.0582230743038651e+07 2.6524622174611925e+06 0.0000000000000000e+00 2.6524622174611925e+06 2.2616002628657357e+06 0.0000000000000000e+00 0.0000000000000000e+00 0.0000000000000000e+00 0.0000000000000000e+00  8.7882775462211575e+06 -1.1968177851020122e+07 0.0000000000000000e+00 -1.1968177851020122e+07 2.7262128636668241e+08 0.0000000000000000e+00 0.0000000000000000e+00 0.0000000000000000e+00 0.0000000000000000e+00  -5.4230893051186725e+07 -2.1697712236033412e+05 0.0000000000000000e+00 -2.1697712236033412e+05 -3.5161493023609682e+06 0.0000000000000000e+00 0.0000000000000000e+00 0.0000000000000000e+00 0.0000000000000000e+00  9.2011519529985655e+06 -1.7463335667184021e+07 0.0000000000000000e+00 -1.7463335667184021e+07 -1.9472688378445730e+08 0.0000000000000000e+00 0.0000000000000000e+00 0.0000000000000000e+00 0.0000000000000000e+00  -3.7682887288968295e+07 -3.9330027026230278e+06 0.0000000000000000e+00 -3.9330027026230278e+06 2.0431646039701416e+06 0.0000000000000000e+00 0.0000000000000000e+00 0.0000000000000000e+00 0.0000000000000000e+00  -8.6904775621762630e+06 2.6124337012175929e+07 0.0000000000000000e+00 2.6124337012175929e+07 -1.7673082929405558e+08 0.0000000000000000e+00 0.0000000000000000e+00 0.0000000000000000e+00 0.0000000000000000e+00  1.7734161569320397e+06 -1.0474789405351248e+07 0.0000000000000000e+00 -1.0474789405351248e+07 -7.8918308360208511e+07 0.0000000000000000e+00 0.0000000000000000e+00 0.0000000000000000e+00 0.0000000000000000e+00  2.5985121650033495e+06 -2.0611536657223240e+07 0.0000000000000000e+00 -2.0611536657223240e+07 -1.4405534572221887e+08 0.0000000000000000e+00 0.0000000000000000e+00 0.0000000000000000e+00 0.0000000000000000e+00  -4.9442656117832018e+06 1.2001547588127133e+07 0.0000000000000000e+00 1.2001547588127133e+07 -9.9732084339644447e+07 0.0000000000000000e+00 0.0000000000000000e+00 0.0000000000000000e+00 0.0000000000000000e+00  -1.9759006803662878e+07 1.2401458719491956e+06 0.0000000000000000e+00 1.2401458719491956e+06 2.4860700794785754e+06 0.0000000000000000e+00 0.0000000000000000e+00 0.0000000000000000e+00 0.0000000000000000e+00  4.6898763187721418e+06 -7.5069133835669709e+06 0.0000000000000000e+00 -7.5069133835669709e+06 -9.9137654179188877e+07 0.0000000000000000e+00 0.0000000000000000e+00 0.0000000000000000e+00 0.0000000000000000e+00  -4.6389684996872418e+07 -9.4207459969347008e+06 0.0000000000000000e+00 -9.4207459969347008e+06 -3.6735822798032900e+06 0.0000000000000000e+00 0.0000000000000000e+00 0.0000000000000000e+00 0.0000000000000000e+00  6.7446632389884861e+06 9.4812734647086523e+06 0.0000000000000000e+00 9.4812734647086523e+06 1.7595585673344780e+06 0.0000000000000000e+00 0.0000000000000000e+00 0.0000000000000000e+00 0.0000000000000000e+00  -5.8199192515791962e+06 -2.4945133551531684e+07 0.0000000000000000e+00 -2.4945133551531684e+07 -1.6067262110189214e+08 0.0000000000000000e+00 0.0000000000000000e+00 0.0000000000000000e+00 0.0000000000000000e+00  6.5846553145425413e+06 1.3487702378663776e+07 0.0000000000000000e+00 1.3487702378663776e+07 -1.6331774046955514e+08 0.0000000000000000e+00 0.0000000000000000e+00 0.0000000000000000e+00 0.0000000000000000e+00  1.0156420618143202e+06 2.2371314980752058e+07 0.0000000000000000e+00 2.2371314980752058e+07 -1.1947997272238122e+08 0.0000000000000000e+00 0.0000000000000000e+00 0.0000000000000000e+00 0.0000000000000000e+00  -4.2880850668451786e+07 6.0139381525517041e+06 0.0000000000000000e+00 6.0139381525517041e+06 8.3546744095050776e+05 0.0000000000000000e+00 0.0000000000000000e+00 0.0000000000000000e+00 0.0000000000000000e+00  2.6251056100592511e+06 -5.6946660172446324e+06 0.0000000000000000e+00 -5.6946660172446324e+06 1.8644142977772765e+06 0.0000000000000000e+00 0.0000000000000000e+00 0.0000000000000000e+00 0.0000000000000000e+00  -2.6314064412393782e+07 -7.4837051438451074e+06 0.0000000000000000e+00 -7.4837051438451074e+06 -4.6455481074637460e+05 0.0000000000000000e+00 0.0000000000000000e+00 0.0000000000000000e+00 0.0000000000000000e+00  -2.8567469327124324e+07 1.6110043103247223e+07 0.0000000000000000e+00 1.6110043103247223e+07 8.7730400884852483e+04 0.0000000000000000e+00 0.0000000000000000e+00 0.0000000000000000e+00 0.0000000000000000e+00  -2.5017424267579503e+07 4.0280272694217912e+06 0.0000000000000000e+00 4.0280272694217912e+06 6.0672523486843762e+04 0.0000000000000000e+00 0.0000000000000000e+00 0.0000000000000000e+00 0.0000000000000000e+00  5.0326223157862082e+07 -1.4345133644533431e+07 0.0000000000000000e+00 -1.4345133644533431e+07 -2.7643337459702585e+06 0.0000000000000000e+00 0.0000000000000000e+00 0.0000000000000000e+00 0.0000000000000000e+00  4.0709216909773393e+04 3.1839582334909793e+06 0.0000000000000000e+00 3.1839582334909793e+06 -1.7815556487984583e+07 0.0000000000000000e+00 0.0000000000000000e+00 0.0000000000000000e+00 0.0000000000000000e+00  6.4306997145347921e+06 -2.9128087547069038e+06 0.0000000000000000e+00 -2.9128087547069038e+06 1.6456027125445527e+08 0.0000000000000000e+00 0.0000000000000000e+00 0.0000000000000000e+00 0.0000000000000000e+00  -3.1657767495080491e+05 -5.3136667838365724e+06 0.0000000000000000e+00 -5.3136667838365724e+06 -1.8817997795378160e+07 0.0000000000000000e+00 0.0000000000000000e+00 0.0000000000000000e+00 0.0000000000000000e+00  4.9901334368541575e+05 4.0521982889398811e+06 0.0000000000000000e+00 4.0521982889398811e+06 -2.8023451027748283e+07 0.0000000000000000e+00 0.0000000000000000e+00 0.0000000000000000e+00 0.0000000000000000e+00  -8.7536269389765635e+06 -1.9980186241091684e+07 0.0000000000000000e+00 -1.9980186241091684e+07 -1.6385973853438774e+08 0.0000000000000000e+00 0.0000000000000000e+00 0.0000000000000000e+00 0.0000000000000000e+00  8.6923770735420808e+06 1.0895021759057708e+07 0.0000000000000000e+00 1.0895021759057708e+07 -1.6541196774037531e+08 0.0000000000000000e+00 0.0000000000000000e+00 0.0000000000000000e+00 0.0000000000000000e+00  2.6572181723552300e+06 1.9236150939467367e+07 0.0000000000000000e+00 1.9236150939467367e+07 -1.2955166392673974e+08 0.0000000000000000e+00 0.0000000000000000e+00 0.0000000000000000e+00 0.0000000000000000e+00  -4.7199817733791418e+07 6.6740980237137992e+06 0.0000000000000000e+00 6.6740980237137992e+06 1.5269024452204616e+06 0.0000000000000000e+00 0.0000000000000000e+00 0.0000000000000000e+00 0.0000000000000000e+00  -5.5364254804886185e+07 8.7992866134002302e+06 0.0000000000000000e+00 8.7992866134002302e+06 2.6687846371148461e+06 0.0000000000000000e+00 0.0000000000000000e+00 0.0000000000000000e+00 0.0000000000000000e+00  -2.5521787592812560e+07 -8.9462464672873598e+06 0.0000000000000000e+00 -8.9462464672873598e+06 -1.0322443417013615e+06 0.0000000000000000e+00 0.0000000000000000e+00 0.0000000000000000e+00 0.0000000000000000e+00  -9.2976336394345760e+07 -9.4258819473395997e+05 0.0000000000000000e+00 -9.4258819473395997e+05 -4.2729514648722280e+06 0.0000000000000000e+00 0.0000000000000000e+00 0.0000000000000000e+00 0.0000000000000000e+00  -2.7754348685378037e+07 5.3587607804632448e+06 0.0000000000000000e+00 5.3587607804632448e+06 7.3675606111835135e+04 0.0000000000000000e+00 0.0000000000000000e+00 0.0000000000000000e+00 0.0000000000000000e+00  -3.6234297945951842e+07 -5.1550510221954044e+06 0.0000000000000000e+00 -5.1550510221954044e+06 2.3408917894197195e+06 0.0000000000000000e+00 0.0000000000000000e+00 0.0000000000000000e+00 0.0000000000000000e+00  5.0576675539632277e+04 2.8975097974014282e+06 0.0000000000000000e+00 2.8975097974014282e+06 -1.9607322511037886e+07 0.0000000000000000e+00 0.0000000000000000e+00 0.0000000000000000e+00 0.0000000000000000e+00  1.3816214650604323e+07 -1.3126611974837771e+07 0.0000000000000000e+00 -1.3126611974837771e+07 1.9532356343663687e+08 0.0000000000000000e+00 0.0000000000000000e+00 0.0000000000000000e+00 0.0000000000000000e+00  -1.0033095263410146e+05 -5.1718738192098076e+06 0.0000000000000000e+00 -5.1718738192098076e+06 -2.1388162458179466e+07 0.0000000000000000e+00 0.0000000000000000e+00 0.0000000000000000e+00 0.0000000000000000e+00  2.2405590453139952e+05 4.2012840360265402e+06 0.0000000000000000e+00 4.2012840360265402e+06 -3.0816160126911849e+07 0.0000000000000000e+00 0.0000000000000000e+00 0.0000000000000000e+00 0.0000000000000000e+00  -3.6021038874443576e+07 2.1498041414367761e+06 0.0000000000000000e+00 2.1498041414367761e+06 3.1227162462097532e+06 0.0000000000000000e+00 0.0000000000000000e+00 0.0000000000000000e+00 0.0000000000000000e+00  9.5643878649088107e+06 -1.3892878752109073e+07 0.0000000000000000e+00 -1.3892878752109073e+07 2.8093096491039383e+08 0.0000000000000000e+00 0.0000000000000000e+00 0.0000000000000000e+00 0.0000000000000000e+00  -6.2031489424019419e+07 4.9384919849929465e+04 0.0000000000000000e+00 4.9384919849929465e+04 -4.0121932176379808e+06 0.0000000000000000e+00 0.0000000000000000e+00 0.0000000000000000e+00 0.0000000000000000e+00  9.4954610242346823e+06 -1.2246909119469576e+07 0.0000000000000000e+00 -1.2246909119469576e+07 -1.8761891146315762e+08 0.0000000000000000e+00 0.0000000000000000e+00 0.0000000000000000e+00 0.0000000000000000e+00  -3.9978025199843332e+07 -3.9772251443992690e+06 0.0000000000000000e+00 -3.9772251443992690e+06 1.8655883871243370e+06 0.00000