<?xml version="1.0"?>
<VTKFile type="UnstructuredGrid"  version="0.1"  >
<UnstructuredGrid>
<Piece  NumberOfPoints="1404" NumberOfCells="2588">
<Points>
<DataArray  type="Float64"  NumberOfComponents="3"  format="ascii">0.006194544631045344 0.00764949812 0  0.006106931835343652 0.007744769414325509 0  0.005999103766364818 0.00781498607002192 0  0.005895147107586996 0.00786290560649147 0  0.005811763175226228 0.007899405965290235 0  0.005754169243621729 0.007937683946784067 0  0.00571646215003403 0.007986939239227999 0  0.005685914236416427 0.008048116745835178 0  0.005649222692375343 0.008113360667701146 0  0.005598120126305275 0.008169283652404019 0  0.005532185324879493 0.008202603706893411 0  0.005457960107005573 0.008205769340641503 0  0.005385046385669401 0.008180241141453763 0  0.005321085595547556 0.008136089595736636 0  0.005267920693826133 0.008088090270077206 0  0.005220665110922723 0.00804992659162245 0  0.005170108582622492 0.00802886969442323 0  0.00510742312771759 0.00802309263681248 0  0.005029106388804768 0.00802268681767352 0  0.004939943203641303 0.008013930734979956 0  0.004852550147425817 0.007985036035382862 0  0.004783474881383977 0.007931003338092589 0  0.004747276328735311 0.007855601373439118 0  0.004750911695913285 0.007769681215383236 0  0.00479072093630851 0.007686562366290233 0  0.004853324581177717 0.007616453161065071 0  0.004920215992298405 0.007562287033384366 0  0.004974346504333911 0.00751878735917742 0  0.005006172337526153 0.007475238344458485 0  0.005016801662710299 0.007420876092864909 0  0.005016997463463309 0.007350662752791938 0  0.005022423646887186 0.00726895098078136 0  0.005047022139193305 0.007189314244074523 0  0.005097174797950322 0.007130326134960311 0  0.005169018360522729 0.007108728743206659 0  0.005250041488407337 0.00713257205274699 0  0.005324380288076695 0.007197059578896443 0  0.005379718148205707 0.007284909163496741 0  0.005412992596649361 0.007371366850890852 0  0.005432510104038049 0.007432231426960266 0  0.005455431868746106 0.007452047846902299 0  0.005501399890689932 0.007429484745292267 0  0.005584621476623069 0.007377896597438088 0  0.005707411827064414 0.007320821749798962 0  0.005857729962353555 0.00728402292012745 0  0.006011797005199303 0.00728693332048873 0  0.006141003249782799 0.007336554512943418 0  0.006220708253301174 0.007425898630183772 0  0.006237827096674466 0.00753734975062469 0  0 0 0  0.01 0 0  0 0.01 0  0.01 0.01 0  0.004684905017828523 0.003749072 0  0.004662853739488401 0.003790272595083308 0  0.004741217100767487 0.003697767568337618 0  0.004695791858766506 0.003841503612549756 0  0.004799895884305653 0.003629341097140282 0  0.00478466143737308 0.003927755369540544 0  0.004830130841955261 0.003551980108727624 0  0.004909018865095461 0.004067673263429558 0  0.004813368207878382 0.003484340183117391 0  0.00503319932257418 0.00426394973798587 0  0.004749233515301995 0.003446123451878733 0  0.0051180231369927 0.004499339776138219 0  0.004654168623508014 0.003448022269379697 0  0.005133706000666183 0.004740197160644997 0  0.004553638633785932 0.003485328310595278 0  0.005069194967571047 0.004946495079399462 0  0.004543055835507953 0.003492095838178727 0  0.004934560141020304 0.005084716231982671 0  0.004493711711040265 0.003422682766285767 0  0.004755773753474472 0.005138799049530373 0  0.004406400571755181 0.00334874638810243 0  0.004564141864966371 0.005114994797228285 0  0.004316570709561876 0.00329937498 0  0.004384668447710729 0.005038778827963233 0  0.004298057841314841 0.003292273567733335 0  0.004227941996963916 0.004944982659573772 0  0.00422003218608752 0.003186003558917665 0  0.004088630889314267 0.004864894353152562 0  0.00426010486009053 0.00312278149635235 0  0.003950962747148042 0.004815206395689236 0  0.004301645420501147 0.003029992293538718 0  0.003798728078394248 0.004792933702570602 0  0.004323449513342856 0.002923232230254794 0  0.003625518491608682 0.004778080190134647 0  0.004313157020768492 0.002821531805057242 0  0.003440812342658557 0.004742822286867661 0  0.004268341137955077 0.002746242235353586 0  0.003269193618748088 0.00466348065820303 0  0.004197028373463956 0.002714652059726423 0  0.003142766888249286 0.004530539004217353 0  0.004114804874567109 0.002734533472216579 0  0.003089606337820122 0.004352823892106355 0  0.004039454202782643 0.002801417636756699 0  0.003122743543981756 0.004154328004247646 0  0.003984914509391708 0.002899544447452462 0  0.003234088039976192 0.003965092969050007 0  0.003956580220310917 0.003006243008241115 0  0.003395821575081591 0.003809902779017487 0  0.00394951781851659 0.003098380405244761 0  0.003568935641614288 0.003699355512811586 0  0.003949602982502458 0.003106217743428515 0  0.003631576157679077 0.003668442511622246 0  0.003909821019353436 0.00312763286250968 0  0.003600266485147115 0.003659666733508716 0  0.003891041494915843 0.003163858768565311 0  0.003516323147163368 0.003629501204956301 0  0.00383769365707601 0.003141207924863276 0  0.003431572649611526 0.003584425271976539 0  0.003736956537508734 0.003112865176877226 0  0.003356867053302351 0.00352070761322169 0  0.003615813543098926 0.003103050426073415 0  0.003305413515008677 0.003439219521605775 0  0.003492690610334606 0.003123138874729247 0  0.003289538931979067 0.003346495924634287 0  0.003387611874933413 0.003175538567555672 0  0.003316937492830002 0.003254013081335189 0  0.007061863809999999 0.00570409403 0  0.006975661179675257 0.005885332383434271 0  0.00704333597318443 0.005514129978191153 0  0.006800766577952855 0.006026835808332365 0  0.006926497705330581 0.005348381667393804 0  0.006570975425800896 0.006109339087052922 0  0.006738043594723689 0.00523121056759356 0  0.006327905219135898 0.006130931369999096 0  0.006516636261410044 0.005170965347219393 0  0.006109272834653739 0.006106554626692811 0  0.006301375647789095 0.005158263377772777 0  0.005939338702296445 0.006061766704889795 0  0.006121001609132393 0.00517049064067372 0  0.005824530558301543 0.006023249831121126 0  0.005987386682412375 0.005180723108498415 0  0.005755252510984864 0.006009667133328908 0  0.005895190007167385 0.005167679389872885 0  0.005712598075452729 0.006026197780442741 0  0.005827233093261136 0.005123027777505995 0  0.005676993451010785 0.006064549026892432 0  0.005763110985316787 0.005053480483985909 0  0.005635324095814779 0.006108070580592026 0  0.005687536763668314 0.004977163666952771 0  0.005583979456867698 0.006139641414136342 0  0.005595286728831512 0.004915944267855944 0  0.005527090923086869 0.006149019001635704 0  0.005491176067709783 0.004886874011952069 0  0.005471273451565084 0.0061366971907201 0  0.005385597360088652 0.004896119386238153 0  0.005419590105444614 0.006112839726064106 0  0.005287947400082978 0.004937632576671158 0  0.00536768779044367 0.006091912235799782 0  0.005201043707792269 0.004996850316718518 0  0.005304033734188665 0.006085394305278409 0  0.005119103005112268 0.005057681648078064 0  0.005214353625053318 0.00609571375763364 0  0.005030260539465484 0.005109767355746959 0  0.005088496270326305 0.006114014602562867 0  0.004922617963042665 0.005152959195590963 0  0.004926803280237473 0.006122776704298507 0  0.004791239375576392 0.005197169032602845 0  0.004743123667615075 0.006102302607937048 0  0.004643014426074085 0.005257675382228738 0  0.004562869107533508 0.006038488608687662 0  0.004497083670001232 0.005347857181184379 0  0.004416457172544287 0.005928748870949008 0  0.004380266887825082 0.005472391131733242 0  0.004330353780512623 0.005783682747600695 0  0.004318949430900073 0.005623773128861287 0  0.0006666666666666656 0 0  0.001333333333333331 0 0  0.001999999999999997 0 0  0.002666666666666664 0 0  0.003333333333333328 0 0  0.003999999999999992 0 0  0.004666666666666656 0 0  0.005333333333333321 0 0  0.005999999999999987 0 0  0.006666666666666657 0 0  0.007333333333333324 0 0  0.007999999999999993 0 0  0.008666666666666663 0 0  0.009333333333333332 0 0  0 0.009333333333333334 0  0 0.00866666666666667 0  0 0.008000000000000004 0  0 0.007333333333333337 0  0 0.006666666666666672 0  0 0.006000000000000008 0  0 0.005333333333333344 0  0 0.004666666666666679 0  0 0.004000000000000013 0  0 0.003333333333333344 0  0 0.002666666666666677 0  0 0.002000000000000007 0  0 0.001333333333333337 0  0 0.0006666666666666678 0  0.01 0.0006666666666666656 0  0.01 0.001333333333333331 0  0.01 0.001999999999999997 0  0.01 0.002666666666666664 0  0.01 0.003333333333333328 0  0.01 0.003999999999999992 0  0.01 0.004666666666666656 0  0.01 0.005333333333333321 0  0.01 0.005999999999999987 0  0.01 0.006666666666666657 0  0.01 0.007333333333333324 0  0.01 0.007999999999999993 0  0.01 0.008666666666666663 0  0.01 0.009333333333333332 0  0.009333333333333334 0.01 0  0.00866666666666667 0.01 0  0.008000000000000004 0.01 0  0.007333333333333337 0.01 0  0.006666666666666672 0.01 0  0.006000000000000008 0.01 0  0.005333333333333344 0.01 0  0.004666666666666679 0.01 0  0.004000000000000013 0.01 0  0.003333333333333344 0.01 0  0.002666666666666677 0.01 0  0.002000000000000007 0.01 0  0.001333333333333337 0.01 0  0.0006666666666666678 0.01 0  0.006677084292434098 0.005018272341602809 0  0.004701240228492497 0.007694798769308116 0  0.004968808787434646 0.007208772817606453 0  0.003287498221959822 0.004849166631896549 0  0.006325268015452238 0.007476920885340162 0  0.005316626765824044 0.008218537323408052 0  0.005563821296735646 0.006194451669959165 0  0.007004147823316251 0.006099375476034861 0  0.004401231508849949 0.006107556381401315 0  0.004400670310881748 0.002851135333176114 0  0.003217607189231054 0.003416002771118029 0  0.005684013559638637 0.004854607653270807 0  0.005325945343158354 0.007090570544854895 0  0.003281460879922053 0.003153597042792536 0  0.003540836765385513 0.00301236133041095 0  0.004030306647415078 0.002703821629566653 0  0.005119031577497673 0.004085201119438996 0  0.005429018578742496 0.006178419869365069 0  0.004188219874665712 0.005707708501446505 0  0.004695335029653253 0.0079221
[...]
<PointData  Tensors="$\sigma$"> 
<DataArray  type="Float64"  Name="$\sigma$"  NumberOfComponents="9" format="ascii">2.7723639685941670e+07 -3.9126031088318363e+07 0.0000000000000000e+00 -3.9126031088318363e+07 8.2416102198939621e+07 0.0000000000000000e+00 0.0000000000000000e+00 0.0000000000000000e+00 0.0000000000000000e+00  2.9792800735397831e+07 -3.0855417854288705e+07 0.0000000000000000e+00 -3.0855417854288705e+07 3.6325232967845783e+07 0.0000000000000000e+00 0.0000000000000000e+00 0.0000000000000000e+00 0.0000000000000000e+00  1.9424933235680267e+07 -1.6360735566704134e+07 0.0000000000000000e+00 -1.6360735566704134e+07 1.5381011448122187e+07 0.0000000000000000e+00 0.0000000000000000e+00 0.0000000000000000e+00 0.0000000000000000e+00  1.1939488161575729e+07 -8.0135309837108385e+06 0.0000000000000000e+00 -8.0135309837108385e+06 5.9118096866011564e+06 0.0000000000000000e+00 0.0000000000000000e+00 0.0000000000000000e+00 0.0000000000000000e+00  3.8627079981161002e+06 -1.7802727102025077e+06 0.0000000000000000e+00 -1.7802727102025077e+06 9.0411941383549757e+05 0.0000000000000000e+00 0.0000000000000000e+00 0.0000000000000000e+00 0.0000000000000000e+00  1.3095448361841706e+06 -8.9092961594112520e+05 0.0000000000000000e+00 -8.9092961594112520e+05 3.6696034219935071e+05 0.0000000000000000e+00 0.0000000000000000e+00 0.0000000000000000e+00 0.0000000000000000e+00  1.5852259044117634e+06 -2.5055965278762789e+06 0.0000000000000000e+00 -2.5055965278762789e+06 2.9813241577024693e+06 0.0000000000000000e+00 0.0000000000000000e+00 0.0000000000000000e+00 0.0000000000000000e+00  2.6992425310083912e+06 -4.1247703376678242e+06 0.0000000000000000e+00 -4.1247703376678242e+06 6.2285652004267164e+06 0.0000000000000000e+00 0.0000000000000000e+00 0.0000000000000000e+00 0.0000000000000000e+00  4.7900575357343005e+06 -5.7684080481869206e+06 0.0000000000000000e+00 -5.7684080481869206e+06 7.7651438925321503e+06 0.0000000000000000e+00 0.0000000000000000e+00 0.0000000000000000e+00 0.0000000000000000e+00  2.5369398634373867e+06 -3.6961307909108363e+06 0.0000000000000000e+00 -3.6961307909108363e+06 5.5230454316838803e+06 0.0000000000000000e+00 0.0000000000000000e+00 0.0000000000000000e+00 0.0000000000000000e+00  -6.3180767152896421e+06 -9.3677297216904431e+05 0.0000000000000000e+00 -9.3677297216904280e+05 9.2529342779395485e+05 0.0000000000000000e+00 0.0000000000000000e+00 0.0000000000000000e+00 0.0000000000000000e+00  -1.5344041588478832e+07 -2.9886873193133068e+06 0.0000000000000000e+00 -2.9886873193133078e+06 -1.6484087835604125e+06 0.0000000000000000e+00 0.0000000000000000e+00 0.0000000000000000e+00 0.0000000000000000e+00  -1.3571278341019187e+07 -5.8240295051566390e+06 0.0000000000000000e+00 -5.8240295051566409e+06 -3.4834959874966694e+06 0.0000000000000000e+00 0.0000000000000000e+00 0.0000000000000000e+00 0.0000000000000000e+00  -8.1609313809513291e+06 -5.3973825922095440e+06 0.0000000000000000e+00 -5.3973825922095440e+06 -3.6588151985469777e+06 0.0000000000000000e+00 0.0000000000000000e+00 0.0000000000000000e+00 0.0000000000000000e+00  -5.8770168165290663e+06 -3.5221847094418537e+06 0.0000000000000000e+00 -3.5221847094418537e+06 -2.1743850394904958e+06 0.0000000000000000e+00 0.0000000000000000e+00 0.0000000000000000e+00 0.0000000000000000e+00  -3.9236024115453586e+06 -1.6866592391607603e+06 0.0000000000000000e+00 -1.6866592391607603e+06 -7.6901262210110330e+05 0.0000000000000000e+00 0.0000000000000000e+00 0.0000000000000000e+00 0.0000000000000000e+00  -5.3366657905824920e+06 -1.4704462048851992e+06 0.0000000000000000e+00 -1.4704462048851992e+06 -2.2856833999148122e+05 0.0000000000000000e+00 0.0000000000000000e+00 0.0000000000000000e+00 0.0000000000000000e+00  -6.2026763508876851e+06 -8.3336194666223356e+05 0.0000000000000000e+00 -8.3336194666223356e+05 3.5757296721208848e+04 0.0000000000000000e+00 0.0000000000000000e+00 0.0000000000000000e+00 0.0000000000000000e+00  -6.3066335688982401e+06 -5.2400622988260072e+05 0.0000000000000000e+00 -5.2400622988260078e+05 1.1529172031047309e+06 0.0000000000000000e+00 0.0000000000000000e+00 0.0000000000000000e+00 0.0000000000000000e+00  1.4082083599659461e+06 2.6301812904876713e+06 0.0000000000000000e+00 2.6301812904876713e+06 1.6941956624837103e+06 0.0000000000000000e+00 0.0000000000000000e+00 0.0000000000000000e+00 0.0000000000000000e+00  1.5831009100216780e+07 1.4077315380519819e+07 0.0000000000000000e+00 1.4077315380519819e+07 1.4455287295458149e+07 0.0000000000000000e+00 0.0000000000000000e+00 0.0000000000000000e+00 0.0000000000000000e+00  2.0586652591018122e+07 2.5846583628066678e+07 0.0000000000000000e+00 2.5846583628066678e+07 5.0188046034024522e+07 0.0000000000000000e+00 0.0000000000000000e+00 0.0000000000000000e+00 0.0000000000000000e+00  1.2621824145442903e+07 1.5005259530183477e+07 0.0000000000000000e+00 1.5005259530183477e+07 8.2406012539405957e+07 0.0000000000000000e+00 0.0000000000000000e+00 0.0000000000000000e+00 0.0000000000000000e+00  7.1808524320238959e+06 -1.0697030328595493e+07 0.0000000000000000e+00 -1.0697030328595493e+07 6.8616490529408440e+07 0.0000000000000000e+00 0.0000000000000000e+00 0.0000000000000000e+00 0.0000000000000000e+00  9.7578302516647000e+06 -1.5305627142881796e+07 0.0000000000000000e+00 -1.5305627142881796e+07 3.5143063618273027e+07 0.0000000000000000e+00 0.0000000000000000e+00 0.0000000000000000e+00 0.0000000000000000e+00  7.9126736423610309e+06 -8.5056471609866656e+06 0.0000000000000000e+00 -8.5056471609866656e+06 1.2144754199057812e+07 0.0000000000000000e+00 0.0000000000000000e+00 0.0000000000000000e+00 0.0000000000000000e+00  3.0520313922118535e+06 -3.2541625660344707e+06 0.0000000000000000e+00 -3.2541625660344684e+06 3.3936187078266288e+06 0.0000000000000000e+00 0.0000000000000000e+00 0.0000000000000000e+00 0.0000000000000000e+00  9.1508076475071500e+05 -1.0216197457154775e+06 0.0000000000000000e+00 -1.0216197457154782e+06 1.7542588684110581e+06 0.0000000000000000e+00 0.0000000000000000e+00 0.0000000000000000e+00 0.0000000000000000e+00  3.4211676908347569e+05 2.0264484134070048e+05 0.0000000000000000e+00 2.0264484134070127e+05 -6.2626995361040044e+05 0.0000000000000000e+00 0.0000000000000000e+00 0.0000000000000000e+00 0.0000000000000000e+00  3.9749510538173898e+05 -1.1928527593306990e+06 0.0000000000000000e+00 -1.1928527593306985e+06 3.3712123130169013e+06 0.0000000000000000e+00 0.0000000000000000e+00 0.0000000000000000e+00 0.0000000000000000e+00  5.5699165953044791e+05 -1.8207106631770597e+06 0.0000000000000000e+00 -1.8207106631770597e+06 8.1751533087351676e+06 0.0000000000000000e+00 0.0000000000000000e+00 0.0000000000000000e+00 0.0000000000000000e+00  1.8125788998348352e+06 -4.1991391735009197e+06 0.0000000000000000e+00 -4.1991391735009197e+06 1.4456493185036579e+07 0.0000000000000000e+00 0.0000000000000000e+00 0.0000000000000000e+00 0.0000000000000000e+00  4.5082903428572034e+06 -7.2999457074475884e+06 0.0000000000000000e+00 -7.2999457074475884e+06 1.5186135898092048e+07 0.0000000000000000e+00 0.0000000000000000e+00 0.0000000000000000e+00 0.0000000000000000e+00  4.8072430763790365e+06 -4.8430993802490560e+06 0.0000000000000000e+00 -4.8430993802490560e+06 7.5630289546291009e+06 0.0000000000000000e+00 0.0000000000000000e+00 0.0000000000000000e+00 0.0000000000000000e+00  -1.0435694474095658e+06 -3.1895789797086352e+06 0.0000000000000000e+00 -3.1895789797086352e+06 1.0925741437306955e+05 0.0000000000000000e+00 0.0000000000000000e+00 0.0000000000000000e+00 0.0000000000000000e+00  -5.1622641969910664e+06 -2.5702604326080289e+06 0.0000000000000000e+00 -2.5702604326080289e+06 -1.7979140074546426e+06 0.0000000000000000e+00 0.0000000000000000e+00 0.0000000000000000e+00 0.0000000000000000e+00  -2.8569478286163453e+06 -1.9402360306887017e+06 0.0000000000000000e+00 -1.9402360306887017e+06 -1.2611874489822495e+06 0.0000000000000000e+00 0.0000000000000000e+00 0.0000000000000000e+00 0.0000000000000000e+00  -6.6564247780041839e+05 -4.0041179791041010e+05 0.0000000000000000e+00 -4.0041179791041010e+05 -1.0256624493747507e+05 0.0000000000000000e+00 0.0000000000000000e+00 0.0000000000000000e+00 0.0000000000000000e+00  -2.7161228472697554e+05 1.2505392732696571e+05 0.0000000000000000e+00 1.2505392732696570e+05 4.3148121451178583e+05 0.0000000000000000e+00 0.0000000000000000e+00 0.0000000000000000e+00 0.0000000000000000e+00  1.5456709044281335e+05 2.3326764398283613e+05 0.0000000000000000e+00 2.3326764398283613e+05 2.0184609915058460e+05 0.0000000000000000e+00 0.0000000000000000e+00 0.0000000000000000e+00 0.0000000000000000e+00  6.9600848566121655e+04 -9.5713436968520982e+04 0.0000000000000000e+00 -9.5713436968520982e+04 -1.3088267747545511e+04 0.0000000000000000e+00 0.0000000000000000e+00 0.0000000000000000e+00 0.0000000000000000e+00  9.2125278129637218e+05 -2.5691288491924605e+05 0.0000000000000000e+00 -2.5691288491924605e+05 -7.8116211145144393e+04 0.0000000000000000e+00 0.0000000000000000e+00 0.0000000000000000e+00 0.0000000000000000e+00  6.9301817513916292e+05 -4.2377033744445984e+05 0.0000000000000000e+00 -4.2377033744445984e+05 -4.8805951340347202e+05 0.0000000000000000e+00 0.0000000000000000e+00 0.0000000000000000e+00 0.0000000000000000e+00  -6.2921246576726818e+06 2.5354618507116986e+05 0.0000000000000000e+00 2.5354618507116981e+05 9.6460522655678928e+04 0.0000000000000000e+00 0.0000000000000000e+00 0.0000000000000000e+00 0.0000000000000000e+00  -1.6863083920598730e+07 -3.2839698362691635e+06 0.0000000000000000e+00 -3.2839698362691635e+06 -1.5539936557040145e+06 0.0000000000000000e+00 0.0000000000000000e+00 0.0000000000000000e+00 0.0000000000000000e+00  -2.9975373558520015e+07 -8.1523868953083456e+06 0.0000000000000000e+00 -8.1523868953083456e+06 -3.2492727381172520e+06 0.0000000000000000e+00 0.0000000000000000e+00 0.0000000000000000e+00 0.0000000000000000e+00  -2.0437615248948678e+07 -5.8625016455386421e+06 0.0000000000000000e+00 -5.8625016455386421e+06 3.0085981713422574e+06 0.0000000000000000e+00 0.0000000000000000e+00 0.0000000000000000e+00 0.0000000000000000e+00  -3.7301863520341585e+06 1.1678393330611310e+06 0.0000000000000000e+00 1.1678393330611310e+06 5.3197810210062720e+07 0.0000000000000000e+00 0.0000000000000000e+00 0.0000000000000000e+00 0.0000000000000000e+00  1.5002059898426322e+07 -1.8189227720523927e+07 0.0000000000000000e+00 -1.8189227720523927e+07 1.0498156434570614e+08 0.0000000000000000e+00 0.0000000000000000e+00 0.0000000000000000e+00 0.0000000000000000e+00  -2.3687212466408830e+05 4.1255791764981172e+05 0.0000000000000000e+00 4.1255791764981142e+05 7.5484313940199077e+07 0.0000000000000000e+00 0.0000000000000000e+00 0.0000000000000000e+00 0.0000000000000000e+00  3.0817287950230995e+05 -2.7489689539073413e+05 0.0000000000000000e+00 -2.7489689539073413e+05 7.8691429672243685e+07 0.0000000000000000e+00 0.0000000000000000e+00 0.0000000000000000e+00 0.0000000000000000e+00  1.7940163390727431e+05 -4.2143603512761462e+05 0.0000000000000000e+00 -4.2143603512761462e+05 7.6829390447598025e+07 0.0000000000000000e+00 0.0000000000000000e+00 0.0000000000000000e+00 0.0000000000000000e+00  2.6519644694080231e+04 4.0727424385646568e+05 0.0000000000000000e+00 4.0727424385646568e+05 7.3942570352386564e+07 0.0000000000000000e+00 0.0000000000000000e+00 0.0000000000000000e+00 0.0000000000000000e+00  8.3266708891296032e+04 -8.8026166909491469e+04 0.0000000000000000e+00 -8.8026166909491410e+04 -2.7966571399010171e+05 0.0000000000000000e+00 0.0000000000000000e+00 0.0000000000000000e+00 0.0000000000000000e+00  -1.2810717148208176e+04 1.1339495569523005e+05 0.0000000000000000e+00 1.1339495569523003e+05 4.3715191850778746e+05 0.0000000000000000e+00 0.0000000000000000e+00 0.0000000000000000e+00 0.0000000000000000e+00  -2.4377045843676411e+05 3.2649625420449325e+05 0.0000000000000000e+00 3.2649625420449325e+05 -3.7817104366442986e+05 0.0000000000000000e+00 0.0000000000000000e+00 0.0000000000000000e+00 0.0000000000000000e+00  -9.9851121216629384e+04 4.3643801661687867e+04 0.0000000000000000e+00 4.3643801661687918e+04 -3.7024922584929614e+05 0.0000000000000000e+00 0.0000000000000000e+00 0.0000000000000000e+00 0.0000000000000000e+00  2.1718980153738835e+05 1.4543209847890045e+06 0.0000000000000000e+00 1.4543209847890045e+06 -4.6308688915414251e+06 0.0000000000000000e+00 0.0000000000000000e+00 0.0000000000000000e+00 0.0000000000000000e+00  -2.9481336217298714e+05 -8.1274755266114534e+05 0.0000000000000000e+00 -8.1274755266114534e+05 -1.4453463180811694e+06 0.0000000000000000e+00 0.0000000000000000e+00 0.0000000000000000e+00 0.0000000000000000e+00  -2.3806588041439652e+06 -3.1003364445932116e+06 0.0000000000000000e+00 -3.1003364445932116e+06 -1.4880284178051110e+07 0.0000000000000000e+00 0.0000000000000000e+00 0.0000000000000000e+00 0.0000000000000000e+00  -1.4675447285008735e+06 -1.4428964867637020e+06 0.0000000000000000e+00 -1.4428964867637018e+06 -1.9677044292330756e+06 0.0000000000000000e+00 0.0000000000000000e+00 0.0000000000000000e+00 0.0000000000000000e+00  -1.3496281504670262e+07 -1.1299146396073485e+07 0.0000000000000000e+00 -1.1299146396073485e+07 -1.7148645801309481e+07 0.0000000000000000e+00 0.0000000000000000e+00 0.0000000000000000e+00 0.0000000000000000e+00  7.4016400770671666e+05 -1.3049886305954687e+06 0.0000000000000000e+00 -1.3049886305954687e+06 1.3734137334418078e+06 0.0000000000000000e+00 0.0000000000000000e+00 0.0000000000000000e+00 0.0000000000000000e+00  -1.7085275790904704e+07 -7.8268203379169218e+06 0.0000000000000000e+00 -7.8268203379169218e+06 -4.4192114740228262e+06 0.0000000000000000e+00 0.0000000000000000e+00 0.0000000000000000e+00 0.0000000000000000e+00  -2.2782825981359845e+06 5.1218849682428065e+05 0.0000000000000000e+00 5.1218849682428065e+05 2.0242679405417196e+07 0.0000000000000000e+00 0.0000000000000000e+00 0.0000000000000000e+00 0.0000000000000000e+00  -6.6170463025472388e+06 -8.4023611873078416e+05 0.0000000000000000e+00 -8.4023611873078393e+05 7.7960772044209138e+04 0.0000000000000000e+00 0.0000000000000000e+00 0.0000000000000000e+00 0.0000000000000000e+00  1.3022225635830130e+07 -2.4126598602738608e+07 0.0000000000000000e+00 -2.4126598602738608e+07 5.9756223701328702e+07 0.0000000000000000e+00 0.0000000000000000e+00 0.0000000000000000e+00 0.0000000000000000e+00  -4.7184583416839124e+05 -5.4040457730337523e+05 0.0000000000000000e+00 -5.4040457730337547e+05 -1.7750302651858129e+05 0.0000000000000000e+00 0.0000000000000000e+00 0.0000000000000000e+00 0.0000000000000000e+00  5.2126502730278015e+07 -9.0644795917247936e+07 0.0000000000000000e+00 -9.0644795917247936e+07 7.7017216214258820e+07 0.0000000000000000e+00 0.0000000000000000e+00 0.0000000000000000e+00 0.0000000000000000e+00  -1.3163453528422087e+04 1.0020055614728837e+06 0.0000000000000000e+00 1.0020055614728837e+06 4.6203482777427352e+05 0.0000000000000000e+00 0.0000000000000000e+00 0.0000000000000000e+00 0.0000000000000000e+00  9.3519446454426780e+07 -7.0810921460366547e+07 0.0000000000000000e+00 -7.0810921460366547e+07 -9.4970795162816513e+06 0.0000000000000000e+00 0.0000000000000000e+00 0.0000000000000000e+00 0.0000000000000000e+00  -8.5226602476506680e+05 -5.4441081348662334e+05 0.0000000000000000e+00 -5.4441081348662346e+05 -1.1436688021067859e+05 0.0000000000000000e+00 0.0000000000000000e+00 0.0000000000000000e+00 0.0000000000000000e+00  -3.7194677563867636e+07 -9.1173777318265140e+07 0.0000000000000000e+00 -9.1173777318265140e+07 6.3518864126086965e+07 0.0000000000000000e+00 0.0000000000000000e+00 0.0000000000000000e+00 0.0000000000000000e+00  -6.8013307461512403e+05 -6.7037832800131768e+05 0.0000000000000000e+00 -6.7037832800131757e+05 -7.3883377090815490e+05 0.0000000000000000e+00 0.0000000000000000e+00 0.0000000000000000e+00 0.0000000000000000e+00  -1.2525304669559427e+08 -1.0873067541461892e+07 0.0000000000000000e+00 -1.0873067541461892e+07 1.3642614792778684e+07 0.0000000000000000e+00 0.0000000000000000e+00 0.0000000000000000e+00 0.0000000000000000e+00  7.5407795345985878e+05 2.0183077550867500e+05 0.0000000000000000e+00 2.0183077550867500e+05 -1.7935277044770910e+05 0.0000000000000000e+00 0.0000000000000000e+00 0.0000000000000000e+00 0.0000000000000000e+00  -8.9352392336365744e+07 -2.7529958302624766e+07 0.0000000000000000e+00 -2.7529958302624766e+07 3.3234890121227237e+06 0.0000000000000000e+00 0.0000000000000000e+00 0.0000000000000000e+00 0.0000000000000000e+00  -3.1903815509170422e+05 3.3582422368676460e+05 0.0000000000000000e+00 3.3582422368676460e+05 1.5021902213111873e+04 0.0000000000000000e+00 0.0000000000000000e+00 0.0000000000000000e+00 0.0000000000000000e+00  -3.3790881428092897e+07 -1.4678414450597426e+07 0.0000000000000000e+00 -1.4678414450597426e+07 -9.5557243112414964e+06 0.0000000000000000e+00 0.0000000000000000e+00 0.0000000000000000e+00 0.0000000000000000e+00  5.6254132114301377e+04 1.6717272685316022e+05 0.0000000000000000e+00 1.6717272685316022e+05 7.3011569735942408e+05 0.0000000000000000e+00 0.0000000000000000e+00 0.0000000000000000e+00 0.0000000000000000e+00  -1.9926175673765503e+07 -7.0573576466356963e+06 0.0000000000000000e+00 -7.0573576466356963e+06 -9.0296877668744139e+05 0.0000000000000000e+00 0.0000000000000000e+00 0.0000000000000000e+00 0.0000000000000000e+00  2.5773464429377826e+05 -5.6778494552329322e+05 0.0000000000000000e+00 -5.6778494552329322e+05 -5.0445137367916940e+05 0.0000000000000000e+00 0.0000000000000000e+00 0.0000000000000000e+00 0.0000000000000000e+00  -1.7991241124919962e+07 -5.2376194951660652e+06 0.0000000000000000e+00 -5.2376194951660652e+06 -7.7098869887979433e+05 0.0000000000000000e+00 0.0000000000000000e+00 0.0000000000000000e+00 0.0000000000000000e+00  -4.5932338715488760e+05 -5.3905142493088439e+05 0.0000000000000000e+00 -5.3905142493088439e+05 -5.3745563662057910e+06 0.0000000000000000e+00 0.0000000000000000e+00 0.0000000000000000e+00 0.0000000000000000e+00  -1.6581357457407821e+07 -1.5683116876205425e+06 0.0000000000000000e+00 -1.5683116876205425e+06 1.2080138915453786e+06 0.0000000000000000e+00 0.0000000000000000e+00 0.0000000000000000e+00 0.0000000000000000e+00  -1.3036646574785018e+06 -3.3077054844046799e+06 0.0000000000000000e+00 -3.3077054844046799e+06 -2.0542632327944115e+07 0.0000000000000000e+00 0.0000000000000000e+00 0.0000000000000000e+00 0.0000000000000000e+00  -1.0050464272970671e+07 6.8110733507761452e+05 0.0000000000000000e+00 6.8110733507761452e+05 2.4330243390089665e+06 0.0000000000000000e+00 0.0000000000000000e+00 0.0000000000000000e+00 0.0000000000000000e+00  -8.9175530444586165e+06 -2.1723140972770553e+07 0.0000000000000000e+00 -2.1723140972770553e+07 -4.6974572456805326e+07 0.0000000000000000e+00 0.0000000000000000e+00 0.0000000000000000e+00 0.0000000000000000e+00  1.8734153910252739e+07 1.4511214292789115e+07 0.0000000000000000e+00 1.4511214292789115e+07 1.3066329559538836e+07 0.0000000000000000e+00 0.0000000000000000e+00 0.0000000000000000e+00 0.0000000000000000e+00  -6.1817418808825500e+07 -3.4546852315418050e+07 0.0000000000000000e+00 -3.4546852315418050e+07 -4.0319953604586706e+07 0.0000000000000000e+00 0.0000000000000000e+00 0.0000000000000000e+00 0.0000000000000000e+00  5.4210297676232785e+07 5.3427010936882108e+07 0.0000000000000000e+00 5.3427010936882108e+07 6.5699622357863285e+07 0.0000000000000000e+00 0.0000000000000000e+00 0.0000000000000000e+00 0.0000000000000000e+00  -9.6183953872928470e+07 -1.3521333330662550e+07 0.0000000000000000e+00 -1.3521333330662550e+07 -1.4160736534290301e+07 0.0000000000000000e+00 0.0000000000000000e+00 0.0000000000000000e+00 0.0000000000000000e+00  5.0727997888149753e+07 7.5214217750076175e+07 0.0000000000000000e+00 7.5214217750076175e+07 1.8435141376245096e+08 0.0000000000000000e+00 0.0000000000000000e+00 0.0000000000000000e+00 0.0000000000000000e+00  -4.6140931258468717e+07 1.2493102021080783e+07 0.0000000000000000e+00 1.2493102021080783e+07 -5.3734469070576988e+06 0.0000000000000000e+00 0.0000000000000000e+00 0.0000000000000000e+00 0.0000000000000000e+00  3.3475067382605910e+07 1.1091359949434316e+07 0.0000000000000000e+00 1.1091359949434316e+07 2.370346798561