<?xml version="1.0"?>
<VTKFile type="UnstructuredGrid"  version="0.1"  >
<UnstructuredGrid>
<Piece  NumberOfPoints="973" NumberOfCells="1590">
<Points>
<DataArray  type="Float64"  NumberOfComponents="3"  format="ascii">0.8695486506004265 0.9149212970857765 0  0.8795575515183385 0.9053991981104683 0  0.8992144474596383 0.8731592779511718 0  0.917313712397317 0.8336403807724365 0  0.8831658291457286 0.8325791000415457 0  0.8632640703580883 0.8217570271876737 0  0.8468141956199796 0.805020054679577 0  0.8119103229472673 0.7497718013845706 0  0.7847089815472639 0.6922110552763819 0  0.7851182647038494 0.657035175879397 0  0.8012987666440746 0.6338300671294299 0  0.7999325753108588 0.6280783369365488 0  0.7076051131313522 0.6280783369365488 0  0.7062389217981364 0.6338300671294299 0  0.7224194237383617 0.657035175879397 0  0.7211261600739466 0.699748743718593 0  0.6809879902634276 0.7750665143941113 0  0.6529589343401938 0.8139648050748188 0  0.6268844221105527 0.8317927639628946 0  0.5902239760448941 0.8336403807724365 0  0.6083232409825727 0.8731592779511718 0  0.6279801369238726 0.9053991981104683 0  0.6382564557176629 0.9149212970857765 0  0.6513149339638032 0.8887757870933547 0  0.6796482412060302 0.8704971312800694 0  0.7047738693467337 0.865542363695159 0  0.8128140703517588 0.8664197973577616 0  0.8304020100502513 0.8712785733905628 0  0.8498795208896094 0.8826189502636981 0  0.8611751231301004 0.8957286432160804 0  0.03120565198718914 0.2223618090452261 0  0.04652619829663338 0.1958269000992059 0  0.03148884686954137 0.2600502512562814 0  0.03025248727335772 0.1909089687584135 0  0.06148798342767797 0.3206690165036631 0  0 0.1902067591362858 0  0.09438276342750571 0.372250195500745 0  0 0 0  0.1243718592964824 0.3952181321450672 0  1 0 0  0.1419597989949749 0.3994475725510541 0  1 0.1902228906776714 0  0.1658641235582034 0.3970540264869247 0  0.974772638354783 0.1909089687584135 0  0.1407046614791564 0.4472431216432439 0  0.9584989273315072 0.1958269000992059 0  0.1168341708542714 0.4802949269857682 0  0.9738194736409516 0.2223618090452261 0  0.1013776733140558 0.4519608023721668 0  0.9735362787585994 0.2600502512562814 0  0.08165829145728644 0.4388095726990909 0  0.9435371422004627 0.3206690165036631 0  0.03894472361809045 0.4294192676356222 0  0.9106423622006351 0.372250195500745 0  0 0.4287681695056764 0  0.8806532663316583 0.3952181321450672 0  0 0.4816619108906107 0  0.8630653266331658 0.3994475725510541 0  0.04131695067064219 0.48208821976314 0  0.8391610020699373 0.3969482906300933 0  0.04750298015734593 0.4862483690180164 0  0.8643204641489842 0.4472431216432439 0  0.03154710086272915 0.5113065326633166 0  0.8881909547738693 0.4802949269857682 0  0.03193331855734387 0.5515075376884422 0  0.9036474523140849 0.4519608023721668 0  0.0580103309997911 0.6040887359756993 0  0.9233668341708543 0.4388095726990909 0  0.09585414514340396 0.6631155088130363 0  0.9635678391959799 0.4297406964460953 0  0.1109313544083077 0.6777743671573695 0  1 0.4287721266941243 0  0.1268844221105528 0.6866468960106996 0  1 0.4816598972394119 0  0.16387855587279 0.6896984924623115 0  0.9614762836664653 0.482304113455385 0  0.140343151352606 0.7373130518901987 0  0.9575221454707947 0.4862483690180164 0  0.1160214959380506 0.7695870037037399 0  0.9734780247654116 0.5113065326633166 0  0.1021775379849486 0.7431396043838456 0  0.973091807070797 0.5515075376884422 0  0.07663316582914573 0.7259945226756654 0  0.9482710760353849 0.6018737371997933 0  0.04899497487437186 0.7198759144196609 0  0.9120835844715914 0.6593466645919308 0  0 0.7193472877444653 0  0.8995089421796305 0.6733987588305881 0  0 1 0  0.880570003764542 0.68561961049426 0  1 1 0  0.8411465697553507 0.6896984924623115 0  1 0.7193466015246112 0  0.8646819742755346 0.7373130518901987 0  0.9535175879396985 0.7201006665769704 0  0.8890036296900902 0.7695870037037399 0  0.9205221827987856 0.7294897408914726 0  0.9015913062361569 0.7447096720549632 0  0.3665852782849453 0.3344881587827586 0  0.3719101289707974 0.331889755966201 0  0.3591088231444994 0.315530138270635 0  0.4066920506797636 0.2750133324087798 0  0.3467041799576961 0.3015692907664415 0  0.4154226117453524 0.2525125628140704 0  0.3178391959798995 0.2876231502144235 0  0.3881909547738693 0.2542001319426752 0  0.25 0.2831119328574048 0  0.361335258278508 0.2425363574632786 0  0.1821608040201005 0.2880468788576271 0  0.3444016341345427 0.2248743718592965 0  0.1506758673688177 0.3062921675224149 0  0.3126948844575574 0.1749817120767768 0  0.1359272845291251 0.3344881587827586 0  0.2893402511830459 0.1317939430130972 0  0.1306024338432729 0.331889755966201 0  0.2820647804746255 0.1092964824120603 0  0.1105504648495164 0.3015217657873918 0  0.2827210352717234 0.07663316582914573 0  0.08708995106871799 0.2525125628140704 0  0.2994060760176966 0.05005326456567486 0  0.114321608040201 0.2542001319426752 0  0.2525125628140704 0.04583578379959274 0  0.1411773045355623 0.2425363574632786 0  0.2031064867963737 0.05005326456567486 0  0.1581109286795277 0.2248743718592965 0  0.219791527542347 0.07663316582914573 0  0.1898176783565129 0.1749817120767768 0  0.2204477823394448 0.1092964824120603 0  0.2131723116310244 0.1317939430130972 0  0.359581598973274 0.6067839195979899 0  0.3673777144482617 0.6243060240027708 0  0.3472042152021126 0.591632579921835 0  0.3917452390341087 0.5921095580825279 0  0.3253768844221105 0.5799589027734776 0  0.4122850276955486 0.5547272787009777 0  0.2977386934673367 0.5747318540751086 0  0.415203090622524 0.542418786356144 0  0.2123115577889447 0.5741695398168789 0  0.3781407035175879 0.5415313454043965 0  0.1771356783919598 0.5799589027734776 0  0.3564378005690081 0.5286341208344542 0  0.1494780630820338 0.5975405559064961 0  0.3345641679476409 0.5012562814070352 0  0.1358358971376286 0.6243060240027708 0  0.308918258774928 0.4585427135678392 0  0.1107673237799617 0.5921095580825279 0  0.2887453651684737 0.4208542713567839 0  0.08664957839437248 0.5439698492462312 0  0.280880002697616 0.3877879341395108 0  0.1243718592964824 0.5415313454043965 0  0.2830522715617858 0.3655778894472362 0  0.1348840161877657 0.536699408011087 0  0.2984262121729533 0.3412105449039721 0  0.1518866940399183 0.5229949996504618 0  0.2826633165829145 0.3362893418409337 0  0.1731581440543882 0.493517269164229 0  0.207286432160804 0.3390980727975232 0  0.2193704015325337 0.4057788944723618 0  0.204086350641117 0.3425201591054635 0  0.2201532728594466 0.3680904522613065 0  0.8690978410990156 0.3344881587827586 0  0.8744226917848678 0.331889755966201 0  0.8616213859585697 0.315530138270635 0  0.909204613493834 0.2750133324087798 0  0.8492167427717665 0.3015692907664415 0  0.9179351745594226 0.2525125628140704 0  0.8203517587939698 0.2876231502144235 0  0.8907035175879398 0.2542001319426752 0  0.7525125628140703 0.2831119328574048 0  0.8638478210925783 0.2425363574632786 0  0.6846733668341709 0.2880468788576271 0  0.8469141969486128 0.2248743718592965 0  0.653188430182888 0.3062921675224149 0  0.8152074472716276 0.1749817120767768 0  0.6384398473431955 0.3344881587827586 0  0.7918528139971163 0.1317939430130972 0  0.6331149966573433 0.331889755966201 0  0.7845773432886959 0.1092964824120603 0  0.6130630276635868 0.3015217657873918 0  0.7852335980857937 0.07663316582914573 0  0.5896025138827884 0.2525125628140704 0  0.8019186388317668 0.05005326456567486 0  0.6168341708542714 0.2542001319426752 0  0.7550251256281407 0.04583578379959274 0  0.6436898673496327 0.2425363574632786 0  0.7056190496104442 0.05005326456567486 0  0.6606234914935982 0.2248743718592965 0  0.7223040903564174 0.07663316582914573 0  0.6923302411705834 0.1749817120767768 0  0.7229603451535151 0.1092964824120603 0  0.7156848744450948 0.1317939430130972 0  0.6178198336378018 0.480249288952687 0  0.6231457650170484 0.4775238487726102 0  0.6105496054743088 0.4611638166264539 0  0.6432172242932268 0.4472431216432439 0  0.5922808691294706 0.4430260299550813 0  0.6683533678192336 0.3968750226440491 0  0.571608040201005 0.4337271656150724 0  0.6419597989949749 0.3991410471643145 0  0.5414572864321608 0.4294192676356222 0  0.6168341708542714 0.3899060751920646 0  0.4685929648241206 0.4290498192284561 0  0.596895326241576 0.372250195500745 0  0.4309045226130653 0.4345097302632596 0  0.5652568276487835 0.3228249357650404 0  0.4011348895000145 0.4519608023721668 0  0.5336199590092805 0.257537688442211 0  0.3872052919903389 0.480249288952687 0  0.5337182148012595 0.2223618090452261 0  0.3818793606110922 0.4775238487726102 0  0.5490387611107037 0.1958269000992059 0  0.3618079013349139 0.4472431216432439 0  0.532765050087428 0.1909089687584135 0  0.3366717578089071 0.3968750226440491 0  0.5037688442211056 0.1902117371149184 0  0.3630653266331658 0.3991410471643145 0  0.4722600755407126 0.1909089687584135 0  0.3881909547738693 0.3899060751920646 0  0.455986364517437 0.1958269000992059 0  0.4081297993865646 0.372250195500745 0  0.4713069108268813 0.2223618090452261 0  0.4397682979793572 0.3228249357650404 0  0.4714051666188602 0.257537688442211 0  0.8620941617873444 0.6067839195979899 0  0.869890277262332 0.6243060240027708 0  0.8497167780161829 0.591632579921835 0  0.894257801848179 0.5921095580825279 0  0.8278894472361809 0.5799589027734776 0  0.914797590509619 0.5547272787009777 0  0.800251256281407 0.5747318540751086 0  0.9177156534365944 0.542418786356144 0  0.714824120603015 0.5741695398168789 0  0.8806532663316583 0.5415313454043965 0  0.6796482412060302 0.5799589027734776 0  0.8589503633830784 0.5286341208344542 0  0.6519906258961042 0.5975405559064961 0  0.8370767307617113 0.5012562814070352 0  0.638348459951699 0.6243060240027708 0  0.8114308215889985 0.4585427135678392 0  0.613279886594032 0.5921095580825279 0  0.7912579279825439 0.4208542713567839 0  0.5891621412084429 0.5439698492462312 0  0.7833925655116863 0.3877879341395108 0  0.6268844221105527 0.5415313454043965 0  0.7855648343758561 0.3655778894472362 0  0.637396579001836 0.536699408011087 0  0.8009387749870
[...]
<PointData  Tensors="$\sigma$"> 
<DataArray  type="Float64"  Name="$\sigma$"  NumberOfComponents="9" format="ascii">6.9903806343145808e+06 -1.5258803844197392e+07 0.0000000000000000e+00 -1.5258803844197392e+07 1.5847942546077067e+07 0.0000000000000000e+00 0.0000000000000000e+00 0.0000000000000000e+00 0.0000000000000000e+00  1.9339900532874208e+07 -2.3055931377411596e+07 0.0000000000000000e+00 -2.3055931377411596e+07 4.7360547748181477e+07 0.0000000000000000e+00 0.0000000000000000e+00 0.0000000000000000e+00 0.0000000000000000e+00  7.5481150693960777e+06 -3.2458675200812250e+07 0.0000000000000000e+00 -3.2458675200812250e+07 1.0996778582021327e+08 0.0000000000000000e+00 0.0000000000000000e+00 0.0000000000000000e+00 0.0000000000000000e+00  5.9888809728534520e+07 6.8214417110034162e+06 0.0000000000000000e+00 6.8214417110034162e+06 1.1722881742908689e+08 0.0000000000000000e+00 0.0000000000000000e+00 0.0000000000000000e+00 0.0000000000000000e+00  4.4216903219934143e+07 3.8008129476616777e+07 0.0000000000000000e+00 3.8008129476616777e+07 -1.2866690605628315e+07 0.0000000000000000e+00 0.0000000000000000e+00 0.0000000000000000e+00 0.0000000000000000e+00  -1.2805182085601084e+07 3.0271628825090067e+06 0.0000000000000000e+00 3.0271628825090067e+06 8.4938613048909232e+06 0.0000000000000000e+00 0.0000000000000000e+00 0.0000000000000000e+00 0.0000000000000000e+00  -2.4337821368322961e+07 -2.2465549159005817e+07 0.0000000000000000e+00 -2.2465549159005817e+07 1.1012026487620816e+07 0.0000000000000000e+00 0.0000000000000000e+00 0.0000000000000000e+00 0.0000000000000000e+00  -1.7122026385743890e+07 -4.1651151095119610e+07 0.0000000000000000e+00 -4.1651151095119610e+07 -4.5966965793014981e+07 0.0000000000000000e+00 0.0000000000000000e+00 0.0000000000000000e+00 0.0000000000000000e+00  2.2576189142819978e+06 -3.1430283801926669e+07 0.0000000000000000e+00 -3.1430283801926669e+07 -9.5866322291067809e+07 0.0000000000000000e+00 0.0000000000000000e+00 0.0000000000000000e+00 0.0000000000000000e+00  5.5831354596809354e+06 2.3120116291121084e+07 0.0000000000000000e+00 2.3120116291121084e+07 -8.3274256641382173e+07 0.0000000000000000e+00 0.0000000000000000e+00 0.0000000000000000e+00 0.0000000000000000e+00  2.3233520397594530e+07 4.6631770230361529e+07 0.0000000000000000e+00 4.6631770230361529e+07 1.2108281369344609e+07 0.0000000000000000e+00 0.0000000000000000e+00 0.0000000000000000e+00 0.0000000000000000e+00  8.1717012512156874e+07 1.1384067413863309e+07 0.0000000000000000e+00 1.1384067413863309e+07 2.0668743718735285e+07 0.0000000000000000e+00 0.0000000000000000e+00 0.0000000000000000e+00 0.0000000000000000e+00  1.1655585709881796e+08 -3.4305841511812098e+07 0.0000000000000000e+00 -3.4305841511812098e+07 4.8231165183431871e+07 0.0000000000000000e+00 0.0000000000000000e+00 0.0000000000000000e+00 0.0000000000000000e+00  1.3195433808541734e+07 -6.7683349413533062e+07 0.0000000000000000e+00 -6.7683349413533062e+07 4.4391743540784970e+07 0.0000000000000000e+00 0.0000000000000000e+00 0.0000000000000000e+00 0.0000000000000000e+00  -3.6936501087310319e+06 -6.0435473762506777e+06 0.0000000000000000e+00 -6.0435473762506777e+06 -6.2966087088145010e+07 0.0000000000000000e+00 0.0000000000000000e+00 0.0000000000000000e+00 0.0000000000000000e+00  7.7455270732709551e+06 2.0434626152381808e+07 0.0000000000000000e+00 2.0434626152381808e+07 -9.2994108331268772e+07 0.0000000000000000e+00 0.0000000000000000e+00 0.0000000000000000e+00 0.0000000000000000e+00  -1.6467580757367970e+07 1.0662565945981612e+07 0.0000000000000000e+00 1.0662565945981612e+07 2.0409114302246124e+07 0.0000000000000000e+00 0.0000000000000000e+00 0.0000000000000000e+00 0.0000000000000000e+00  1.5708223717774447e+07 -3.1678615782851551e+07 0.0000000000000000e+00 -3.1678615782851551e+07 3.1284391174051065e+07 0.0000000000000000e+00 0.0000000000000000e+00 0.0000000000000000e+00 0.0000000000000000e+00  1.1450286749512297e+08 -5.3568843500630423e+07 0.0000000000000000e+00 -5.3568843500630423e+07 2.0423715367232987e+06 0.0000000000000000e+00 0.0000000000000000e+00 0.0000000000000000e+00 0.0000000000000000e+00  7.6837955816521421e+07 -2.6046858342666231e+07 0.0000000000000000e+00 -2.6046858342666231e+07 6.9170356300515220e+07 0.0000000000000000e+00 0.0000000000000000e+00 0.0000000000000000e+00 0.0000000000000000e+00  -1.7384650466746632e+07 1.2044110196069734e+07 0.0000000000000000e+00 1.2044110196069734e+07 4.0046098547540128e+07 0.0000000000000000e+00 0.0000000000000000e+00 0.0000000000000000e+00 0.0000000000000000e+00  9.6893470274968836e+06 -1.6924207620197388e+06 0.0000000000000000e+00 -1.6924207620197388e+06 -5.9829695334076723e+06 0.0000000000000000e+00 0.0000000000000000e+00 0.0000000000000000e+00 0.0000000000000000e+00  -8.8608246914808005e+06 3.0034437628327711e+06 0.0000000000000000e+00 3.0034437628327711e+06 -3.1326686466674451e+06 0.0000000000000000e+00 0.0000000000000000e+00 0.0000000000000000e+00 0.0000000000000000e+00  -7.2171719271068473e+05 2.4906840531039522e+06 0.0000000000000000e+00 2.4906840531039522e+06 -2.4962083985953867e+06 0.0000000000000000e+00 0.0000000000000000e+00 0.0000000000000000e+00 0.0000000000000000e+00  -1.3290571583924277e+06 9.8211574648460536e+05 0.0000000000000000e+00 9.8211574648460536e+05 -2.6072860327148388e+05 0.0000000000000000e+00 0.0000000000000000e+00 0.0000000000000000e+00 0.0000000000000000e+00  -3.4912457419587150e+06 5.2526333366485150e+05 0.0000000000000000e+00 5.2526333366485150e+05 2.3326909279237469e+05 0.0000000000000000e+00 0.0000000000000000e+00 0.0000000000000000e+00 0.0000000000000000e+00  -5.0122454832594078e+06 -7.6287228819261130e+05 0.0000000000000000e+00 -7.6287228819261130e+05 6.7883492922157981e+05 0.0000000000000000e+00 0.0000000000000000e+00 0.0000000000000000e+00 0.0000000000000000e+00  -4.1045080828436711e+06 -2.0581782700544004e+06 0.0000000000000000e+00 -2.0581782700544004e+06 -4.4835459759189363e+05 0.0000000000000000e+00 0.0000000000000000e+00 0.0000000000000000e+00 0.0000000000000000e+00  -3.9633497772069969e+06 -3.8112414770627972e+06 0.0000000000000000e+00 -3.8112414770627972e+06 -6.3046832858986966e+05 0.0000000000000000e+00 0.0000000000000000e+00 0.0000000000000000e+00 0.0000000000000000e+00  -4.8325222628984451e+06 -2.0722664012145514e+06 0.0000000000000000e+00 -2.0722664012145514e+06 -1.4223453931767210e+07 0.0000000000000000e+00 0.0000000000000000e+00 0.0000000000000000e+00 0.0000000000000000e+00  -3.8542475792753757e+06 1.6164802953444872e+07 0.0000000000000000e+00 1.6164802953444872e+07 -3.2489925051924936e+07 0.0000000000000000e+00 0.0000000000000000e+00 0.0000000000000000e+00 0.0000000000000000e+00  1.1108651095858812e+07 1.9860767084089279e+07 0.0000000000000000e+00 1.9860767084089279e+07 3.2967126889842801e+07 0.0000000000000000e+00 0.0000000000000000e+00 0.0000000000000000e+00 0.0000000000000000e+00  -9.4064352843795512e+06 -1.1970627339639464e+07 0.0000000000000000e+00 -1.1970627339639464e+07 -4.1696833735179201e+07 0.0000000000000000e+00 0.0000000000000000e+00 0.0000000000000000e+00 0.0000000000000000e+00  9.4402338884267770e+06 1.2254151028229082e+07 0.0000000000000000e+00 1.2254151028229082e+07 8.2726846064855885e+06 0.0000000000000000e+00 0.0000000000000000e+00 0.0000000000000000e+00 0.0000000000000000e+00  2.8849911845781528e+06 -1.2768019011143032e+07 0.0000000000000000e+00 -1.2768019011143032e+07 -2.4519330295903221e+07 0.0000000000000000e+00 0.0000000000000000e+00 0.0000000000000000e+00 0.0000000000000000e+00  3.7254006134816129e+06 2.5093123267782195e+06 0.0000000000000000e+00 2.5093123267782195e+06 3.2839486054989616e+06 0.0000000000000000e+00 0.0000000000000000e+00 0.0000000000000000e+00 0.0000000000000000e+00  -8.8712147165158223e+06 -8.3346672874300899e+06 0.0000000000000000e+00 -8.3346672874300899e+06 1.0295389868263803e+07 0.0000000000000000e+00 0.0000000000000000e+00 0.0000000000000000e+00 0.0000000000000000e+00  -8.0266433425734157e+05 9.2433281295783096e+05 0.0000000000000000e+00 9.2433281295783049e+05 3.1388645390056416e+07 0.0000000000000000e+00 0.0000000000000000e+00 0.0000000000000000e+00 0.0000000000000000e+00  -4.6992303088669572e+06 -3.5985089290622380e+06 0.0000000000000000e+00 -3.5985089290622380e+06 -1.3226713478281989e+06 0.0000000000000000e+00 0.0000000000000000e+00 0.0000000000000000e+00 0.0000000000000000e+00  7.1387465684505110e+05 -6.4655891397114750e+05 0.0000000000000000e+00 -6.4655891397114750e+05 3.2258181487183932e+07 0.0000000000000000e+00 0.0000000000000000e+00 0.0000000000000000e+00 0.0000000000000000e+00  6.0291959531014301e+07 2.2885042671401154e+07 0.0000000000000000e+00 2.2885042671401154e+07 -4.8315580461739160e+07 0.0000000000000000e+00 0.0000000000000000e+00 0.0000000000000000e+00 0.0000000000000000e+00  2.9377221242988929e+06 -2.4013172268704195e+06 0.0000000000000000e+00 -2.4013172268704195e+06 8.3864760517039159e+06 0.0000000000000000e+00 0.0000000000000000e+00 0.0000000000000000e+00 0.0000000000000000e+00  5.7244340871870592e+07 -1.7996976695860252e+07 0.0000000000000000e+00 -1.7996976695860252e+07 1.9432336481201121e+08 0.0000000000000000e+00 0.0000000000000000e+00 0.0000000000000000e+00 0.0000000000000000e+00  7.9803541719529750e+06 -1.0313184503702503e+07 0.0000000000000000e+00 -1.0313184503702503e+07 3.4573410046662549e+06 0.0000000000000000e+00 0.0000000000000000e+00 0.0000000000000000e+00 0.0000000000000000e+00  3.5121709679023951e+07 -8.3804340409517020e+07 0.0000000000000000e+00 -8.3804340409517020e+07 1.4768596331732947e+08 0.0000000000000000e+00 0.0000000000000000e+00 0.0000000000000000e+00 0.0000000000000000e+00  1.2057986973793184e+07 -1.8635755185453303e+07 0.0000000000000000e+00 -1.8635755185453303e+07 3.1544335110134911e+07 0.0000000000000000e+00 0.0000000000000000e+00 0.0000000000000000e+00 0.0000000000000000e+00  -2.3306054388312310e+07 -4.1497639686003998e+07 0.0000000000000000e+00 -4.1497639686003998e+07 4.2031997667408243e+07 0.0000000000000000e+00 0.0000000000000000e+00 0.0000000000000000e+00 0.0000000000000000e+00  -6.2522463727649776e+06 -1.0999954551232480e+07 0.0000000000000000e+00 -1.0999954551232480e+07 -3.2586986476569433e+07 0.0000000000000000e+00 0.0000000000000000e+00 0.0000000000000000e+00 0.0000000000000000e+00  -1.7015234297482722e+07 -1.3274829213978361e+07 0.0000000000000000e+00 -1.3274829213978361e+07 -3.3547066539603360e+07 0.0000000000000000e+00 0.0000000000000000e+00 0.0000000000000000e+00 0.0000000000000000e+00  1.2481556089874100e+07 2.8546887265723892e+07 0.0000000000000000e+00 2.8546887265723892e+07 -4.2935113431737155e+07 0.0000000000000000e+00 0.0000000000000000e+00 0.0000000000000000e+00 0.0000000000000000e+00  -1.8074542805448861e+06 1.8492035220663534e+06 0.0000000000000000e+00 1.8492035220663534e+06 2.0780548092212437e+06 0.0000000000000000e+00 0.0000000000000000e+00 0.0000000000000000e+00 0.0000000000000000e+00  -7.0528041196694700e+06 1.8557738613733299e+07 0.0000000000000000e+00 1.8557738613733299e+07 -1.4931096830338301e+07 0.0000000000000000e+00 0.0000000000000000e+00 0.0000000000000000e+00 0.0000000000000000e+00  2.6365607788877254e+06 3.7605788033957093e+05 0.0000000000000000e+00 3.7605788033957093e+05 -5.1315248057709419e+05 0.0000000000000000e+00 0.0000000000000000e+00 0.0000000000000000e+00 0.0000000000000000e+00  -1.5538482556461984e+07 5.3852830085849576e+06 0.0000000000000000e+00 5.3852830085849576e+06 1.6780589525644399e+07 0.0000000000000000e+00 0.0000000000000000e+00 0.0000000000000000e+00 0.0000000000000000e+00  2.8555972224789124e+05 -1.5596452757945706e+06 0.0000000000000000e+00 -1.5596452757945706e+06 1.8482179122420042e+05 0.0000000000000000e+00 0.0000000000000000e+00 0.0000000000000000e+00 0.0000000000000000e+00  -2.5194426299138409e+06 8.4280371111060847e+06 0.0000000000000000e+00 8.4280371111060865e+06 -9.0027542730002347e+06 0.0000000000000000e+00 0.0000000000000000e+00 0.0000000000000000e+00 0.0000000000000000e+00  -5.4609581522164354e+05 1.5744482628703527e+06 0.0000000000000000e+00 1.5744482628703527e+06 8.3131061718266481e+05 0.0000000000000000e+00 0.0000000000000000e+00 0.0000000000000000e+00 0.0000000000000000e+00  5.3677590877523921e+07 -2.1684404512621343e+07 0.0000000000000000e+00 -2.1684404512621343e+07 -3.7299777635079123e+07 0.0000000000000000e+00 0.0000000000000000e+00 0.0000000000000000e+00 0.0000000000000000e+00  5.9938747332238294e+06 -1.5674176831161652e+06 0.0000000000000000e+00 -1.5674176831161652e+06 1.7264278548807287e+05 0.0000000000000000e+00 0.0000000000000000e+00 0.0000000000000000e+00 0.0000000000000000e+00  5.4636665699136294e+07 2.3785990643372394e+07 0.0000000000000000e+00 2.3785990643372394e+07 1.9169118075384155e+08 0.0000000000000000e+00 0.0000000000000000e+00 0.0000000000000000e+00 0.0000000000000000e+00  -1.9028789373558272e+07 2.8858209290252227e+07 0.0000000000000000e+00 2.8858209290252227e+07 -4.4935156345342092e+07 0.0000000000000000e+00 0.0000000000000000e+00 0.0000000000000000e+00 0.0000000000000000e+00  1.9244636543238476e+07 8.7423969272936076e+07 0.0000000000000000e+00 8.7423969272936076e+07 1.5672549315209684e+08 0.0000000000000000e+00 0.0000000000000000e+00 0.0000000000000000e+00 0.0000000000000000e+00  9.8633058702472392e+06 5.9063584760576315e+07 0.0000000000000000e+00 5.9063584760576315e+07 -8.1471075317946702e+07 0.0000000000000000e+00 0.0000000000000000e+00 0.0000000000000000e+00 0.0000000000000000e+00  -2.3486335393907718e+07 3.7235263665831365e+07 0.0000000000000000e+00 3.7235263665831365e+07 3.7731091432315022e+07 0.0000000000000000e+00 0.0000000000000000e+00 0.0000000000000000e+00 0.0000000000000000e+00  3.4720592864194582e+06 -7.3013556185062915e+07 0.0000000000000000e+00 -7.3013556185062915e+07 -1.2505421430486970e+08 0.0000000000000000e+00 0.0000000000000000e+00 0.0000000000000000e+00 0.0000000000000000e+00  -1.8726068867546130e+07 1.4008347956173841e+07 0.0000000000000000e+00 1.4008347956173841e+07 -2.7122803574576952e+07 0.0000000000000000e+00 0.0000000000000000e+00 0.0000000000000000e+00 0.0000000000000000e+00  2.3372678360022190e+06 -4.5521130313659482e+07 0.0000000000000000e+00 -4.5521130313659482e+07 -6.4605270507530779e+07 0.0000000000000000e+00 0.0000000000000000e+00 0.0000000000000000e+00 0.0000000000000000e+00  -2.0937735993272759e+03 -1.4401131260071327e+06 0.0000000000000000e+00 -1.4401131260071325e+06 2.6323524195692637e+06 0.0000000000000000e+00 0.0000000000000000e+00 0.0000000000000000e+00 0.0000000000000000e+00  -1.8498415232480202e+07 -1.0125161027720908e+05 0.0000000000000000e+00 -1.0125161027720908e+05 1.3327398279652556e+07 0.0000000000000000e+00 0.0000000000000000e+00 0.0000000000000000e+00 0.0000000000000000e+00  2.8447316857094895e+06 -2.0103787195408301e+05 0.0000000000000000e+00 -2.0103787195408312e+05 -5.9772655720337317e+05 0.0000000000000000e+00 0.0000000000000000e+00 0.0000000000000000e+00 0.0000000000000000e+00  -8.0005857236316744e+06 -9.3907557454912383e+06 0.0000000000000000e+00 -9.3907557454912383e+06 6.7025028617210686e+06 0.0000000000000000e+00 0.0000000000000000e+00 0.0000000000000000e+00 0.0000000000000000e+00  9.1157113405246928e+05 3.3597157306024275e+05 0.0000000000000000e+00 3.3597157306024275e+05 7.2750705969847552e+05 0.0000000000000000e+00 0.0000000000000000e+00 0.0000000000000000e+00 0.0000000000000000e+00  7.3293372175298959e+07 3.3542452315867327e+07 0.0000000000000000e+00 3.3542452315867327e+07 -4.9194736747266658e+07 0.0000000000000000e+00 0.0000000000000000e+00 0.0000000000000000e+00 0.0000000000000000e+00  -1.2379542301844943e+06 -8.0254656445966393e+05 0.0000000000000000e+00 -8.0254656445966393e+05 1.2499736021202009e+06 0.0000000000000000e+00 0.0000000000000000e+00 0.0000000000000000e+00 0.0000000000000000e+00  4.3691449422869906e+07 -9.3191287800860964e+06 0.0000000000000000e+00 -9.3191287800860964e+06 1.9392701272367272e+08 0.0000000000000000e+00 0.0000000000000000e+00 0.0000000000000000e+00 0.0000000000000000e+00  6.1004535270777578e+06 3.1376548894601967e+05 0.0000000000000000e+00 3.1376548894601967e+05 -7.8237595864728810e+06 0.0000000000000000e+00 0.0000000000000000e+00 0.0000000000000000e+00 0.0000000000000000e+00  1.5756088694952521e+07 -6.4508701572408833e+07 0.0000000000000000e+00 -6.4508701572408833e+07 1.1492243753086720e+08 0.0000000000000000e+00 0.0000000000000000e+00 0.0000000000000000e+00 0.0000000000000000e+00  -1.6110776704122478e+07 -3.7299431521032050e+07 0.0000000000000000e+00 -3.7299431521032050e+07 -5.4682234709488131e+07 0.0000000000000000e+00 0.0000000000000000e+00 0.0000000000000000e+00 0.0000000000000000e+00  -1.7411113441585004e+07 -4.1718299134262048e+07 0.0000000000000000e+00 -4.1718299134262048e+07 1.4683396083893521e+07 0.0000000000000000e+00 0.0000000000000000e+00 0.0000000000000000e+00 0.0000000000000000e+00  -1.9163548606184924e+06 -3.5424740242229231e+07 0.0000000000000000e+00 -3.5424740242229231e+07 -1.0028937437460577e+08 0.0000000000000000e+00 0.0000000000000000e+00 0.0000000000000000e+00 0.0000000000000000e+00  -3.6779605220748320e+07 -2.7211303494444169e+07 0.0000000000000000e+00 -2.7211303494444169e+07 -3.3578009153853282e+07 0.0000000000000000e+00 0.0000000000000000e+00 0.0000000000000000e+00 0.0000000000000000e+00  1.5236252567332521e+07 4.0033400408214465e+07 0.0000000000000000e+00 4.0033400408214472e+07 -1.4760635845214319e+08 0.0000000000000000e+00 0.0000000000000000e+00 0.0000000000000000e+00 0.0000000000000000e+00  -7.7832784231788525e+06 -1.0653588919202429e+06 0.0000000000000000e+00 -1.0653588919202429e+06 1.0712901243185833e+07 0.0000000000000000e+00 0.0000000000000000e+00 0.0000000000000000e+00 0.0000000000000000e+00  -1.0345328993257878e+06 4.1328716159696050e+07 0.0000000000000000e+00 4.1328716159696050e+07 -3.7188445712037630e+07 0.0000000000000000e+00 0.0000000000000000e+00 0.0000000000000000e+00 0.0000000000000000e+00  -7.2657589559797673e+06 -8.2396716293428815e+05 0.0000000000000000e+00 -8.2396716293428815e+05 2.8183372245670360e+05 0.0000000000000000e+00 0.0000000000000000e+00 0.0000000000000000e+00 0.0000000000000000e+00  -2.8141517152966496e+07 8.2315929524803096e+06 0.0000000000000000e+00 8.2315929524803096e+06 5.8082655897795688e+06 0.0000000000000000e+00 0.0000000000000000e+00 0.0000000000000000e+00 0.0000000000000000e+00  -5.0598543468638333e+06 2.5861536939252471e+06 0.0000000000000000e+00 2.5861536939252471e+06 -8.7410956776522361e+06 0.0000000000000000e+00 0.0000000000000000e+00 0.0000000000000000e+00 0.0000000000000000e+00  -1.3380427496295848e+06 -2.0668921152908478e+06 0.0000000000000000e+00 -2.0668921152908478e+06 -2.4224330056399410e+06 0.0000000000000000e+00 0.0000000000000000e+00 0.0000000000000000e+00 0.0000000000000000e+00  -4.3807400532347951e+06 -2.3014737348529189e+06 0.0000000000000000e+00 -2.3014737348529189e+06 -7.2128215610184353e+06 0.0000000000000000e+00 0.0000000000000000e+00 0.0000000000000000e+00 0.0000000000000000e+00  6.5022334746918127e+07 -2.7057212060768921e+07 0.0000000000000000e+00 -2.7057212060768921e+07 -3.2247238979504295e+07 0.0000000000000000e+00 0.0000000000000000e+00 0.0000000000000000e+00 0.0000000000000000e+00  -1.7887814300845289e+06 2.3288847991297925e+06 0.0000000000000000e+00 2.3288847991297925e+06 -9.2479663440468758e+06 0.0000000000000000e+00 0.0000000000000000e+00 0.0000000000000000e+00 0.0000000000000000e+00  4.8925149023209415e+07 2.8962994970554458e+06 0.0000000000000000e+00 2.8962994970554458e+06 1.6519185397882745e+08 0.0000000000000000e+00 0.0000000000000000e+00 0.0000000000000000e+00 0.0000000000000000e+00  -1.1769333546256325e+06 -4.5958788938510614e+06 0.0000000000000000e+00 -4.5958788938510614e+06 -7.8968599424110660e+06 0.0000000000000000e+00 0.0000000000000000e+00 0.0000000000000000e+00 0.0000000000000000e+00  3.6208128160483710e+07 8.0245931487174183e+07 0.0000000000000000e+00 8.0245931487174183e+07 1.5539447507177481e+08 0.0000000000000000e+00 0.0000000000000000e+00 0.0000000000000000e+00 0.0000000000000000e+00  -6.3902566284578387e+06 -4.1166243262132694e+05 0.0000000000000000e+00 -4.1166243262132694e+05 4.9496246631850982e+06 0.0000000000000000e