<?xml version="1.0"?>
<VTKFile type="UnstructuredGrid"  version="0.1"  >
<UnstructuredGrid>
<Piece  NumberOfPoints="4290" NumberOfCells="8176">
<Points>
<DataArray  type="Float64"  NumberOfComponents="3"  format="ascii">0.08333333333333331 0.25 0  0.5833333333333333 0.25 0  0.5833333333333333 0.75 0  0.08333333333333331 0.75 0  0 0 0  1 0 0  0 1 0  1 1 0  0.09803921568627451 0.25 0  0.1127450980392157 0.25 0  0.1274509803921569 0.25 0  0.1421568627450981 0.25 0  0.1568627450980393 0.25 0  0.1715686274509804 0.25 0  0.1862745098039216 0.25 0  0.2009803921568628 0.25 0  0.215686274509804 0.25 0  0.2303921568627453 0.25 0  0.2450980392156865 0.25 0  0.2598039215686277 0.25 0  0.2745098039215689 0.25 0  0.2892156862745102 0.25 0  0.3039215686274513 0.25 0  0.3186274509803926 0.25 0  0.3333333333333338 0.25 0  0.3480392156862749 0.25 0  0.362745098039216 0.25 0  0.3774509803921572 0.25 0  0.3921568627450983 0.25 0  0.4068627450980394 0.25 0  0.4215686274509805 0.25 0  0.4362745098039217 0.25 0  0.4509803921568628 0.25 0  0.4656862745098039 0.25 0  0.4803921568627451 0.25 0  0.4950980392156862 0.25 0  0.5098039215686273 0.25 0  0.5245098039215683 0.25 0  0.5392156862745096 0.25 0  0.5539215686274507 0.25 0  0.5686274509803919 0.25 0  0.5833333333333333 0.2647058823529412 0  0.5833333333333333 0.2794117647058824 0  0.5833333333333333 0.2941176470588236 0  0.5833333333333333 0.3088235294117648 0  0.5833333333333333 0.323529411764706 0  0.5833333333333333 0.3382352941176471 0  0.5833333333333333 0.3529411764705883 0  0.5833333333333333 0.3676470588235295 0  0.5833333333333333 0.3823529411764707 0  0.5833333333333333 0.397058823529412 0  0.5833333333333333 0.4117647058823533 0  0.5833333333333333 0.4264705882352944 0  0.5833333333333333 0.4411764705882357 0  0.5833333333333333 0.4558823529411769 0  0.5833333333333333 0.4705882352941181 0  0.5833333333333333 0.4852941176470593 0  0.5833333333333333 0.5000000000000006 0  0.5833333333333333 0.5147058823529416 0  0.5833333333333333 0.5294117647058828 0  0.5833333333333333 0.5441176470588239 0  0.5833333333333333 0.5588235294117651 0  0.5833333333333333 0.5735294117647062 0  0.5833333333333333 0.5882352941176473 0  0.5833333333333333 0.6029411764705884 0  0.5833333333333333 0.6176470588235297 0  0.5833333333333333 0.6323529411764707 0  0.5833333333333333 0.6470588235294118 0  0.5833333333333333 0.661764705882353 0  0.5833333333333333 0.6764705882352942 0  0.5833333333333333 0.6911764705882352 0  0.5833333333333333 0.7058823529411764 0  0.5833333333333333 0.7205882352941175 0  0.5833333333333333 0.7352941176470587 0  0.568627450980392 0.75 0  0.5539215686274509 0.75 0  0.5392156862745097 0.75 0  0.5245098039215684 0.75 0  0.5098039215686273 0.75 0  0.4950980392156861 0.75 0  0.4803921568627449 0.75 0  0.4656862745098038 0.75 0  0.4509803921568626 0.75 0  0.4362745098039214 0.75 0  0.4215686274509801 0.75 0  0.4068627450980389 0.75 0  0.3921568627450976 0.75 0  0.3774509803921564 0.75 0  0.3627450980392152 0.75 0  0.3480392156862739 0.75 0  0.3333333333333328 0.75 0  0.3186274509803917 0.75 0  0.3039215686274506 0.75 0  0.2892156862745094 0.75 0  0.2745098039215683 0.75 0  0.2598039215686272 0.75 0  0.2450980392156861 0.75 0  0.2303921568627449 0.75 0  0.2156862745098038 0.75 0  0.2009803921568627 0.75 0  0.1862745098039215 0.75 0  0.1715686274509804 0.75 0  0.1568627450980393 0.75 0  0.1421568627450982 0.75 0  0.127450980392157 0.75 0  0.1127450980392159 0.75 0  0.09803921568627466 0.75 0  0.08333333333333331 0.7352941176470588 0  0.08333333333333331 0.7205882352941176 0  0.08333333333333331 0.7058823529411764 0  0.08333333333333331 0.6911764705882352 0  0.08333333333333331 0.676470588235294 0  0.08333333333333331 0.6617647058823528 0  0.08333333333333331 0.6470588235294117 0  0.08333333333333331 0.6323529411764705 0  0.08333333333333331 0.6176470588235292 0  0.08333333333333331 0.6029411764705881 0  0.08333333333333331 0.5882352941176467 0  0.08333333333333331 0.5735294117647056 0  0.08333333333333331 0.5588235294117643 0  0.08333333333333331 0.5441176470588232 0  0.08333333333333331 0.5294117647058819 0  0.08333333333333331 0.5147058823529407 0  0.08333333333333331 0.4999999999999994 0  0.08333333333333331 0.4852941176470584 0  0.08333333333333331 0.4705882352941172 0  0.08333333333333331 0.4558823529411761 0  0.08333333333333331 0.4411764705882349 0  0.08333333333333331 0.4264705882352938 0  0.08333333333333331 0.4117647058823527 0  0.08333333333333331 0.3970588235294116 0  0.08333333333333331 0.3823529411764704 0  0.08333333333333331 0.3676470588235293 0  0.08333333333333331 0.3529411764705882 0  0.08333333333333331 0.338235294117647 0  0.08333333333333331 0.3235294117647059 0  0.08333333333333331 0.3088235294117648 0  0.08333333333333331 0.2941176470588237 0  0.08333333333333331 0.2794117647058825 0  0.08333333333333331 0.2647058823529413 0  0.01492537313432838 0 0  0.02985074626865675 0 0  0.04477611940298513 0 0  0.05970149253731351 0 0  0.0746268656716419 0 0  0.08955223880597028 0 0  0.1044776119402987 0 0  0.1194029850746271 0 0  0.1343283582089554 0 0  0.1492537313432838 0 0  0.1641791044776121 0 0  0.1791044776119405 0 0  0.1940298507462689 0 0  0.2089552238805972 0 0  0.2238805970149256 0 0  0.2388059701492539 0 0  0.2537313432835824 0 0  0.2686567164179108 0 0  0.2835820895522392 0 0  0.2985074626865676 0 0  0.313432835820896 0 0  0.3283582089552244 0 0  0.3432835820895528 0 0  0.3582089552238813 0 0  0.3731343283582096 0 0  0.3880597014925381 0 0  0.4029850746268665 0 0  0.4179104477611949 0 0  0.4328358208955234 0 0  0.4477611940298517 0 0  0.4626865671641802 0 0  0.4776119402985086 0 0  0.4925373134328369 0 0  0.5074626865671652 0 0  0.5223880597014936 0 0  0.5373134328358218 0 0  0.5522388059701502 0 0  0.5671641791044785 0 0  0.5820895522388068 0 0  0.5970149253731351 0 0  0.6119402985074635 0 0  0.6268656716417917 0 0  0.64179104477612 0 0  0.6567164179104483 0 0  0.6716417910447767 0 0  0.6865671641791049 0 0  0.7014925373134333 0 0  0.7164179104477616 0 0  0.7313432835820899 0 0  0.7462686567164182 0 0  0.7611940298507465 0 0  0.7761194029850749 0 0  0.791044776119403 0 0  0.8059701492537314 0 0  0.8208955223880597 0 0  0.835820895522388 0 0  0.8507462686567163 0 0  0.8656716417910447 0 0  0.8805970149253729 0 0  0.8955223880597013 0 0  0.9104477611940296 0 0  0.925373134328358 0 0  0.9402985074626862 0 0  0.9552238805970146 0 0  0.9701492537313429 0 0  0.9850746268656715 0 0  0 0.9850746268656716 0  0 0.9701492537313432 0  0 0.9552238805970149 0  0 0.9402985074626865 0  0 0.9253731343283581 0  0 0.9104477611940297 0  0 0.8955223880597013 0  0 0.8805970149253729 0  0 0.8656716417910446 0  0 0.8507462686567162 0  0 0.8358208955223878 0  0 0.8208955223880595 0  0 0.8059701492537311 0  0 0.7910447761194028 0  0 0.7761194029850744 0  0 0.761194029850746 0  0 0.7462686567164176 0  0 0.7313432835820892 0  0 0.7164179104477608 0  0 0.7014925373134324 0  0 0.686567164179104 0  0 0.6716417910447756 0  0 0.6567164179104472 0  0 0.6417910447761187 0  0 0.6268656716417904 0  0 0.6119402985074619 0  0 0.5970149253731335 0  0 0.5820895522388051 0  0 0.5671641791044766 0  0 0.5522388059701483 0  0 0.5373134328358198 0  0 0.5223880597014914 0  0 0.5074626865671631 0  0 0.4925373134328348 0  0 0.4776119402985064 0  0 0.4626865671641782 0  0 0.4477611940298498 0  0 0.4328358208955215 0  0 0.4179104477611932 0  0 0.4029850746268649 0  0 0.3880597014925365 0  0 0.3731343283582083 0  0 0.35820895522388 0  0 0.3432835820895517 0  0 0.3283582089552233 0  0 0.3134328358208951 0  0 0.2985074626865667 0  0 0.2835820895522384 0  0 0.2686567164179101 0  0 0.2537313432835818 0  0 0.2388059701492535 0  0 0.2238805970149251 0  0 0.208955223880597 0  0 0.1940298507462686 0  0 0.1791044776119403 0  0 0.164179104477612 0  0 0.1492537313432837 0  0 0.1343283582089553 0  0 0.1194029850746271 0  0 0.1044776119402987 0  0 0.08955223880597041 0  0 0.07462686567164201 0  0 0.05970149253731383 0  0 0.04477611940298543 0  0 0.02985074626865714 0  0 0.01492537313432851 0  1 0.01492537313432838 0  1 0.02985074626865675 0  1 0.04477611940298513 0  1 0.05970149253731351 0  1 0.0746268656716419 0  1 0.08955223880597028 0  1 0.1044776119402987 0  1 0.1194029850746271 0  1 0.1343283582089554 0  1 0.1492537313432838 0  1 0.1641791044776121 0  1 0.1791044776119405 0  1 0.1940298507462689 0  1 0.2089552238805972 0  1 0.2238805970149256 0  1 0.2388059701492539 0  1 0.2537313432835824 0  1 0.2686567164179108 0  1 0.2835820895522392 0  1 0.2985074626865676 0  1 0.313432835820896 0  1 0.3283582089552244 0  1 0.3432835820895528 0  1 0.3582089552238813 0  1 0.3731343283582096 0  1 0.3880597014925381 0  1 0.4029850746268665 0  1 0.4179104477611949 0  1 0.4328358208955234 0  1 0.4477611940298517 0  1 0.4626865671641802 0  1 0.4776119402985086 0  1 0.4925373134328369 0  1 0.5074626865671652 0  1 0.5223880597014936 0  1 0.5373134328358218 0  1 0.5522388059701502 0  1 0.5671641791044785 0  1 0.5820895522388068 0  1 0.5970149253731351 0  1 0.6119402985074635 0  1 0.6268656716417917 0  1 0.64179104477612 0  1 0.6567164179104483 0  1 0.6716417910447767 0  1 0.6865671641791049 0  1 0.7014925373134333 0  1 0.7164179104477616 0  1 0.7313432835820899 0  1 0.7462686567164182 0  1 0.7611940298507465 0  1 0.7761194029850749 0  1 0.791044776119403 0  1 0.8059701492537314 0  1 0.8208955223880597 0  1 0.835820895522388 0  1 0.8507462686567163 0  1 0.8656716417910447 0  1 0.8805970149253729 0  1 0.8955223880597013 0  1 0.9104477611940296 0  1 0.925373134328358 0  1 0.9402985074626862 0  1 0.9552238805970146 0  1 0.9701492537313429 0  1 0.9850746268656715 0  0.9850746268656716 1 0  0.9701492537313432 1 0  0.9552238805970149 1 0  0.9402985074626865 1 0  0.9253731343283581 1 0  0.9104477611940297 1 0  0.8955223880597013 1 0  0.8805970149253729 1 0  0.8656716417910446 1 0  0.8507462686567162 1 0  0.8358208955223878 1 0  0.8208955223880595 1 0  0.8059701492537311 1 0  0.7910447761194028 1 0  0.7761194029850744 1 0  0.761194029850746 
[...]
<PointData  Tensors="$\sigma$"> 
<DataArray  type="Float64"  Name="$\sigma$"  NumberOfComponents="9" format="ascii">1.0904435227973022e+07 -6.1136163321192697e+07 0.0000000000000000e+00 -6.1136163321192697e+07 2.4729633216383389e+08 0.0000000000000000e+00 0.0000000000000000e+00 0.0000000000000000e+00 0.0000000000000000e+00  1.2543623112363365e+08 1.1589458168898961e+08 0.0000000000000000e+00 1.1589458168898961e+08 3.3808217380129492e+08 0.0000000000000000e+00 0.0000000000000000e+00 0.0000000000000000e+00 0.0000000000000000e+00  1.2624634431128787e+08 -1.0739881634069456e+08 0.0000000000000000e+00 -1.0739881634069456e+08 3.4578191796585327e+08 0.0000000000000000e+00 0.0000000000000000e+00 0.0000000000000000e+00 0.0000000000000000e+00  7.3732810947763333e+06 5.9676260229616098e+07 0.0000000000000000e+00 5.9676260229616098e+07 2.5141303654909179e+08 0.0000000000000000e+00 0.0000000000000000e+00 0.0000000000000000e+00 0.0000000000000000e+00  4.0654009099586986e+07 8.3411752906765500e+06 0.0000000000000000e+00 8.3411752906765500e+06 1.7480491834735304e+08 0.0000000000000000e+00 0.0000000000000000e+00 0.0000000000000000e+00 0.0000000000000000e+00  -6.3618843180319373e+03 -2.4370807599590771e+05 0.0000000000000000e+00 -2.4370807599590771e+05 2.2446999866222006e+08 0.0000000000000000e+00 0.0000000000000000e+00 0.0000000000000000e+00 0.0000000000000000e+00  6.0472724526835853e+04 -6.3920940925898578e+05 0.0000000000000000e+00 -6.3920940925898578e+05 1.7157355107404357e+08 0.0000000000000000e+00 0.0000000000000000e+00 0.0000000000000000e+00 0.0000000000000000e+00  -7.5276575703547773e+04 2.8769276224741217e+05 0.0000000000000000e+00 2.8769276224741217e+05 2.2453294704968724e+08 0.0000000000000000e+00 0.0000000000000000e+00 0.0000000000000000e+00 0.0000000000000000e+00  -8.5569118040197700e+07 -3.2619316502405152e+07 0.0000000000000000e+00 -3.2619316502405152e+07 -2.6041175613941573e+07 0.0000000000000000e+00 0.0000000000000000e+00 0.0000000000000000e+00 0.0000000000000000e+00  -1.3107310748158944e+08 1.4496072403007183e+07 0.0000000000000000e+00 1.4496072403007183e+07 5.2819285729766022e+06 0.0000000000000000e+00 0.0000000000000000e+00 0.0000000000000000e+00 0.0000000000000000e+00  -1.1804125285730746e+08 2.0235653631626598e+06 0.0000000000000000e+00 2.0235653631626598e+06 -1.2416542702851049e+06 0.0000000000000000e+00 0.0000000000000000e+00 0.0000000000000000e+00 0.0000000000000000e+00  -1.0920850347586185e+08 3.1047439624631177e+06 0.0000000000000000e+00 3.1047439624631177e+06 5.4384201574595587e+05 0.0000000000000000e+00 0.0000000000000000e+00 0.0000000000000000e+00 0.0000000000000000e+00  -1.0156331866626310e+08 2.2091783853673749e+06 0.0000000000000000e+00 2.2091783853673749e+06 5.9799216077566249e+04 0.0000000000000000e+00 0.0000000000000000e+00 0.0000000000000000e+00 0.0000000000000000e+00  -9.4735392756085634e+07 1.5943948886659183e+06 0.0000000000000000e+00 1.5943948886659183e+06 4.7210941030609951e+05 0.0000000000000000e+00 0.0000000000000000e+00 0.0000000000000000e+00 0.0000000000000000e+00  -8.7557064242314652e+07 1.4337768265164786e+06 0.0000000000000000e+00 1.4337768265164786e+06 3.0788743205992813e+05 0.0000000000000000e+00 0.0000000000000000e+00 0.0000000000000000e+00 0.0000000000000000e+00  -8.1381611727710053e+07 1.3196785660839065e+06 0.0000000000000000e+00 1.3196785660839065e+06 1.3767444086671557e+05 0.0000000000000000e+00 0.0000000000000000e+00 0.0000000000000000e+00 0.0000000000000000e+00  -7.6245495858155876e+07 1.0159990626991182e+06 0.0000000000000000e+00 1.0159990626991182e+06 2.7370683880121115e+05 0.0000000000000000e+00 0.0000000000000000e+00 0.0000000000000000e+00 0.0000000000000000e+00  -7.1087752248546973e+07 9.3727781883686245e+05 0.0000000000000000e+00 9.3727781883686245e+05 2.1112378514285156e+05 0.0000000000000000e+00 0.0000000000000000e+00 0.0000000000000000e+00 0.0000000000000000e+00  -6.6650273514584079e+07 8.7396406306780258e+05 0.0000000000000000e+00 8.7396406306780258e+05 1.2178176270680589e+05 0.0000000000000000e+00 0.0000000000000000e+00 0.0000000000000000e+00 0.0000000000000000e+00  -6.3076372373731904e+07 6.9423257238259073e+05 0.0000000000000000e+00 6.9423257238259073e+05 1.5581162484767090e+05 0.0000000000000000e+00 0.0000000000000000e+00 0.0000000000000000e+00 0.0000000000000000e+00  -5.9702152851946525e+07 6.0931931903215055e+05 0.0000000000000000e+00 6.0931931903215055e+05 9.3795059522631913e+04 0.0000000000000000e+00 0.0000000000000000e+00 0.0000000000000000e+00 0.0000000000000000e+00  -5.7236980938715473e+07 4.6164685696327733e+05 0.0000000000000000e+00 4.6164685696327733e+05 1.2649553209878597e+05 0.0000000000000000e+00 0.0000000000000000e+00 0.0000000000000000e+00 0.0000000000000000e+00  -5.5051903325679109e+07 3.8137848153840384e+05 0.0000000000000000e+00 3.8137848153840384e+05 7.6528334030861020e+04 0.0000000000000000e+00 0.0000000000000000e+00 0.0000000000000000e+00 0.0000000000000000e+00  -5.3660330027873546e+07 2.4527060386070216e+05 0.0000000000000000e+00 2.4527060386070216e+05 1.0972762002340060e+05 0.0000000000000000e+00 0.0000000000000000e+00 0.0000000000000000e+00 0.0000000000000000e+00  -5.2610113942360185e+07 1.7510710016782704e+05 0.0000000000000000e+00 1.7510710016782704e+05 6.7545875797553701e+04 0.0000000000000000e+00 0.0000000000000000e+00 0.0000000000000000e+00 0.0000000000000000e+00  -5.2253021058955535e+07 4.5191388773238599e+04 0.0000000000000000e+00 4.5191388773238599e+04 1.0623452749624669e+05 0.0000000000000000e+00 0.0000000000000000e+00 0.0000000000000000e+00 0.0000000000000000e+00  -5.2261448934756875e+07 -1.1783632412405657e+04 0.0000000000000000e+00 -1.1783632412405657e+04 6.7206832278862756e+04 0.0000000000000000e+00 0.0000000000000000e+00 0.0000000000000000e+00 0.0000000000000000e+00  -5.2868273274840727e+07 -1.3787477697642171e+05 0.0000000000000000e+00 -1.3787477697642171e+05 1.1553153255082497e+05 0.0000000000000000e+00 0.0000000000000000e+00 0.0000000000000000e+00 0.0000000000000000e+00  -5.3826746186084285e+07 -1.7871916842603832e+05 0.0000000000000000e+00 -1.7871916842603832e+05 7.5924172155356617e+04 0.0000000000000000e+00 0.0000000000000000e+00 0.0000000000000000e+00 0.0000000000000000e+00  -5.5291509163328424e+07 -3.0279170328254299e+05 0.0000000000000000e+00 -3.0279170328254299e+05 1.3909225747392312e+05 0.0000000000000000e+00 0.0000000000000000e+00 0.0000000000000000e+00 0.0000000000000000e+00  -5.7044366437885344e+07 -3.2425702360996528e+05 0.0000000000000000e+00 -3.2425702360996528e+05 9.5759900519155170e+04 0.0000000000000000e+00 0.0000000000000000e+00 0.0000000000000000e+00 0.0000000000000000e+00  -5.9207782044614896e+07 -4.4834359613319812e+05 0.0000000000000000e+00 -4.4834359613319812e+05 1.7940800586027981e+05 0.0000000000000000e+00 0.0000000000000000e+00 0.0000000000000000e+00 0.0000000000000000e+00  -6.1523496420253113e+07 -4.4856561069836927e+05 0.0000000000000000e+00 -4.4856561069836927e+05 1.2887953859870482e+05 0.0000000000000000e+00 0.0000000000000000e+00 0.0000000000000000e+00 0.0000000000000000e+00  -6.4137455829936914e+07 -5.7986028278103529e+05 0.0000000000000000e+00 -5.7986028278103529e+05 2.4097015163368313e+05 0.0000000000000000e+00 0.0000000000000000e+00 0.0000000000000000e+00 0.0000000000000000e+00  -6.6642885847392730e+07 -5.6680112714700215e+05 0.0000000000000000e+00 -5.6680112714700215e+05 1.6750540387190145e+05 0.0000000000000000e+00 0.0000000000000000e+00 0.0000000000000000e+00 0.0000000000000000e+00  -6.9251574892312661e+07 -7.6039500970187271e+05 0.0000000000000000e+00 -7.6039500970187271e+05 3.4720563301159773e+05 0.0000000000000000e+00 0.0000000000000000e+00 0.0000000000000000e+00 0.0000000000000000e+00  -7.1356496681858987e+07 -7.1026432390832540e+05 0.0000000000000000e+00 -7.1026432390832540e+05 -1.2717608109569626e+04 0.0000000000000000e+00 0.0000000000000000e+00 0.0000000000000000e+00 0.0000000000000000e+00  -7.2721205856010765e+07 -1.7912808784022699e+06 0.0000000000000000e+00 -1.7912808784022699e+06 1.1921891463445006e+06 0.0000000000000000e+00 0.0000000000000000e+00 0.0000000000000000e+00 0.0000000000000000e+00  -7.0121254934534624e+07 1.3807989152324677e+06 0.0000000000000000e+00 1.3807989152324677e+06 -3.6400785187227484e+06 0.0000000000000000e+00 0.0000000000000000e+00 0.0000000000000000e+00 0.0000000000000000e+00  -7.4792982679492027e+07 -1.1217243881674480e+07 0.0000000000000000e+00 -1.1217243881674480e+07 1.4237915950871764e+07 0.0000000000000000e+00 0.0000000000000000e+00 0.0000000000000000e+00 0.0000000000000000e+00  4.0968805709487945e+07 5.6144404824461617e+07 0.0000000000000000e+00 5.6144404824461617e+07 -2.8994672714655008e+07 0.0000000000000000e+00 0.0000000000000000e+00 0.0000000000000000e+00 0.0000000000000000e+00  -1.2939862110470058e+07 1.4428773257217003e+07 0.0000000000000000e+00 1.4428773257217003e+07 4.1465431932572639e+08 0.0000000000000000e+00 0.0000000000000000e+00 0.0000000000000000e+00 0.0000000000000000e+00  1.5034164847779826e+06 -1.3811810230692888e+06 0.0000000000000000e+00 -1.3811810230692888e+06 2.8771039869374728e+08 0.0000000000000000e+00 0.0000000000000000e+00 0.0000000000000000e+00 0.0000000000000000e+00  -1.0956217044169395e+06 3.8900337408983046e+06 0.0000000000000000e+00 3.8900337408983046e+06 2.7317202164842933e+08 0.0000000000000000e+00 0.0000000000000000e+00 0.0000000000000000e+00 0.0000000000000000e+00  9.0765066433467122e+05 1.3548626570978032e+06 0.0000000000000000e+00 1.3548626570978032e+06 2.6503404117136294e+08 0.0000000000000000e+00 0.0000000000000000e+00 0.0000000000000000e+00 0.0000000000000000e+00  -1.0564062970169392e+05 9.6081176368490118e+05 0.0000000000000000e+00 9.6081176368490118e+05 2.5391079199126625e+08 0.0000000000000000e+00 0.0000000000000000e+00 0.0000000000000000e+00 0.0000000000000000e+00  1.1923034384013034e+05 6.6669122408906056e+05 0.0000000000000000e+00 6.6669122408906056e+05 2.4982748249865991e+08 0.0000000000000000e+00 0.0000000000000000e+00 0.0000000000000000e+00 0.0000000000000000e+00  -8.5096796750662892e+04 4.4194017046408262e+05 0.0000000000000000e+00 4.4194017046408262e+05 2.4584027487696844e+08 0.0000000000000000e+00 0.0000000000000000e+00 0.0000000000000000e+00 0.0000000000000000e+00  -1.7946216873437975e+03 3.7940805119304254e+05 0.0000000000000000e+00 3.7940805119304254e+05 2.4311809385052440e+08 0.0000000000000000e+00 0.0000000000000000e+00 0.0000000000000000e+00 0.0000000000000000e+00  -2.6572116968093109e+04 2.4328345671883071e+05 0.0000000000000000e+00 2.4328345671883071e+05 2.4133869886567324e+08 0.0000000000000000e+00 0.0000000000000000e+00 0.0000000000000000e+00 0.0000000000000000e+00  -9.7735202371824907e+03 2.7252749284559500e+05 0.0000000000000000e+00 2.7252749284559500e+05 2.3932684528042802e+08 0.0000000000000000e+00 0.0000000000000000e+00 0.0000000000000000e+00 0.0000000000000000e+00  3.1112217551580114e+04 1.6198514833838397e+05 0.0000000000000000e+00 1.6198514833838397e+05 2.3851550319486970e+08 0.0000000000000000e+00 0.0000000000000000e+00 0.0000000000000000e+00 0.0000000000000000e+00  -3.4288608333400400e+04 8.9699619420305549e+04 0.0000000000000000e+00 8.9699619420305549e+04 2.3752216179141566e+08 0.0000000000000000e+00 0.0000000000000000e+00 0.0000000000000000e+00 0.0000000000000000e+00  -3.0803898087726957e+04 3.2623748024555727e+04 0.0000000000000000e+00 3.2623748024555727e+04 2.3699195148246378e+08 0.0000000000000000e+00 0.0000000000000000e+00 0.0000000000000000e+00 0.0000000000000000e+00  -2.7398872162919255e+04 5.8048493372266115e+04 0.0000000000000000e+00 5.8048493372266115e+04 2.3646856980163983e+08 0.0000000000000000e+00 0.0000000000000000e+00 0.0000000000000000e+00 0.0000000000000000e+00  -1.8306386677913117e+04 2.3764790587926629e+04 0.0000000000000000e+00 2.3764790587926629e+04 2.3619291658062726e+08 0.0000000000000000e+00 0.0000000000000000e+00 0.0000000000000000e+00 0.0000000000000000e+00  -4.2446805701713865e+03 -2.3774430354114313e+04 0.0000000000000000e+00 -2.3774430354114313e+04 2.3600821090211311e+08 0.0000000000000000e+00 0.0000000000000000e+00 0.0000000000000000e+00 0.0000000000000000e+00  -2.7349658065224077e+04 4.8413796319686022e+04 0.0000000000000000e+00 4.8413796319686022e+04 2.3590830405746844e+08 0.0000000000000000e+00 0.0000000000000000e+00 0.0000000000000000e+00 0.0000000000000000e+00  -1.8900112561327049e+04 -2.0119410597415363e+03 0.0000000000000000e+00 -2.0119410597415363e+03 2.3608352852805319e+08 0.0000000000000000e+00 0.0000000000000000e+00 0.0000000000000000e+00 0.0000000000000000e+00  -2.0479562778799005e+04 -1.9760383663384113e+04 0.0000000000000000e+00 -1.9760383663384113e+04 2.3618891380266741e+08 0.0000000000000000e+00 0.0000000000000000e+00 0.0000000000000000e+00 0.0000000000000000e+00  -5.5143710951252124e+03 -1.2399839619295408e+05 0.0000000000000000e+00 -1.2399839619295408e+05 2.3654005378870094e+08 0.0000000000000000e+00 0.0000000000000000e+00 0.0000000000000000e+00 0.0000000000000000e+00  -1.0979716065549272e+04 -1.0195127975424325e+05 0.0000000000000000e+00 -1.0195127975424325e+05 2.3680376896346933e+08 0.0000000000000000e+00 0.0000000000000000e+00 0.0000000000000000e+00 0.0000000000000000e+00  -2.3081936203873429e+04 -1.1292439175947741e+05 0.0000000000000000e+00 -1.1292439175947741e+05 2.3784471081589592e+08 0.0000000000000000e+00 0.0000000000000000e+00 0.0000000000000000e+00 0.0000000000000000e+00  -6.2376711389255352e+03 -2.3919785517363166e+05 0.0000000000000000e+00 -2.3919785517363166e+05 2.3829091800307751e+08 0.0000000000000000e+00 0.0000000000000000e+00 0.0000000000000000e+00 0.0000000000000000e+00  -5.4673364027845482e+03 -1.4066347264151109e+05 0.0000000000000000e+00 -1.4066347264151109e+05 2.3971458826676232e+08 0.0000000000000000e+00 0.0000000000000000e+00 0.0000000000000000e+00 0.0000000000000000e+00  8.5736321010106069e+04 -3.2399851109430852e+05 0.0000000000000000e+00 -3.2399851109430852e+05 2.4122679033171803e+08 0.0000000000000000e+00 0.0000000000000000e+00 0.0000000000000000e+00 0.0000000000000000e+00  7.3980336008830345e+04 -4.4260050885903760e+05 0.0000000000000000e+00 -4.4260050885903760e+05 2.4294386264477462e+08 0.0000000000000000e+00 0.0000000000000000e+00 0.0000000000000000e+00 0.0000000000000000e+00  -1.3478000811581094e+04 -5.8226500291352905e+05 0.0000000000000000e+00 -5.8226500291352905e+05 2.4625197791814071e+08 0.0000000000000000e+00 0.0000000000000000e+00 0.0000000000000000e+00 0.0000000000000000e+00  2.5962551855719761e+04 -5.6110746969196410e+05 0.0000000000000000e+00 -5.6110746969196410e+05 2.4967863022714078e+08 0.0000000000000000e+00 0.0000000000000000e+00 0.0000000000000000e+00 0.0000000000000000e+00  2.3447659028912408e+05 -1.3775199279251574e+06 0.0000000000000000e+00 -1.3775199279251574e+06 2.5571310148193291e+08 0.0000000000000000e+00 0.0000000000000000e+00 0.0000000000000000e+00 0.0000000000000000e+00  4.5674995550137002e+05 -1.0719225321729842e+06 0.0000000000000000e+00 -1.0719225321729842e+06 2.6280789661767173e+08 0.0000000000000000e+00 0.0000000000000000e+00 0.0000000000000000e+00 0.0000000000000000e+00  1.6576548439764793e+06 -4.0030399764228687e+06 0.0000000000000000e+00 -4.0030399764228687e+06 2.7781961338315111e+08 0.0000000000000000e+00 0.0000000000000000e+00 0.0000000000000000e+00 0.0000000000000000e+00  5.3748397290359084e+06 -3.3802365259041544e+06 0.0000000000000000e+00 -3.3802365259041544e+06 2.8457514386567372e+08 0.0000000000000000e+00 0.0000000000000000e+00 0.0000000000000000e+00 0.0000000000000000e+00  -1.5926288952518895e+07 -1.9995685760849085e+07 0.0000000000000000e+00 -1.9995685760849085e+07 4.1749325938885587e+08 0.0000000000000000e+00 0.0000000000000000e+00 0.0000000000000000e+00 0.0000000000000000e+00  4.2187444909032114e+07 -5.8916506598717190e+07 0.0000000000000000e+00 -5.8916506598717190e+07 -3.0504197082378116e+07 0.0000000000000000e+00 0.0000000000000000e+00 0.0000000000000000e+00 0.0000000000000000e+00  -7.5470128835161805e+07 1.1868220446547793e+07 0.0000000000000000e+00 1.1868220446547793e+07 1.4705238770673681e+07 0.0000000000000000e+00 0.0000000000000000e+00 0.0000000000000000e+00 0.0000000000000000e+00  -7.0140713992804289e+07 -1.4505072871623447e+06 0.0000000000000000e+00 -1.4505072871623447e+06 -3.7698458948168820e+06 0.0000000000000000e+00 0.0000000000000000e+00 0.0000000000000000e+00 0.0000000000000000e+00  -7.2791952881210625e+07 1.8198831712302638e+06 0.0000000000000000e+00 1.8198831712302638e+06 1.2178112903066974e+06 0.0000000000000000e+00 0.0000000000000000e+00 0.0000000000000000e+00 0.0000000000000000e+00  -7.1392476403418213e+07 7.1440330374394183e+05 0.0000000000000000e+00 7.1440330374394183e+05 -2.0330860581999648e+04 0.0000000000000000e+00 0.0000000000000000e+00 0.0000000000000000e+00 0.0000000000000000e+00  -6.9274409141048148e+07 7.6333609499514429e+05 0.0000000000000000e+00 7.6333609499514429e+05 3.4858505547170690e+05 0.0000000000000000e+00 0.0000000000000000e+00 0.0000000000000000e+00 0.0000000000000000e+00  -6.6660125935290135e+07 5.6809153682424279e+05 0.0000000000000000e+00 5.6809153682424279e+05 1.6712642969241046e+05 0.0000000000000000e+00 0.0000000000000000e+00 0.0000000000000000e+00 0.0000000000000000e+00  -6.4151522548105069e+07 5.8065940089291497e+05 0.0000000000000000e+00 5.8065940089291497e+05 2.4111786242623677e+05 0.0000000000000000e+00 0.0000000000000000e+00 0.0000000000000000e+00 0.0000000000000000e+00  -6.1535886132894918e+07 4.4896344622541085e+05 0.0000000000000000e+00 4.4896344622541085e+05 1.2891161199175091e+05 0.0000000000000000e+00 0.0000000000000000e+00 0.0000000000000000e+00 0.0000000000000000e+00  -5.9219528912079893e+07 4.4858818953542295e+05 0.0000000000000000e+00 4.4858818953542295e+05 1.7948638803208657e+05 0.0000000000000000e+00 0.0000000000000000e+00 0.0000000000000000e+00 0.0000000000000000e+00  -5.7055923562252648e+07 3.2435859494861006e+05 0.0000000000000000e+00 3.2435859494861006e+05 9.5806213195699602e+04 0.0000000000000000e+00 0.0000000000000000e+00 0.0000000000000000e+00 0.0000000000000000e+00  -5.5303350222727574e+07 3.0283212615560071e+05 0.0000000000000000e+00 3.0283212615560071e+05 1.3915635471551964e+05 0.0000000000000000e+00 0.0000000000000000e+00 0.0000000000000000e+00 0.0000000000000000e+00  -5.3839037267246373e+07 1.7869129368850117e+05 0.0000000000000000e+00 1.7869129368850117e+05 7.5967149950677544e+04 0.0000000000000000e+00 0.0000000000000000e+00 0.0000000000000000e+00 0.0000000000000000e+00  -5.2881302982153751e+07 1.3781964450979832e+05 0.0000000000000000e+00 1.3781964450979832e+05 1.1558815285477875e+05 0.0000000000000000e+00 0.0000000000000000e+00 0.0000000000000000e+00 0.0000000000000000e+00  -5.2275270154535517e+07 1.1687322240731406e+04 0.0000000000000000e+00 1.1687322240731406e+04 6.7250530016051052e+04 0.0000000000000000e+00 0.0000000000000000e+00 0.0000000000000000e+00 0.0000000000000000e+00  -5.2267857435792647e+07 -4.5302539702596259e+04 0.0000000000000000e+00 -4.5302539702596259e+04 1.0628700428624240e+05 0.0000000000000000e+00 0.0000000000000000e+00 0.0000000000000000e+00 0.0000000000000000e+00  -5.2625982173378535e+07 -1.7525837062647694e+05 0.0000000000000000e+00 -1.7525837062647694e+05 6.7572737160234392e+04 0.0000000000000000e+00 0.0000000000000000e+00 0.0000000000000000e+00 0.0000000000000000e+00  -5.3677406765542120e+07 -2.4545505717312967e+05 0.0000000000000000e+00 -2.4545505717312967e+05 1.0976746548203408e+05 0.0000000000000000e+00 0.0000000000000000e+00 0.0000000000000000e+00 0.0000000000000000e+00  -5.5070176684811845e+07 -3.8161318235696282e+05 0.0000000000000000e+00 -3.8161318235696282e+05 7.6585399872449852e+04 0.0000000000000000e+00 0.0000000000000000e+00 0.0000000000000000e+00 0.0000000000000000e+00  -5.7256588795025915e+07 -4.6188594877771562e+05 0.0000000000000000e+00 -4.6188594877771562e+05 1.2659519341285646e+05 0.0000000000000000e+00 0.0000000000000000e+00 0.0000000000000000e+00 0.0000000000000000e+00  -5.9723056889028139e+07 -6.0957175858360599e+05 0.0000000000000000e+00 -6.0957175858360599e+05 9.3864545663968122e+04 0.0000000000000000e+00 0.0000000000000000e+00