<?xml version="1.0"?>
<VTKFile type="UnstructuredGrid"  version="0.1"  >
<UnstructuredGrid>
<Piece  NumberOfPoints="4227" NumberOfCells="8050">
<Points>
<DataArray  type="Float64"  NumberOfComponents="3"  format="ascii">0.25 0.25 0  0.75 0.25 0  0.75 0.75 0  0.25 0.75 0  0 0 0  1 0 0  0 1 0  1 1 0  0.2647058823529412 0.25 0  0.2794117647058824 0.25 0  0.2941176470588236 0.25 0  0.3088235294117648 0.25 0  0.323529411764706 0.25 0  0.3382352941176471 0.25 0  0.3529411764705883 0.25 0  0.3676470588235295 0.25 0  0.3823529411764707 0.25 0  0.397058823529412 0.25 0  0.4117647058823533 0.25 0  0.4264705882352944 0.25 0  0.4411764705882357 0.25 0  0.4558823529411769 0.25 0  0.4705882352941181 0.25 0  0.4852941176470593 0.25 0  0.5000000000000006 0.25 0  0.5147058823529416 0.25 0  0.5294117647058828 0.25 0  0.5441176470588239 0.25 0  0.5588235294117651 0.25 0  0.5735294117647062 0.25 0  0.5882352941176473 0.25 0  0.6029411764705884 0.25 0  0.6176470588235297 0.25 0  0.6323529411764707 0.25 0  0.6470588235294118 0.25 0  0.661764705882353 0.25 0  0.6764705882352942 0.25 0  0.6911764705882352 0.25 0  0.7058823529411764 0.25 0  0.7205882352941175 0.25 0  0.7352941176470587 0.25 0  0.75 0.2647058823529412 0  0.75 0.2794117647058824 0  0.75 0.2941176470588236 0  0.75 0.3088235294117648 0  0.75 0.323529411764706 0  0.75 0.3382352941176471 0  0.75 0.3529411764705883 0  0.75 0.3676470588235295 0  0.75 0.3823529411764707 0  0.75 0.397058823529412 0  0.75 0.4117647058823533 0  0.75 0.4264705882352944 0  0.75 0.4411764705882357 0  0.75 0.4558823529411769 0  0.75 0.4705882352941181 0  0.75 0.4852941176470593 0  0.75 0.5000000000000006 0  0.75 0.5147058823529416 0  0.75 0.5294117647058828 0  0.75 0.5441176470588239 0  0.75 0.5588235294117651 0  0.75 0.5735294117647062 0  0.75 0.5882352941176473 0  0.75 0.6029411764705884 0  0.75 0.6176470588235297 0  0.75 0.6323529411764707 0  0.75 0.6470588235294118 0  0.75 0.661764705882353 0  0.75 0.6764705882352942 0  0.75 0.6911764705882352 0  0.75 0.7058823529411764 0  0.75 0.7205882352941175 0  0.75 0.7352941176470587 0  0.7352941176470588 0.75 0  0.7205882352941176 0.75 0  0.7058823529411764 0.75 0  0.6911764705882352 0.75 0  0.676470588235294 0.75 0  0.6617647058823528 0.75 0  0.6470588235294117 0.75 0  0.6323529411764705 0.75 0  0.6176470588235292 0.75 0  0.6029411764705881 0.75 0  0.5882352941176467 0.75 0  0.5735294117647056 0.75 0  0.5588235294117643 0.75 0  0.5441176470588232 0.75 0  0.5294117647058819 0.75 0  0.5147058823529407 0.75 0  0.4999999999999994 0.75 0  0.4852941176470584 0.75 0  0.4705882352941172 0.75 0  0.4558823529411761 0.75 0  0.4411764705882349 0.75 0  0.4264705882352938 0.75 0  0.4117647058823527 0.75 0  0.3970588235294116 0.75 0  0.3823529411764704 0.75 0  0.3676470588235293 0.75 0  0.3529411764705882 0.75 0  0.338235294117647 0.75 0  0.3235294117647059 0.75 0  0.3088235294117648 0.75 0  0.2941176470588237 0.75 0  0.2794117647058825 0.75 0  0.2647058823529413 0.75 0  0.25 0.7352941176470588 0  0.25 0.7205882352941176 0  0.25 0.7058823529411764 0  0.25 0.6911764705882352 0  0.25 0.676470588235294 0  0.25 0.6617647058823528 0  0.25 0.6470588235294117 0  0.25 0.6323529411764705 0  0.25 0.6176470588235292 0  0.25 0.6029411764705881 0  0.25 0.5882352941176467 0  0.25 0.5735294117647056 0  0.25 0.5588235294117643 0  0.25 0.5441176470588232 0  0.25 0.5294117647058819 0  0.25 0.5147058823529407 0  0.25 0.4999999999999994 0  0.25 0.4852941176470584 0  0.25 0.4705882352941172 0  0.25 0.4558823529411761 0  0.25 0.4411764705882349 0  0.25 0.4264705882352938 0  0.25 0.4117647058823527 0  0.25 0.3970588235294116 0  0.25 0.3823529411764704 0  0.25 0.3676470588235293 0  0.25 0.3529411764705882 0  0.25 0.338235294117647 0  0.25 0.3235294117647059 0  0.25 0.3088235294117648 0  0.25 0.2941176470588237 0  0.25 0.2794117647058825 0  0.25 0.2647058823529413 0  0.01492537313432838 0 0  0.02985074626865675 0 0  0.04477611940298513 0 0  0.05970149253731351 0 0  0.0746268656716419 0 0  0.08955223880597028 0 0  0.1044776119402987 0 0  0.1194029850746271 0 0  0.1343283582089554 0 0  0.1492537313432838 0 0  0.1641791044776121 0 0  0.1791044776119405 0 0  0.1940298507462689 0 0  0.2089552238805972 0 0  0.2238805970149256 0 0  0.2388059701492539 0 0  0.2537313432835824 0 0  0.2686567164179108 0 0  0.2835820895522392 0 0  0.2985074626865676 0 0  0.313432835820896 0 0  0.3283582089552244 0 0  0.3432835820895528 0 0  0.3582089552238813 0 0  0.3731343283582096 0 0  0.3880597014925381 0 0  0.4029850746268665 0 0  0.4179104477611949 0 0  0.4328358208955234 0 0  0.4477611940298517 0 0  0.4626865671641802 0 0  0.4776119402985086 0 0  0.4925373134328369 0 0  0.5074626865671652 0 0  0.5223880597014936 0 0  0.5373134328358218 0 0  0.5522388059701502 0 0  0.5671641791044785 0 0  0.5820895522388068 0 0  0.5970149253731351 0 0  0.6119402985074635 0 0  0.6268656716417917 0 0  0.64179104477612 0 0  0.6567164179104483 0 0  0.6716417910447767 0 0  0.6865671641791049 0 0  0.7014925373134333 0 0  0.7164179104477616 0 0  0.7313432835820899 0 0  0.7462686567164182 0 0  0.7611940298507465 0 0  0.7761194029850749 0 0  0.791044776119403 0 0  0.8059701492537314 0 0  0.8208955223880597 0 0  0.835820895522388 0 0  0.8507462686567163 0 0  0.8656716417910447 0 0  0.8805970149253729 0 0  0.8955223880597013 0 0  0.9104477611940296 0 0  0.925373134328358 0 0  0.9402985074626862 0 0  0.9552238805970146 0 0  0.9701492537313429 0 0  0.9850746268656715 0 0  0 0.9850746268656716 0  0 0.9701492537313432 0  0 0.9552238805970149 0  0 0.9402985074626865 0  0 0.9253731343283581 0  0 0.9104477611940297 0  0 0.8955223880597013 0  0 0.8805970149253729 0  0 0.8656716417910446 0  0 0.8507462686567162 0  0 0.8358208955223878 0  0 0.8208955223880595 0  0 0.8059701492537311 0  0 0.7910447761194028 0  0 0.7761194029850744 0  0 0.761194029850746 0  0 0.7462686567164176 0  0 0.7313432835820892 0  0 0.7164179104477608 0  0 0.7014925373134324 0  0 0.686567164179104 0  0 0.6716417910447756 0  0 0.6567164179104472 0  0 0.6417910447761187 0  0 0.6268656716417904 0  0 0.6119402985074619 0  0 0.5970149253731335 0  0 0.5820895522388051 0  0 0.5671641791044766 0  0 0.5522388059701483 0  0 0.5373134328358198 0  0 0.5223880597014914 0  0 0.5074626865671631 0  0 0.4925373134328348 0  0 0.4776119402985064 0  0 0.4626865671641782 0  0 0.4477611940298498 0  0 0.4328358208955215 0  0 0.4179104477611932 0  0 0.4029850746268649 0  0 0.3880597014925365 0  0 0.3731343283582083 0  0 0.35820895522388 0  0 0.3432835820895517 0  0 0.3283582089552233 0  0 0.3134328358208951 0  0 0.2985074626865667 0  0 0.2835820895522384 0  0 0.2686567164179101 0  0 0.2537313432835818 0  0 0.2388059701492535 0  0 0.2238805970149251 0  0 0.208955223880597 0  0 0.1940298507462686 0  0 0.1791044776119403 0  0 0.164179104477612 0  0 0.1492537313432837 0  0 0.1343283582089553 0  0 0.1194029850746271 0  0 0.1044776119402987 0  0 0.08955223880597041 0  0 0.07462686567164201 0  0 0.05970149253731383 0  0 0.04477611940298543 0  0 0.02985074626865714 0  0 0.01492537313432851 0  1 0.01492537313432838 0  1 0.02985074626865675 0  1 0.04477611940298513 0  1 0.05970149253731351 0  1 0.0746268656716419 0  1 0.08955223880597028 0  1 0.1044776119402987 0  1 0.1194029850746271 0  1 0.1343283582089554 0  1 0.1492537313432838 0  1 0.1641791044776121 0  1 0.1791044776119405 0  1 0.1940298507462689 0  1 0.2089552238805972 0  1 0.2238805970149256 0  1 0.2388059701492539 0  1 0.2537313432835824 0  1 0.2686567164179108 0  1 0.2835820895522392 0  1 0.2985074626865676 0  1 0.313432835820896 0  1 0.3283582089552244 0  1 0.3432835820895528 0  1 0.3582089552238813 0  1 0.3731343283582096 0  1 0.3880597014925381 0  1 0.4029850746268665 0  1 0.4179104477611949 0  1 0.4328358208955234 0  1 0.4477611940298517 0  1 0.4626865671641802 0  1 0.4776119402985086 0  1 0.4925373134328369 0  1 0.5074626865671652 0  1 0.5223880597014936 0  1 0.5373134328358218 0  1 0.5522388059701502 0  1 0.5671641791044785 0  1 0.5820895522388068 0  1 0.5970149253731351 0  1 0.6119402985074635 0  1 0.6268656716417917 0  1 0.64179104477612 0  1 0.6567164179104483 0  1 0.6716417910447767 0  1 0.6865671641791049 0  1 0.7014925373134333 0  1 0.7164179104477616 0  1 0.7313432835820899 0  1 0.7462686567164182 0  1 0.7611940298507465 0  1 0.7761194029850749 0  1 0.791044776119403 0  1 0.8059701492537314 0  1 0.8208955223880597 0  1 0.835820895522388 0  1 0.8507462686567163 0  1 0.8656716417910447 0  1 0.8805970149253729 0  1 0.8955223880597013 0  1 0.9104477611940296 0  1 0.925373134328358 0  1 0.9402985074626862 0  1 0.9552238805970146 0  1 0.9701492537313429 0  1 0.9850746268656715 0  0.9850746268656716 1 0  0.9701492537313432 1 0  0.9552238805970149 1 0  0.9402985074626865 1 0  0.9253731343283581 1 0  0.9104477611940297 1 0  0.8955223880597013 1 0  0.8805970149253729 1 0  0.8656716417910446 1 0  0.8507462686567162 1 0  0.8358208955223878 1 0  0.8208955223880595 1 0  0.8059701492537311 1 0  0.7910447761194028 1 0  0.7761194029850744 1 0  0.761194029850746 1 0  0.7462686567164176 1 0  0.7313432835820892 1 0  0.7164179104477608 1 0  0.7014925373134324 1 0  0.686567164179104 1 0  0.6716417910447756 1 0  0.6567164179104472 1 0  0.6417910447761187 1 0  0.6268656716417904 1 0  0.6119402985074619 1 0  0.5970149253731335 1 0  0.5820895522388051 1 0  0.5671641791044766 1 0  0.5522388059701483 1 0  0.5373134328358198 1 0  0.5223880597014914 1 0  0.5074626865671631 1 0  0.4925373134328348 1 0  0.4776119402985064 1 0  0.4626865671641782 1 0  0.4477611940298498 1 0  0.4328358208955215 1 0  0.4179104477611932 1 0  0.4029850746268649 1 0  0.3880597014925365 1 0  0.3731343283582083 1 0  0.35820895522388 1 0  0.3432835820895517 1 0  0.3283582089552233 1 0  0.3134328358208951 1 0  0.2985074626865667 1 0  0.2835820895522384 1 0  0.2686567164179101 1 0  0.2537313432835818 1 0  0.2388059701492535 1 0  0.2238805970149251 1 0  0.208955223880597 1 0  0.1940298507462686 1 0  0.1791044776119403 1 0  0.164179104477612 1 0  0.1492537313432837 1 0  0.1343283582089553 1 0  0.11940298
[...]
<PointData  Tensors="$\sigma$"> 
<DataArray  type="Float64"  Name="$\sigma$"  NumberOfComponents="9" format="ascii">8.4523930949432895e+07 -9.2257886859395459e+07 0.0000000000000000e+00 -9.2257886859395459e+07 3.1024529990732318e+08 0.0000000000000000e+00 0.0000000000000000e+00 0.0000000000000000e+00 0.0000000000000000e+00  8.7113560137128770e+07 8.6625218735185668e+07 0.0000000000000000e+00 8.6625218735185668e+07 3.1315761376316965e+08 0.0000000000000000e+00 0.0000000000000000e+00 0.0000000000000000e+00 0.0000000000000000e+00  1.0105859158105861e+08 -9.0707497109913766e+07 0.0000000000000000e+00 -9.0707497109913766e+07 3.2398570827407789e+08 0.0000000000000000e+00 0.0000000000000000e+00 0.0000000000000000e+00 0.0000000000000000e+00  1.1495283635167685e+08 1.0946612382997537e+08 0.0000000000000000e+00 1.0946612382997537e+08 3.3914257566110939e+08 0.0000000000000000e+00 0.0000000000000000e+00 0.0000000000000000e+00 0.0000000000000000e+00  5.8551177287794821e+07 1.2212699963973925e+07 0.0000000000000000e+00 1.2212699963973925e+07 2.4633760705084178e+08 0.0000000000000000e+00 0.0000000000000000e+00 0.0000000000000000e+00 0.0000000000000000e+00  2.4147162613404802e+04 -5.5170602237194742e+05 0.0000000000000000e+00 -5.5170602237194742e+05 2.4102532663843921e+08 0.0000000000000000e+00 0.0000000000000000e+00 0.0000000000000000e+00 0.0000000000000000e+00  1.4330111052495590e+05 -3.0799756295210082e+05 0.0000000000000000e+00 -3.0799756295210082e+05 2.4163593942128438e+08 0.0000000000000000e+00 0.0000000000000000e+00 0.0000000000000000e+00 0.0000000000000000e+00  3.1218872414036530e+04 5.7958956714272185e+05 0.0000000000000000e+00 5.7958956714272185e+05 2.4119799170458147e+08 0.0000000000000000e+00 0.0000000000000000e+00 0.0000000000000000e+00 0.0000000000000000e+00  1.0392464393792696e+07 -3.6948588286989368e+07 0.0000000000000000e+00 -3.6948588286989368e+07 -4.7650087240515396e+07 0.0000000000000000e+00 0.0000000000000000e+00 0.0000000000000000e+00 0.0000000000000000e+00  -1.0336247248363689e+08 1.5867565527552743e+07 0.0000000000000000e+00 1.5867565527552743e+07 1.0204725293792790e+07 0.0000000000000000e+00 0.0000000000000000e+00 0.0000000000000000e+00 0.0000000000000000e+00  -8.3262270180996880e+07 -2.9315507713172152e+06 0.0000000000000000e+00 -2.9315507713172152e+06 2.0680388787384969e+06 0.0000000000000000e+00 0.0000000000000000e+00 0.0000000000000000e+00 0.0000000000000000e+00  -8.0954210261695549e+07 3.7823940613389038e+06 0.0000000000000000e+00 3.7823940613389038e+06 4.8476037337087776e+05 0.0000000000000000e+00 0.0000000000000000e+00 0.0000000000000000e+00 0.0000000000000000e+00  -8.1080455582384109e+07 1.3863471578710189e+06 0.0000000000000000e+00 1.3863471578710189e+06 3.4494853180966928e+05 0.0000000000000000e+00 0.0000000000000000e+00 0.0000000000000000e+00 0.0000000000000000e+00  -7.4537137111998066e+07 1.0507420868468711e+06 0.0000000000000000e+00 1.0507420868468711e+06 3.9186951053057594e+05 0.0000000000000000e+00 0.0000000000000000e+00 0.0000000000000000e+00 0.0000000000000000e+00  -7.2615350471243650e+07 5.2780733513466758e+05 0.0000000000000000e+00 5.2780733513466758e+05 2.4094856967768125e+05 0.0000000000000000e+00 0.0000000000000000e+00 0.0000000000000000e+00 0.0000000000000000e+00  -6.7602446963049144e+07 3.5494526265058020e+05 0.0000000000000000e+00 3.5494526265058020e+05 1.1769306580118560e+05 0.0000000000000000e+00 0.0000000000000000e+00 0.0000000000000000e+00 0.0000000000000000e+00  -6.4209265338841818e+07 1.2495228819552464e+06 0.0000000000000000e+00 1.2495228819552464e+06 1.6694569790300776e+05 0.0000000000000000e+00 0.0000000000000000e+00 0.0000000000000000e+00 0.0000000000000000e+00  -6.2293761951209806e+07 6.7558566521474952e+05 0.0000000000000000e+00 6.7558566521474952e+05 3.2204133695531134e+04 0.0000000000000000e+00 0.0000000000000000e+00 0.0000000000000000e+00 0.0000000000000000e+00  -5.8470306466706067e+07 4.7715774552706501e+05 0.0000000000000000e+00 4.7715774552706501e+05 1.9949682758563067e+05 0.0000000000000000e+00 0.0000000000000000e+00 0.0000000000000000e+00 0.0000000000000000e+00  -5.6617377706404537e+07 3.1133258902883250e+05 0.0000000000000000e+00 3.1133258902883250e+05 1.0314619876790303e+05 0.0000000000000000e+00 0.0000000000000000e+00 0.0000000000000000e+00 0.0000000000000000e+00  -5.3808597667860657e+07 3.6841959993164564e+04 0.0000000000000000e+00 3.6841959993164564e+04 4.3160506299708992e+04 0.0000000000000000e+00 0.0000000000000000e+00 0.0000000000000000e+00 0.0000000000000000e+00  -5.2955133759567440e+07 6.7764660149408854e+05 0.0000000000000000e+00 6.7764660149408854e+05 3.0614981380885054e+05 0.0000000000000000e+00 0.0000000000000000e+00 0.0000000000000000e+00 0.0000000000000000e+00  -5.1647252673435755e+07 -2.6468610793989524e+05 0.0000000000000000e+00 -2.6468610793989524e+05 7.0012267617309146e+04 0.0000000000000000e+00 0.0000000000000000e+00 0.0000000000000000e+00 0.0000000000000000e+00  -5.0925560567981578e+07 5.1204959178562305e+05 0.0000000000000000e+00 5.1204959178562305e+05 1.6530145207519055e+05 0.0000000000000000e+00 0.0000000000000000e+00 0.0000000000000000e+00 0.0000000000000000e+00  -5.0880872535332017e+07 -3.9110363654503674e+05 0.0000000000000000e+00 -3.9110363654503674e+05 2.7859847086646844e+05 0.0000000000000000e+00 0.0000000000000000e+00 0.0000000000000000e+00 0.0000000000000000e+00  -5.0544505762646884e+07 2.2086375307603256e+05 0.0000000000000000e+00 2.2086375307603256e+05 1.4756203599242017e+04 0.0000000000000000e+00 0.0000000000000000e+00 0.0000000000000000e+00 0.0000000000000000e+00  -5.1421400510217778e+07 -2.1186168911085743e+05 0.0000000000000000e+00 -2.1186168911085743e+05 6.6744318604776650e+04 0.0000000000000000e+00 0.0000000000000000e+00 0.0000000000000000e+00 0.0000000000000000e+00  -5.2215808690661497e+07 -5.6767633829033945e+05 0.0000000000000000e+00 -5.6767633829033945e+05 2.7844278833914679e+04 0.0000000000000000e+00 0.0000000000000000e+00 0.0000000000000000e+00 0.0000000000000000e+00  -5.5053828435687922e+07 4.1814620541375334e+04 0.0000000000000000e+00 4.1814620541375334e+04 4.5671524205538922e+05 0.0000000000000000e+00 0.0000000000000000e+00 0.0000000000000000e+00 0.0000000000000000e+00  -5.6123214577899069e+07 -1.0759732567696718e+06 0.0000000000000000e+00 -1.0759732567696718e+06 3.0589052668711898e+05 0.0000000000000000e+00 0.0000000000000000e+00 0.0000000000000000e+00 0.0000000000000000e+00  -5.9411705797603466e+07 2.2335151018969875e+05 0.0000000000000000e+00 2.2335151018969875e+05 2.5986542758963272e+05 0.0000000000000000e+00 0.0000000000000000e+00 0.0000000000000000e+00 0.0000000000000000e+00  -6.1805399148724675e+07 -1.3555613276749921e+06 0.0000000000000000e+00 -1.3555613276749921e+06 6.3319354540833784e+05 0.0000000000000000e+00 0.0000000000000000e+00 0.0000000000000000e+00 0.0000000000000000e+00  -6.4719892318907373e+07 4.8278913127114072e+04 0.0000000000000000e+00 4.8278913127114072e+04 1.4554916018843028e+05 0.0000000000000000e+00 0.0000000000000000e+00 0.0000000000000000e+00 0.0000000000000000e+00  -6.7924942729722813e+07 -9.9688323962611787e+05 0.0000000000000000e+00 -9.9688323962611787e+05 3.0520309205675317e+05 0.0000000000000000e+00 0.0000000000000000e+00 0.0000000000000000e+00 0.0000000000000000e+00  -7.1705878717137799e+07 -8.9011313683163712e+05 0.0000000000000000e+00 -8.9011313683163712e+05 2.9959730229327961e+03 0.0000000000000000e+00 0.0000000000000000e+00 0.0000000000000000e+00 0.0000000000000000e+00  -7.5967659252682969e+07 -8.2854026439665607e+05 0.0000000000000000e+00 -8.2854026439665607e+05 3.7294410121564526e+05 0.0000000000000000e+00 0.0000000000000000e+00 0.0000000000000000e+00 0.0000000000000000e+00  -7.9119635280718774e+07 -2.3422972799268630e+06 0.0000000000000000e+00 -2.3422972799268630e+06 2.0781364868279408e+04 0.0000000000000000e+00 0.0000000000000000e+00 0.0000000000000000e+00 0.0000000000000000e+00  -8.0575928453758106e+07 -8.5037723172520997e+05 0.0000000000000000e+00 -8.5037723172520997e+05 6.0790643438800820e+04 0.0000000000000000e+00 0.0000000000000000e+00 0.0000000000000000e+00 0.0000000000000000e+00  -8.3915559090124011e+07 1.6713074505824255e+05 0.0000000000000000e+00 1.6713074505824255e+05 -2.7078731244103019e+06 0.0000000000000000e+00 0.0000000000000000e+00 0.0000000000000000e+00 0.0000000000000000e+00  -9.1653361682732642e+07 -1.3288438279460711e+07 0.0000000000000000e+00 -1.3288438279460711e+07 1.0210996124253415e+07 0.0000000000000000e+00 0.0000000000000000e+00 0.0000000000000000e+00 0.0000000000000000e+00  9.3275174738351945e+06 4.9199989684761941e+07 0.0000000000000000e+00 4.9199989684761941e+07 -3.2161348297493309e+07 0.0000000000000000e+00 0.0000000000000000e+00 0.0000000000000000e+00 0.0000000000000000e+00  -7.4795528650154546e+06 2.6358153818847068e+07 0.0000000000000000e+00 2.6358153818847068e+07 4.0740902354494196e+08 0.0000000000000000e+00 0.0000000000000000e+00 0.0000000000000000e+00 0.0000000000000000e+00  1.4399806108848110e+06 -4.6948434759696550e+05 0.0000000000000000e+00 -4.6948434759696550e+05 2.8797693137760270e+08 0.0000000000000000e+00 0.0000000000000000e+00 0.0000000000000000e+00 0.0000000000000000e+00  -2.1206004339664569e+06 2.2594351755816722e+06 0.0000000000000000e+00 2.2594351755816722e+06 2.7496975777900535e+08 0.0000000000000000e+00 0.0000000000000000e+00 0.0000000000000000e+00 0.0000000000000000e+00  -2.0986904873320041e+05 3.0769886392440437e+05 0.0000000000000000e+00 3.0769886392440437e+05 2.6667239378368270e+08 0.0000000000000000e+00 0.0000000000000000e+00 0.0000000000000000e+00 0.0000000000000000e+00  -4.7366628458152147e+05 2.5668155187105978e+05 0.0000000000000000e+00 2.5668155187105978e+05 2.6052614383142319e+08 0.0000000000000000e+00 0.0000000000000000e+00 0.0000000000000000e+00 0.0000000000000000e+00  -2.6229951755185978e+05 2.1557840684803922e+05 0.0000000000000000e+00 2.1557840684803922e+05 2.5734818029945898e+08 0.0000000000000000e+00 0.0000000000000000e+00 0.0000000000000000e+00 0.0000000000000000e+00  -1.6503139591039560e+05 8.6145712300421874e+04 0.0000000000000000e+00 8.6145712300421874e+04 2.5542582097586754e+08 0.0000000000000000e+00 0.0000000000000000e+00 0.0000000000000000e+00 0.0000000000000000e+00  -1.9281847630140182e+05 1.0018166040370251e+05 0.0000000000000000e+00 1.0018166040370251e+05 2.5416387039562222e+08 0.0000000000000000e+00 0.0000000000000000e+00 0.0000000000000000e+00 0.0000000000000000e+00  -1.0471938423539574e+05 1.9187638243935493e+04 0.0000000000000000e+00 1.9187638243935493e+04 2.5342515026108399e+08 0.0000000000000000e+00 0.0000000000000000e+00 0.0000000000000000e+00 0.0000000000000000e+00  -1.7321132864053803e+05 4.9728492737712157e+04 0.0000000000000000e+00 4.9728492737712157e+04 2.5301573146876812e+08 0.0000000000000000e+00 0.0000000000000000e+00 0.0000000000000000e+00 0.0000000000000000e+00  -8.7754549980796175e+04 -5.1543761767833321e+03 0.0000000000000000e+00 -5.1543761767833321e+03 2.5274132906145424e+08 0.0000000000000000e+00 0.0000000000000000e+00 0.0000000000000000e+00 0.0000000000000000e+00  -1.7058832451956390e+05 3.2203343087176472e+04 0.0000000000000000e+00 3.2203343087176472e+04 2.5267554502458182e+08 0.0000000000000000e+00 0.0000000000000000e+00 0.0000000000000000e+00 0.0000000000000000e+00  -8.1948787314816043e+04 -1.1987501595528165e+04 0.0000000000000000e+00 -1.1987501595528165e+04 2.5258921369218537e+08 0.0000000000000000e+00 0.0000000000000000e+00 0.0000000000000000e+00 0.0000000000000000e+00  -1.6404825162388047e+05 2.9439059768897256e+04 0.0000000000000000e+00 2.9439059768897256e+04 2.5264202899245140e+08 0.0000000000000000e+00 0.0000000000000000e+00 0.0000000000000000e+00 0.0000000000000000e+00  -7.8225030273931363e+04 -6.9727197199403163e+03 0.0000000000000000e+00 -6.9727197199403163e+03 2.5258524841643825e+08 0.0000000000000000e+00 0.0000000000000000e+00 0.0000000000000000e+00 0.0000000000000000e+00  -1.4772485408988531e+05 2.1193855829596974e+04 0.0000000000000000e+00 2.1193855829596974e+04 2.5261968403191069e+08 0.0000000000000000e+00 0.0000000000000000e+00 0.0000000000000000e+00 0.0000000000000000e+00  -6.8229709182783496e+04 -6.1834073744421636e+04 0.0000000000000000e+00 -6.1834073744421636e+04 2.5267556876045105e+08 0.0000000000000000e+00 0.0000000000000000e+00 0.0000000000000000e+00 0.0000000000000000e+00  -1.7685640639179866e+05 1.9683381263905281e+05 0.0000000000000000e+00 1.9683381263905281e+05 2.5278920691421065e+08 0.0000000000000000e+00 0.0000000000000000e+00 0.0000000000000000e+00 0.0000000000000000e+00  -8.1883950297167990e+04 1.0008346015714733e+05 0.0000000000000000e+00 1.0008346015714733e+05 2.5247368958559236e+08 0.0000000000000000e+00 0.0000000000000000e+00 0.0000000000000000e+00 0.0000000000000000e+00  -1.4517123749903752e+05 -1.1056280831711429e+05 0.0000000000000000e+00 -1.1056280831711429e+05 2.5276270986951619e+08 0.0000000000000000e+00 0.0000000000000000e+00 0.0000000000000000e+00 0.0000000000000000e+00  -1.5135823333665458e+05 2.4298920879063444e+04 0.0000000000000000e+00 2.4298920879063444e+04 2.5264252003827935e+08 0.0000000000000000e+00 0.0000000000000000e+00 0.0000000000000000e+00 0.0000000000000000e+00  -6.9856724354003396e+04 -7.5202395843765153e+03 0.0000000000000000e+00 -7.5202395843765153e+03 2.5257709114325595e+08 0.0000000000000000e+00 0.0000000000000000e+00 0.0000000000000000e+00 0.0000000000000000e+00  -1.4586688800320547e+05 -1.1316416033543705e+04 0.0000000000000000e+00 -1.1316416033543705e+04 2.5285733316968936e+08 0.0000000000000000e+00 0.0000000000000000e+00 0.0000000000000000e+00 0.0000000000000000e+00  -6.5208950937554713e+04 -4.0902826589600183e+04 0.0000000000000000e+00 -4.0902826589600183e+04 2.5299708522730461e+08 0.0000000000000000e+00 0.0000000000000000e+00 0.0000000000000000e+00 0.0000000000000000e+00  -9.0787854834638129e+04 -2.8491597063218302e+04 0.0000000000000000e+00 -2.8491597063218302e+04 2.5347117869409937e+08 0.0000000000000000e+00 0.0000000000000000e+00 0.0000000000000000e+00 0.0000000000000000e+00  -5.2702016472900490e+04 -1.3085963058320062e+05 0.0000000000000000e+00 -1.3085963058320062e+05 2.5422199550953552e+08 0.0000000000000000e+00 0.0000000000000000e+00 0.0000000000000000e+00 0.0000000000000000e+00  -6.0362815449167094e+04 -1.8363079483810760e+05 0.0000000000000000e+00 -1.8363079483810760e+05 2.5549179460893679e+08 0.0000000000000000e+00 0.0000000000000000e+00 0.0000000000000000e+00 0.0000000000000000e+00  -1.0209153327167074e+04 -3.6195139305782196e+05 0.0000000000000000e+00 -3.6195139305782196e+05 2.5753022668101868e+08 0.0000000000000000e+00 0.0000000000000000e+00 0.0000000000000000e+00 0.0000000000000000e+00  -6.1779028666012433e+04 -6.3941646192145627e+05 0.0000000000000000e+00 -6.3941646192145627e+05 2.6070270159405401e+08 0.0000000000000000e+00 0.0000000000000000e+00 0.0000000000000000e+00 0.0000000000000000e+00  3.7372792250205559e+05 -9.1460993748918432e+05 0.0000000000000000e+00 -9.1460993748918432e+05 2.6693932364265871e+08 0.0000000000000000e+00 0.0000000000000000e+00 0.0000000000000000e+00 0.0000000000000000e+00  -1.0931009932510094e+06 -2.8049989962138822e+06 0.0000000000000000e+00 -2.8049989962138822e+06 2.7617831691874635e+08 0.0000000000000000e+00 0.0000000000000000e+00 0.0000000000000000e+00 0.0000000000000000e+00  5.0272109506710265e+06 -2.4083790067107691e+06 0.0000000000000000e+00 -2.4083790067107691e+06 2.8740506496376973e+08 0.0000000000000000e+00 0.0000000000000000e+00 0.0000000000000000e+00 0.0000000000000000e+00  -1.7114694471827473e+07 -1.2047483511838792e+07 0.0000000000000000e+00 -1.2047483511838792e+07 4.0277283343820518e+08 0.0000000000000000e+00 0.0000000000000000e+00 0.0000000000000000e+00 0.0000000000000000e+00  8.5841667350675371e+06 -5.3984942086151488e+07 0.0000000000000000e+00 -5.3984942086151488e+07 -3.2521762388215676e+07 0.0000000000000000e+00 0.0000000000000000e+00 0.0000000000000000e+00 0.0000000000000000e+00  -9.0897606983584508e+07 9.5468836990808509e+06 0.0000000000000000e+00 9.5468836990808509e+06 2.0910302831618663e+07 0.0000000000000000e+00 0.0000000000000000e+00 0.0000000000000000e+00 0.0000000000000000e+00  -8.2400469336263672e+07 -1.2914548770255837e+05 0.0000000000000000e+00 -1.2914548770255837e+05 -5.4908196578046633e+06 0.0000000000000000e+00 0.0000000000000000e+00 0.0000000000000000e+00 0.0000000000000000e+00  -8.2389243229835913e+07 2.4388325277900374e+06 0.0000000000000000e+00 2.4388325277900374e+06 1.2925927304384501e+06 0.0000000000000000e+00 0.0000000000000000e+00 0.0000000000000000e+00 0.0000000000000000e+00  -7.9623879392450809e+07 9.1784746164583857e+05 0.0000000000000000e+00 9.1784746164583857e+05 -4.0253305050767091e+05 0.0000000000000000e+00 0.0000000000000000e+00 0.0000000000000000e+00 0.0000000000000000e+00  -7.5425578692950964e+07 1.4038979914431390e+06 0.0000000000000000e+00 1.4038979914431390e+06 4.7991362012064765e+05 0.0000000000000000e+00 0.0000000000000000e+00 0.0000000000000000e+00 0.0000000000000000e+00  -7.1666330653562769e+07 4.6438954714670184e+05 0.0000000000000000e+00 4.6438954714670184e+05 -5.1229632453763807e+04 0.0000000000000000e+00 0.0000000000000000e+00 0.0000000000000000e+00 0.0000000000000000e+00  -6.8074758826562360e+07 1.5902909177100093e+06 0.0000000000000000e+00 1.5902909177100093e+06 3.4285732770314338e+04 0.0000000000000000e+00 0.0000000000000000e+00 0.0000000000000000e+00 0.0000000000000000e+00  -6.4790629485088170e+07 7.3668292900600703e+05 0.0000000000000000e+00 7.3668292900600703e+05 1.5043188696261711e+05 0.0000000000000000e+00 0.0000000000000000e+00 0.0000000000000000e+00 0.0000000000000000e+00  -6.1689827364653289e+07 7.4303159321598662e+05 0.0000000000000000e+00 7.4303159321598662e+05 -5.4249282359158409e+04 0.0000000000000000e+00 0.0000000000000000e+00 0.0000000000000000e+00 0.0000000000000000e+00  -5.8497897084446050e+07 5.6326968913274060e+05 0.0000000000000000e+00 5.6326968913274060e+05 1.9787930045235218e+05 0.0000000000000000e+00 0.0000000000000000e+00 0.0000000000000000e+00 0.0000000000000000e+00  -5.6462045912119158e+07 4.5996331308158097e+05 0.0000000000000000e+00 4.5996331308158097e+05 8.7258478519273878e+04 0.0000000000000000e+00 0.0000000000000000e+00 0.0000000000000000e+00 0.0000000000000000e+00  -5.4121576474516928e+07 4.6007100698488037e+05 0.0000000000000000e+00 4.6007100698488037e+05 1.1656505529728047e+05 0.0000000000000000e+00 0.0000000000000000e+00 0.0000000000000000e+00 0.0000000000000000e+00  -5.2862971418484189e+07 3.1446448282573186e+05 0.0000000000000000e+00 3.1446448282573186e+05 1.6388320397899390e+05 0.0000000000000000e+00 0.0000000000000000e+00 0.0000000000000000e+00 0.0000000000000000e+00  -5.0762955181750007e+07 3.1603166553593718e+05 0.0000000000000000e+00 3.1603166553593718e+05 -7.2022085948483058e+04 0.0000000000000000e+00 0.0000000000000000e+00 0.0000000000000000e+00 0.0000000000000000e+00  -5.0901245373153396e+07 -2.7072924373514793e+05 0.0000000000000000e+00 -2.7072924373514793e+05 1.5406060448897604e+05 0.0000000000000000e+00 0.0000000000000000e+00 0.0000000000000000e+00 0.0000000000000000e+00  -5.0558307426406719e+07 -1.3790982556738070e+04 0.0000000000000000e+00 -1.3790982556738070e+04 7.9185263360403507e+04 0.0000000000000000e+00 0.0000000000000000e+00 0.0000000000000000e+00 0.0000000000000000e+00  -5.0432430912652329e+07 7.4864887865113487e+03 0.0000000000000000e+00 7.4864887865113487e+03 1.8864756787814075e+05 0.0000000000000000e+00 0.0000000000000000e+00 0.0000000000000000e+00 0.0000000000000000e+00  -5.1699682786730133e+07 -1.6328777370029845e+05 0.0000000000000000e+00 -1.6328777370029845e+05 9.9223844053423818e+04 0.0000000000000000e+00 0.0000000000000000e+00 0.0000000000000000e+00 0.0000000000000000e+00  -5.2433653512035161e+07 -5.3752238900444785e+05 0.0000000000000000e+00 -5.3752238900444785e+05 2.5938038711337588e+05 0.0000000000000000e+00 0.0000000000000000e+00 0.0000000000000000e+00 0.0000000000000000e+00  -5.4556606601808563e+07 2.0483653871241899e+05 0.0000000000000000e+00 2.0483653871241899e+05 2.3974148239184491e+05 0.0000000000000000e+00 0.0000000000000000e+